default_name
240581
  65.0174345  95.6799509  39.2772605  65.6320857  94.7835082  39.1954417
  66.3734907  94.7765219  39.9944211  66.1386667  94.7765216  38.2303377
  64.7789992  93.5184990  39.3089997  63.5619992  93.5984990  39.4709997
  65.3309992  92.7474990  38.3549997  66.3297776  92.7217553  38.2070860
  64.4799992  91.9664990  37.4649997  63.7949992  92.6434990  36.9769997
  65.3259992  91.2244990  36.4289997  66.3399992  91.0504990  36.8469997
  64.8519452  90.2664761  36.2155400  65.4669992  91.9944990  35.1319997
  65.0719992  93.1564990  35.0399997  66.0319992  91.3484990  34.1179997
  66.1509131  91.8144398  33.2298226  66.3400534  90.3943802  34.2399042
  63.6229992  90.9764990  38.2459997  63.1219992  91.2914990  39.3259997
  63.4529992  89.7774990  37.6859997  63.8364512  89.5660695  36.7758560
  62.6469992  88.7584990  38.3509997  61.7099992  89.2074990  38.6449997
  62.4009992  87.5824990  37.4049997  61.8989992  86.7694990  37.9699997
  61.7588830  87.8819115  36.5766647  63.6509992  87.0294990  36.7989997
  64.2879992  87.4794990  35.6799997  63.8424574  88.3333560  35.1695877
  65.4049992  86.7184990  35.4329997  66.0477420  86.8486658  34.6648605
  65.5069992  85.7544990  36.4009997  66.4619992  84.7574990  36.5769997
  67.2959992  84.6324990  35.9029997  66.3109992  83.9224990  37.6489997
  67.0339992  83.1384990  37.8139997  65.2389992  84.0624990  38.5389997
  65.1519992  83.3844990  39.3749997  64.2919992  85.0514990  38.3659997
  63.4749992  85.1374990  39.0679997  64.4189992  85.9204990  37.2789997
  63.3069992  88.2794990  39.6379997  62.6179992  88.0184990  40.6329997
  64.6349992  88.1454990  39.6359997  65.1784901  88.3307289  38.8050924
  65.3319992  87.6694990  40.8269997  64.8739992  86.7404990  41.1349997
  66.8129992  87.4584990  40.5299997  66.9199992  86.8714990  39.5929997
  67.3515746  88.3945630  40.3822812  67.5379992  86.7124990  41.6069997
  67.0929992  85.4704990  42.0209997  66.2121634  85.0363267  41.5480065
  67.7489992  84.7824990  43.0189997  67.4025721  83.7946263  43.3226386
  68.8439992  85.3464990  43.6329997  69.3589992  84.8114990  44.4179997
  69.2819992  86.5924990  43.2449997  70.1379992  87.0384990  43.7299997
  68.6299992  87.2714990  42.2409997  68.9752060  88.2600904  41.9383133
  65.1689992  88.6354990  41.9939997  64.9599992  88.2114990  43.1359997
  65.2849992  89.9384990  41.7269997  65.5387862  90.2652513  40.8056287
  65.1099992  90.9254990  42.7869997  65.7659992  90.6624990  43.6029997
  65.4409992  92.3224990  42.2649997  64.5479992  92.7524990  41.7619997
  65.7219432  92.9531710  43.1084588  66.5069992  92.2784990  41.3329997
  66.6955988  93.1663756  41.0204216  63.6949992  90.8824990  43.3459997
  63.4969992  90.9854990  44.5609997  62.6979992  90.7294990  42.4709997
  62.8727387  90.7276857  41.4762323  61.3169992  90.6264990  42.9309997
  61.1099992  91.4724990  43.5679997  60.3659992  90.6124990  41.7349997
  60.4949858  91.5274881  41.1568497  60.4879992  91.5464990  41.1449997
  59.3159992  90.5264990  42.0869997  61.1189992  89.3854990  43.7919997
  60.4509992  89.4364990  44.8299997  61.6959992  88.2554990  43.3739997
  62.1872535  88.2154371  42.4924308  61.5799992  87.0294990  44.1579997
  60.5319992  86.8414990  44.3369997  62.2109992  85.8614990  43.4009997
  63.0669992  86.2634990  42.8209997  62.6020878  85.1810756  44.1574213
  61.3209992  85.0854990  42.4289997  61.1969992  85.6714990  41.4939997
  61.9429992  83.7384990  42.1019997  62.0578409  83.1587991  43.0178917
  61.2977261  83.1983241  41.4092266  62.9203166  83.8906026  41.6439433
  59.9289992  84.9024990  43.0069997  59.4808351  85.8786322  43.1925051
  59.3115257  84.3481842  42.3002021  59.9938878  84.3491170  43.9438331
  62.2299992  87.1884990  45.5259997  61.6579992  86.7824990  46.5459997
  63.4279992  87.7754990  45.5669997  63.9010840  88.0514001  44.7183721
  64.1159992  87.9734990  46.8379997  64.1539992  87.0244990  47.3509997
  65.5269992  88.5064990  46.5959997  66.0823037  87.7994490  45.9797064
  66.1019992  87.7854990  45.9769997  66.0439992  88.6624990  47.5669997
  63.3349992  88.9154990  47.7459997  63.2069992  88.6624990  48.9499997
  62.8029992  90.0054990  47.1889997  62.9618902  90.2304277  46.2172692
  62.0309992  90.9414990  47.9979997  62.6179992  91.2004990  48.8669997
  61.7009992  92.1914990  47.1849997  61.8809992  91.9624990  46.1139997
  60.6373381  92.3979545  47.3037475  62.5059992  93.4414990  47.5449997
  62.2129992  94.2744990  46.8709997  62.2469992  93.8454990  48.9869997
  62.5407766  93.0325416  49.6509982  62.8279820  94.7364642  49.2252030
  61.1862138  94.0576595  49.1205005  63.9899992  93.2084990  47.3089997
  64.1584505  92.9706548  46.2586884  64.5458185  94.1088517  47.5707841
  64.3310022  92.3787333  47.9281159  60.7599992  90.2944990  48.5299997
  60.3899992  90.4994990  49.6899997  60.0779992  89.5044990  47.6979997
  60.3705438  89.3629365  46.7417167  58.8749992  88.8294990  48.1579997
  58.1959992  89.5804990  48.5339997  58.4141513  88.3153936  47.3145460
  59.1589992  87.8214990  49.2549997  58.4459992  87.7614990  50.2619997
  60.2119992  87.0194990  49.0799997  60.7473606  87.0079644  48.2236385
  60.5329992  86.0364990  50.1099997  59.6189992  85.5274990  50.3779997
  61.5799992  85.0214990  49.6049997  61.2909992  84.6784990  48.5889997
  62.9719992  85.6234990  49.5469997  63.2684984  85.9512105  50.5433903
  63.6774371  84.8748855  49.1863950  62.9712043  86.4773690  48.8694992
  61.5759992  83.7814990  50.4869997  60.5739992  83.3014990  50.4669997
  61.8139992  84.0624990  51.5349997  62.3269992  83.0514990  50.1149997
  60.9709992  86.7314990  51.3919997  60.6229992  86.2824990  52.4879997
  61.6979992  87.8494990  51.2899997  62.0174469  88.1866762  50.3931362
  62.1049992  88.5774990  52.4879997  62.5299992  87.8704990  53.1839997
  63.1299992  89.6524990  52.1259997  62.6699992  90.4014990  51.4459997
  63.6219992  90.3664990  53.3749997  63.9349992  89.6234990  54.1399997
  62.8069992  90.9904990  53.7989997  64.4939992  91.0074990  53.1259997
  64.2469992  89.0454990  51.4639997  64.8901784  89.7210671  51.2370006
  60.9049992  89.1974990  53.1929997  60.8399992  89.2094990  54.4279997
  59.9439992  89.7144990  52.4239997  60.0638668  89.7959374  51.4244503
  58.7209992  90.2414990  53.0189997  58.9959992  90.9584990  53.7779997
  57.8619992  90.9044990  51.9389997  58.4819992  91.7084990  51.4949997
  57.7316861  90.1509547  51.1622825  56.5039992  91.5374990  52.2699997
  56.2979992  92.3494990  51.5409997  55.3629992  90.5234990  52.2169997
  55.5491183  89.7282757  52.9388574  54.4233063  91.0201918  52.4586070
  55.3011510  90.0973670  51.2156572  56.5379992  92.2544990  53.6149997
  57.2897258  93.0433413  53.5879004  55.5605710  92.6916201  53.8191085
  56.7880448  91.5418928  54.4009823  57.9529992  89.1394990  53.7339997
  57.3819992  89.3644990  54.8079997  57.9229992  87.9394990  53.1499997
  58.2720186  87.7991759  52.2126661  57.3089992  86.8064990  53.8369997
  56.3149992  87.0964990  54.1419997  57.2509992  85.5934990  52.9079997
  57.0659992  85.9704990  51.8809997  58.2457908  85.1489114  52.9368371
  56.1999992  84.5134990  53.1959997  55.2469992  84.9964990  53.5009997
  55.9649992  83.6694990  51.9579997  56.8979640  83.1896885  51.6622675
  55.2172875  82.9064728  52.1743767  55.6106137  84.3048968  51.1463465
  56.5979992  83.6164990  54.3579997  56.7179382  84.2190919  55.2583306
  55.8222986  82.8686436  54.5226266  57.5393987  83.1180014  54.1269881
  58.0629992  86.4764990  55.1209997  57.4479992  86.1534990  56.1429997
  59.3959992  86.5564990  55.0869997  59.8813124  86.7675820  54.2267587
  60.1909992  86.2774990  56.2799997  59.9329992  85.2894990  56.6339997
  61.6819992  86.3534990  55.9469997  61.9119992  87.3834990  55.6019997
  62.2274143  86.1502828  56.8685883  62.1229992  85.3754990  54.8719997
  62.2009992  84.3614990  55.3179997  61.3618945  85.3762513  54.0917298
  63.4649992  85.7534990  54.2699997  63.4474880  85.5313352  53.2030247
  63.6061172  86.8245108  54.4153230  64.6049992  85.0014990  54.9229997
  64.9459992  85.5454990  55.8289997  63.8069693  85.5544173  54.4274911
  65.7659992  84.8764990  54.0029997  66.2079992  85.8084990  53.8729997
  65.4419992  84.5144990  53.0829997  66.4609992  84.2174990  54.4089997
  59.8469992  87.2374990  57.4099997  59.7619992  86.8334990  58.5749997
  59.6479992  88.5174990  57.0859997  59.8000169  88.8405704  56.1412167
  59.2659992  89.4944990  58.0969997  59.9019992  89.3544990  58.9579997
  59.4199992  90.9104990  57.5429997  59.0859992  90.9024990  56.4839997
  58.7979010  91.6055909  58.1068622  61.1019992  91.5674990  57.6199997
  60.8162004  92.7457186  57.0731763  57.8419992  89.2874990  58.5959997
  57.4549992  89.8974990  59.5959997  57.0469992  88.4574990  57.9149997
  57.3561181  88.0041186  57.0670662  55.6709992  88.2474990  58.3489997
  55.2659992  89.2004990  58.6569997  54.8399992  87.6584990  57.2099997
  55.5349992  87.2074990  56.4719997  54.2270679  86.8516539  57.6117661
  53.9469992  88.6594990  56.4759997  54.5819992  89.4414990  56.0069997
  53.1259992  87.9684990  55.4009997  52.4947636  87.2067715  55.8586149
  52.4994538  88.7021793  54.8937969  53.7937845  87.4999705  54.6780582
  53.0459992  89.3904990  57.4579997  53.6578409  89.9277936  58.1826124
  52.4177466  90.0986109  56.9176504  52.4153918  88.6700321  57.9789226
  55.5899992  87.3554990  59.5829997  54.7779992  87.6174990  60.4759997
  56.4109992  86.3104990  59.6579997  57.0323807  86.0889357  58.8932159
  56.3809992  85.4094990  60.8109997  55.3779992  85.4084990  61.2099997
  56.7889992  83.9994990  60.3979997  57.8969992  83.9854990  60.3529997
  56.4760236  83.3607431  61.2239157  56.2839992  83.4104990  59.0779997
  55.3289992  83.9044990  58.7969997  57.3019992  83.6214990  57.9749997
  58.2375574  83.1315250  58.2447314  56.9245070  83.1959802  57.0451964
  57.4770426  84.6889433  57.8407508  55.9599992  81.9354990  59.2329997
  55.1868427  81.8105134  59.9910940  55.6032576  81.5394663  58.2822133
  56.8569334  81.3959564  59.5371411  57.2689992  85.9194990  61.9409997
  58.1119992  85.1984990  62.4719997  57.0759992  87.1774990  62.3219997
  56.4419522  87.7645202  61.7990372  57.8239992  87.7764990  63.4259997
  58.8369992  87.4044990  63.3789997  57.8199992  89.3134990  63.3389997
  56.8419992  89.6564990  62.9389997  58.0459992  89.9294990  64.7109997
  58.9319992  89.4654990  65.1969997  57.1579992  89.7554990  65.3549997
  58.2279992  91.0204990  64.6109997  58.8909992  89.8004990  62.3649997
  58.5871816  89.4846130  61.3669958  58.9003755  90.8893673  62.4137576
  60.2619992  89.2764990  62.6579997  60.2535179  88.1876355  62.6089661
  60.9656552  89.6673125  61.9229947  60.5667109  89.5923882  63.6557294
  57.2649992  87.2874990  64.7609997  58.0419992  86.7914990  65.5909997
  55.9589992  87.3824990  65.0309997  54.8749992  87.9634990  64.2109997
  55.7808916  87.6072756  64.7014732  54.7683631  87.4714135  63.2442631
  53.6509992  87.8064990  65.0729997  52.9629992  88.6674990  64.9349997
  54.4795697  87.8642250  64.3671384  54.1429992  87.7564990  66.4559997
  53.4159992  87.2444990  67.1219997  54.3503045  88.7435416  66.8693652
  55.4459992  86.9544990  66.3369997  56.1709992  87.1454990  67.1129997
  55.1669992  85.4644990  66.4549997  54.5499992  85.0524990  67.4409997
  55.5899992  84.6504990  65.4929997  56.0785088  85.0103900  64.6855740
  55.3169992  83.2244990  65.5539997  54.2679992  83.0944990  65.7749997
  55.6669992  82.5484990  64.2279997  55.8069992  81.4574990  64.3849997
  54.5489992  82.7504990  63.2169997  54.3929992  83.8354990  63.0319997
  53.6029992  82.3174990  63.6069997  54.8149992  82.2624990  62.2549997
  56.8809992  83.1054990  63.7099997  57.0987999  82.6796958  62.8776207
  56.0979992  82.5734990  66.6919997  57.0729992  83.1234990  67.2109997
  55.6409992  81.3864990  67.0859997  54.8336708  80.9748843  66.6400249
  56.2549992  80.6724990  68.1979997  56.2389992  81.3184990  69.0639997
  55.4829992  79.3814990  68.4769997  54.7429992  79.5694990  69.2839997
  54.9792648  79.1264172  67.5446452  56.3379992  78.2144990  68.9239997
  56.9029992  78.1844990  70.1929997  56.7234381  79.0196868  70.8699920
  57.6819992  77.1184990  70.6019997  58.1187668  77.1051966  71.6005782
  57.9049992  76.0674990  69.7379997  58.6809992  75.0044990  70.1399997
  58.4769992  74.2564990  69.5739997  57.3559992  76.0744990  68.4739997
  57.5329992  75.2494990  67.7999997  56.5779992  77.1434990  68.0739997
  56.1402707  77.1556597  67.0758284  57.7149992  80.3664990  67.8979997
  58.0539992  79.8834990  66.8139997  58.5789992  80.6514990  68.8669997
  58.2382990  81.1154519  69.6969215  59.9999992  80.3614990  68.7739997
  60.2009992  80.0024990  67.7759997  60.8399992  81.6084990  69.0659997
  61.9139992  81.3434990  68.9759997  60.6180068  82.4023494  68.3528231
  60.6119992  82.1824990  70.4309997  59.5849992  83.0594990  70.7079997
  59.6289992  83.3944990  71.9849997  58.8966767  84.0856691  72.4022364
  60.6449992  82.7654990  72.5469997  60.9216786  82.8292412  73.5162702
  61.2759992  82.0004990  71.5959997  62.1453171  81.4014936  71.8672565
  60.3509992  79.2514990  69.7539997  59.9239992  79.2744990  70.9129997
  61.1309992  78.2834990  69.2859997  61.4508853  78.3099258  68.3283599
  61.4809992  77.1274990  70.0989997  60.6199992  76.8594990  70.6919997
  61.8969992  75.9614990  69.2079997  61.9669992  75.0344990  69.8159997
  61.1444345  75.8285902  68.4307728  63.1569992  76.2064990  68.6079997
  63.3975743  75.4609467  68.0531346  62.5799992  77.5134990  71.0859997
  62.9129992  78.6894990  71.2609997  63.1809992  76.5134990  71.7259997
  62.9308201  75.5442955  71.5912612  64.2179992  76.8354990  72.7229997
  63.8599992  77.6534990  73.3299997  64.5009992  75.6134990  73.5889997
  65.5799992  75.3534990  73.5989997  64.0449992  75.7994990  75.0239997
  63.0689992  76.3284990  75.0479997  64.7909992  76.4054990  75.5819997
  63.9249992  74.8094990  75.5129997  63.7409992  74.6224990  72.9089997
  63.8335615  73.7813311  73.3622867  65.4649992  77.3134990  72.0129997
  66.3979992  77.7684990  72.7009997  65.4979992  77.2124990  70.6839997
  64.7374370  76.7924540  70.1690175  66.7279992  77.5924990  69.9399997
  67.5649992  77.1054990  70.4169997  66.6509992  77.1834990  68.4749997
  65.6139992  77.3374990  68.1069997  67.3334369  77.8146042  67.9057150
  67.0249992  75.7354990  68.2799997  66.0958006  74.8869448  68.3443999
  68.2398441  75.4781265  68.0666662  66.9839992  79.0884990  70.1469997
  68.1509992  79.5084990  70.1329997  65.9189992  79.8554990  70.3529997
  64.9922792  79.4802013  70.2100274  66.0459992  81.2574990  70.7329997
  66.6189992  81.7664990  69.9739997  64.6469992  81.8704990  70.8579997
  63.9989992  81.4624990  70.0539997  64.2090650  81.6260408  71.8257568
  64.6119992  83.3704990  70.7359997  65.4619992  84.1754990  71.4719997
  66.1756341  83.7115216  72.1528449  65.4149992  85.5494990  71.3529997
  66.0889052  86.1719962  71.9415986  64.5139992  86.1344990  70.4899997
  64.4779992  87.2094990  70.3929997  63.6599992  85.3454990  69.7499997
  62.9509992  85.8014990  69.0749997  63.7089992  83.9744990  69.8739997
  63.0342545  83.3498682  69.2886314  66.8229992  81.3814990  72.0369997
  67.7419992  82.2024990  72.1579997  66.4829992  80.5434990  73.0169997
  65.7399788  79.8716344  72.8880892  67.1219992  80.6244990  74.3239997
  67.0999992  81.6554990  74.6459997  66.3859992  79.7364990  75.3249997
  65.3559992  80.1314990  75.4549997  66.3417254  78.7382237  74.8895846
  67.0489992  79.6644990  76.6879997  66.3849992  79.1084990  77.3839997
  67.9906079  79.1299660  76.5625134  67.3209992  81.0354990  77.2719997
  66.4249992  81.9024990  77.2009997  68.4299992  81.2474990  77.8069997
  68.5969992  80.2474990  74.2499997  69.4429992  80.9084990  74.8599997
  68.9339992  79.1864990  73.5079997  68.2415388  78.6137390  73.0469748
  70.3339992  78.7694990  73.4419997  70.7319992  78.7824990  74.4459997
  70.4669992  77.3564990  72.8349997  70.0419992  76.6144990  73.5439997
  69.7489992  77.2524990  71.5279997  70.1687386  77.9711272  70.8240869
  69.8635363  76.2445869  71.1291325  68.6904327  77.4658434  71.6764002
  71.9289992  76.9854990  72.6539997  72.4899992  77.1714990  73.5939997
  72.3789992  77.6004990  71.8449997  72.0169992  75.9074990  72.3959997
  71.1599992  79.7954990  72.6779997  72.3109992  80.0754990  73.0359997
  70.5909992  80.3864990  71.6249997  69.6850309  80.1108079  71.2738370
  71.3349992  81.4064990  70.8939997  72.3309992  81.0314990  70.7119997
  70.6369992  81.7254990  69.5729997  69.5399992  81.7494990  69.7459997
  70.9417986  82.6982844  69.1871423  70.9219992  80.7284990  68.4939997
  72.1679992  80.5884990  67.9229997  72.9782309  81.1371366  68.1732416
  72.1279992  79.6344990  67.0099997  73.0204121  79.3707056  66.4424511
  70.8999992  79.1504990  66.9679997  70.1269992  79.8154990  67.8889997
  69.0755780  79.5540469  68.0084042  71.5289992  82.6634990  71.7349997
  72.5989992  83.2814990  71.6969997  70.5199992  83.0484990  72.5219997
  69.6106180  82.6106568  72.4843269  70.7059992  84.1804990  73.4239997
  71.1259992  84.9974990  72.8569997  69.3709992  84.5934990  74.0419997
  68.6329992  84.7364990  73.2239997  69.0468291  83.7736990  74.6830470
  69.4429992  85.8744990  74.8559997  70.5039992  86.0844990  75.1079997
  69.0448771  86.6840894  74.2443100  68.6409992  85.7684990  76.1369997
  68.7265151  86.7032025  76.6911795  67.5946791  85.5866626  75.8915425
  69.1189992  84.6794990  76.9809997  68.7889992  83.7574990  76.7849997
  69.9629992  84.8344990  77.9899997  70.4469992  86.0234990  78.3099997
  70.9609992  86.1414990  79.1599997  70.2999992  86.8034990  77.7019997
  70.3339992  83.7704990  78.6959997  69.9749992  82.8664990  78.4629997
  70.9699992  83.8734990  79.4599997  71.7189992  83.8604990  74.5169997
  72.4909992  84.7364990  74.9259997  71.7339992  82.6164990  74.9989997
  71.0383069  81.9408588  74.7168263  72.7209992  82.2174990  75.9959997
  72.7059992  82.9434990  76.7949997  72.3899992  80.8244990  76.5319997
  71.3259992  80.8034990  76.8489997  72.5455314  80.0973572  75.7350213
  73.2519992  80.4374990  77.7149997  73.6979992  81.2924990  78.4779997
  73.4919992  79.1414990  77.8719997  74.0612072  78.8264076  78.6445406
  73.1043041  78.4764135  77.2181995  74.1299992  82.2464990  75.4199997
  75.0859992  82.5824990  76.1229997  74.2809992  81.8754990  74.1459997
  73.5189261  81.4714725  73.6205413  75.5829992  81.9914990  73.4979997
  76.3269992  81.5764990  74.1619997  75.5839992  81.2434990  72.1659997
  74.7469992  81.6254990  71.5429997  76.5195087  81.4071140  71.6310677
  75.4249992  79.7664990  72.3059997  75.2859992  79.0624990  73.4639997
  75.2915586  79.6358419  74.3910092  75.1639992  77.7234990  73.1929997
  75.0433950  76.9926595  73.8796056  75.2279992  77.5384990  71.8369997
  75.1529992  76.3704990  71.0859997  75.0259992  75.3984990  71.5409997
  75.2459992  76.4874990  69.7279997  75.1919992  75.5994990  69.1169997
  75.4089992  77.7324990  69.1119997  75.4789992  77.7864990  68.0349997
  75.4839992  78.8934990  69.8539997  75.6109992  79.8424990  69.3529997
  75.3909992  78.8054990  71.2449997  75.9699992  83.4474990  73.2809997
  77.1549992  83.7904990  73.3419997  74.9859992  84.3074990  73.0099997
  74.0516629  83.9828106  72.8058126  75.2479992  85.7414990  72.9519997
  76.0399992  85.9124990  72.2379997  73.9799992  86.4834990  72.5319997
  73.2679992  85.7234990  72.1499997  73.5723457  86.9032275  73.4516445
  74.0779992  87.5794990  71.4719997  74.5579992  88.4764990  71.9189997
  74.8919992  87.1194990  70.2839997  74.4203808  86.2445576  69.8366157
  74.9441297  87.9204730  69.5465556  75.8992125  86.8613358  70.6110680
  72.6889992  87.9994990  71.0349997  72.1364106  88.3791151  71.8944395
  72.7661428  88.7811188  70.2792083  72.1639953  87.1407743  70.6165958
  75.7439992  86.2614990  74.2929997  76.6369992  87.1134990  74.3499997
  75.1629992  85.7654990  75.3869997  74.4202143  85.0849992  75.3142684
  75.5369992  86.2424990  76.7149997  75.6739992  87.3124990  76.6639997
  74.4439992  85.8914990  77.7229997  73.5022140  86.3424305  77.4102676
  73.4849992  86.3634990  77.4199997  74.7339992  86.2484990  78.7339997
  76.8789992  85.6714990  77.1609997  77.6549992  86.3574990  77.8359997
  77.1629992  84.4144990  76.8119997  76.4829055  83.8510594  76.3219918
  78.4269992  83.7924990  77.2009997  78.5599992  83.9374990  78.2629997
  78.4109992  82.2914990  76.8639997  77.8959992  82.1384990  75.8909997
  79.8259992  81.7464990  76.7749997  80.3499992  81.8854990  77.7449997
  80.3899992  82.2884990  75.9859997  79.7989992  80.6614990  76.5379997
  77.6029992  81.5214990  77.9089997  78.0024087  81.7883446  78.8874506
  76.5700782  81.8613738  77.8337755  77.6529992  80.0204990  77.7369997
  78.6856254  79.6798052  77.8125693  77.0561814  79.5449966  78.5153346
  77.2532968  79.7528347  76.7588925  79.5909992  84.5074990  76.5309997
  80.5859992  84.8564990  77.1779997  79.4839992  84.7374990  75.2269997
  78.7994166  84.2512382  74.6657543  80.3829992  85.6654990  74.5649997
  81.3919992  85.4254990  74.8659997  80.2429992  85.5604990  73.0479997
  80.6159992  86.4904990  72.5679997  81.0359992  84.3774990  72.5249997
  80.7919992  83.4644990  73.1089997  82.1239992  84.5794990  72.6209997
  80.7829992  84.1934990  71.4579997  78.8639992  85.3794990  72.7059997
  78.7768483  85.3135850  71.7522385  80.0769992  87.0854990  75.0369997
  79.0339992  87.3544990  75.6369997  81.0199992  87.9954990  74.7949997
  81.8810546  87.6671503  74.3816353  80.9189992  89.4074990  75.1549997
  81.7969992  89.9074990  74.7739997  79.6499992  90.0564990  74.5749997
  79.6209992  89.8594990  73.4829997  78.7535918  89.6248130  75.0201973
  79.5609992  91.5354990  74.7819997  80.2269992  92.4414990  73.9849997
  79.9579992  93.6674990  74.3959997  80.3951602  94.5303652  73.8935545
  79.1369992  93.5894990  75.4289997  78.7615316  94.3691712  75.9498021
  78.8699992  92.2674990  75.6879997  78.2033357  91.9963590  76.5066229
  80.9599992  89.6234990  76.6649997  81.0289992  90.7734990  77.1129997
  80.9579992  88.5594990  77.4669997  80.8932640  87.6316109  77.0733851
  80.9849992  88.6944990  78.9209997  81.2769992  89.7064990  79.1589997
  79.6049992  88.3834990  79.5129997  79.3089992  87.3474990  79.2389997
  79.6633728  88.4704731  80.5979550  78.6239992  89.2784990  79.0199997
  77.7715284  89.0626734  79.4051133  82.0179992  87.8194990  79.6099997
  82.4019992  88.1394990  80.7399997  82.4889992  86.7424990  78.9909997
  82.1516232  86.5320852  78.0625586  83.4509992  85.8384990  79.5949997
  83.7769992  86.2764990  80.5279997  82.8339992  84.4544990  79.8469997
  82.3989992  84.1074990  78.8869997  83.6685065  83.8024266  80.1048742
  81.7439992  84.3304990  80.9099997  80.7679992  84.6434990  80.4809997
  81.6539992  82.8954990  81.3809997  82.6103505  82.5915797  81.8065864
  80.8757245  82.8095715  82.1392909  81.4109930  82.2500667  80.5369229
  82.0139992  85.2554990  82.0789997  82.0421312  86.2869975  81.7278318
  81.2222035  85.1459889  82.8200586  82.9722029  84.9999893  82.5313927
  84.6619992  85.6854990  78.6899997  84.5519992  85.8274990  77.4679997
  85.8279992  85.3974990  79.2599997  86.1609992  85.4274990  80.6929997
  85.7327135  85.4104587  79.6908114  85.8954312  84.5091842  81.2167081
  87.6339992  85.6714990  80.6829997  87.8489992  86.7604990  80.6549997
  86.5637071  85.5034810  80.8027743  88.1439992  85.0024990  79.4479997
  88.3879992  83.9374990  79.6499997  89.0521017  85.4433976  79.0368331
  87.0019992  85.1144990  78.4319997  87.1329992  85.8874990  77.6919997
  86.8249992  83.8164990  77.6599997  85.9989992  82.9664990  77.9939997
  87.6259992  83.6774990  76.6019997  88.2444127  84.4305027  76.3362001
  87.5829992  82.4904990  75.7609997  86.5659992  82.3524990  75.4249997
  88.5319992  82.6624990  74.5559997  88.3309992  81.8624990  73.8119997
  88.3239992  84.0184990  73.9049997  88.6999992  84.8234990  74.5719997
  87.2419992  84.1874990  73.7189997  88.8799992  84.0654990  72.9439997
  89.9849992  82.4944990  74.9959997  90.2006727  83.2862504  75.7134364
  90.0649228  81.5259637  75.4896101  90.9729992  82.5624990  73.8619997
  90.8939835  83.5309937  73.3681634  91.9830909  82.4350958  74.2513355
  90.7582319  81.7707079  73.1443355  87.9219992  81.2184990  76.5229997
  87.6509992  80.1194990  76.0309997  88.5119992  81.3394990  77.7149997
  88.8103544  82.2411501  78.0586693  88.7899992  80.1634990  78.5289997
  89.2939992  79.4354990  77.9099997  89.6629992  80.5454990  79.7229997
  89.0649992  81.1434990  80.4439997  90.0088027  79.6322382  80.2072257
  90.7789992  81.3154990  79.3169997  91.3087435  81.5409308  80.0852128
  87.5069992  79.4994990  79.0139997  87.4409992  78.2674990  79.0929997
  86.4869992  80.2894990  79.3399997  86.5803611  81.2874723  79.2157738
  85.2589992  79.7794990  79.9349997  85.4519992  78.7834990  80.3049997
  84.8089992  80.6954990  81.0749997  84.2929992  81.5744990  80.6359997
  84.1048047  80.1241290  81.6797694  85.9419992  81.1924990  81.9529997
  86.8039992  81.4694990  81.3089997  85.6017804  82.0728128  82.4983444
  86.4019992  80.1524990  82.9519997  85.6559992  79.7704990  83.8529997
  87.6369992  79.6914990  82.7999997  87.9939992  79.0024990  83.4309997
  88.2099992  80.0314990  82.0549997  84.1299992  79.6184990  78.9259997
  82.9929992  79.3504990  79.3279997  84.4059992  79.7804990  77.6309997
  85.3287306  80.0489398  77.3201851  83.3519992  79.6394990  76.6299997
  82.5239992  80.2694990  76.9219997  83.8729992  80.0494990  75.2529997
  84.8889992  79.6224990  75.1149997  83.2266295  79.6665780  74.4632670
  83.9559992  81.5274990  75.0579997  83.7309992  82.4894990  75.9949997
  83.4622994  82.1483092  76.9947445  83.9009992  83.7364990  75.4449997
  83.7943139  84.6145538  75.9325830  84.2399992  83.5954990  74.1249997
  84.5109992  84.5614990  73.1599997  84.4789992  85.6194990  73.3769997
  84.8269992  84.1244990  71.9039997  85.0419992  84.8484990  71.1319997
  84.8769992  82.7604990  71.5949997  85.1289992  82.4524990  70.5909997
  84.6089992  81.8014990  72.5519997  84.6559992  80.7554990  72.2879997
  84.2829992  82.2174990  73.8459997  82.8079992  78.2174990  76.5959997
  81.5929992  78.0064990  76.5159997  83.6929992  77.2274990  76.6539997
  84.6796428  77.4399512  76.6927009  83.2899992  75.8304990  76.5909997
  82.2959992  75.7844990  76.1729997  84.2729992  75.0394990  75.7229997
  85.3129992  75.3094990  76.0059997  84.0932027  73.9820777  75.9169934
  84.1229992  75.3124990  74.2449997  84.7609992  76.3914990  73.6489997
  85.3795832  77.0429966  74.2662550  84.6229992  76.6464990  72.2989997
  85.1309214  77.4968318  71.8439711  83.8389992  75.8194990  71.5269997
  83.6989992  76.0694990  70.1829997  82.8329992  75.7564990  69.9109997
  83.1939992  74.7434990  72.0939997  82.5789992  74.0964990  71.4849997
  83.3369992  74.4964990  73.4439997  82.8278382  73.6472109  73.8995925
  83.1699992  75.1784990  77.9619997  82.8759992  73.9804990  78.0369997
  83.3939992  75.9254990  79.0429997  83.7310782  76.8709928  78.9311139
  83.2179992  75.4104990  80.3939997  83.0299992  74.3484990  80.3259997
  84.4719992  75.6774990  81.2349997  84.8089992  76.7214990  81.0589997
  84.1623725  75.5288831  82.2694776  85.6469992  74.7754990  80.9259997
  86.5639992  75.1124990  79.9409997  86.4227140  76.0398032  79.3858017
  87.6409992  74.2964990  79.6589997  88.3490901  74.5726432  78.8776844
  87.8189992  73.1284990  80.3689997  88.8929992  72.3164990  80.0879997
  88.9449992  71.6454990  80.7729997  86.9269992  72.7734990  81.3569997
  87.0679992  71.8584990  81.9129997  85.8479992  73.5964990  81.6319997
  85.1397228  73.3234489  82.4142326  82.0099992  76.0014990  81.1079997
  81.6889992  75.5604990  82.2159997  81.3419992  76.9814990  80.5039997
  81.6020414  77.2704928  79.5718194  80.2589992  77.6914990  81.1699997
  80.5389992  77.8524990  82.2009997  80.0219992  79.0264990  80.4599997
  81.0059992  79.3874990  80.0969997  79.3851354  78.7791518  79.6106918
  79.3829992  80.1704990  81.2629997  80.1059992  80.4854990  82.0439997
  79.2136204  80.9021212  80.4729750  78.0689992  79.8634990  81.9579997
  77.7449992  80.6084990  82.9039997  77.3189992  78.9704990  81.5189997
  79.0039992  76.8244990  81.1559997  78.5669992  76.3714990  80.0949997
  78.4159992  76.6074990  82.3329997  78.7909918  77.0407586  83.1647244
  77.2799992  75.6984990  82.4769997  76.8129992  75.5944990  81.5089997
  77.7329992  74.3344990  82.9949997  78.4639781  73.9086977  82.3076401
  78.4629992  73.8854990  82.2889997  76.8559992  73.6614990  83.1049997
  76.2139992  76.2864990  83.3919997  75.5739992  75.5684990  84.1679997
  76.0069992  77.6044990  83.3249997  76.6122157  78.2107146  82.7899157
  74.9179992  78.2104990  84.0869997  75.0009992  77.8794990  85.1119997
  74.9989992  79.7354990  84.0129997  75.0579992  80.0604990  82.9529997
  73.7759992  80.3734990  84.6529997  73.6019992  79.9384990  85.6599997
  72.8789992  80.1834990  84.0249997  73.9329992  81.4674990  84.7599997
  76.1709992  80.1844990  84.7059997  76.2227460  81.1420035  84.6600911
  73.5649992  77.7264990  83.5829997  72.6689992  77.4164990  84.3779997
  73.3999992  77.6454990  82.2699997  74.1437425  77.9651977  81.6660643
  72.1729992  77.1654990  81.6569997  71.4459992  77.0144990  82.4409997
  71.6459992  78.1754990  80.6319997  71.4269992  79.1404990  81.1389997
  72.4093186  78.3311939  79.8696332  70.4579992  77.7054990  80.0209997
  70.1475961  78.3535467  79.3843806  72.4179992  75.8134990  81.0009997
  73.5499992  75.4494990  80.6699997  71.3299992  75.0644990  80.8159997
  70.4264185  75.3790888  81.1395338  71.4219992  73.7494990  80.1949997
  72.1929992  73.1894990  80.7029997  70.0779992  73.0254990  80.2999997
  70.1479992  72.0704990  79.7379997  69.9109270  72.8143779  81.3562263
  68.9069992  73.8234990  79.7519997  68.9589992  74.8594990  80.1479997
  69.0030070  73.8362660  78.6663115  67.5669992  73.2294990  80.1329997
  67.5209992  72.0254990  80.4619997  66.5599992  73.9664990  80.1029997
  71.8509992  73.8134990  78.7369997  72.2289992  72.7814990  78.1739997
  71.7989992  74.9934990  78.1179997  71.4629084  75.8002302  78.6242871
  72.1489992  75.1564990  76.7079997  72.0699992  74.1924990  76.2279997
  71.2129992  76.1584990  76.0459997  71.4809992  77.1784990  76.3939997
  71.3184367  76.1038837  74.9624868  69.7679992  75.9274990  76.3469997
  68.9309992  76.7584990  77.0309997  69.3586964  77.6892851  77.4035747
  67.6719992  76.2104990  77.1019997  66.8732302  76.6269840  77.5587355
  67.6769992  75.0064990  76.4509997  66.6479992  74.0894990  76.2539997
  65.6499992  74.2524990  76.6299997  66.9439992  72.9514990  75.5549997
  66.1679992  72.2184990  75.3869997  68.2279992  72.7134990  75.0539997
  68.4229992  71.8044990  74.5059997  69.2499992  73.6224990  75.2479997
  70.2329992  73.4144990  74.8509997  68.9789992  74.7944990  75.9589997
  73.6079992  75.5904990  76.6029997  73.9359992  76.7594990  76.3859997
  74.4999992  74.6174990  76.7589997  74.2025709  73.6785219  76.9825120
  75.9249992  74.8834990  76.6599997  76.1329992  75.7974990  77.1969997
  76.7299992  73.7264990  77.2489997  77.8049992  74.0024990  77.3039997
  76.2369992  73.3974990  78.6489997  75.2279992  72.9364990  78.5999997
  76.1729992  74.3264990  79.2549997  76.9319992  72.6794990  79.1359997
  76.5869992  72.5694990  76.4159997  77.0933416  71.8433164  76.7873170
  76.3309992  75.1144990  75.2059997  75.6399992  74.7154990  74.2649997
  77.4729992  75.7754990  75.0299997  77.9948584  76.1139615  75.8257417
  77.9789992  76.0704990  73.6959997  77.1419992  76.3364990  73.0689997
  78.9849992  77.2164990  73.7559997  78.5479992  78.0164990  74.3889997
  79.8709904  76.8349365  74.2634736  79.3929992  77.8484990  72.4249997
  78.7809992  77.4104990  71.6069997  79.1809992  79.3514990  72.4609997
  79.7852200  79.7851940  73.2578214  79.4768882  79.7836863  71.5050893
  78.1284762  79.5661645  72.6459708  80.8359992  77.5204990  72.0969997
  80.9561434  76.4395266  72.0251414  81.1064022  77.9796109  71.1461055
  81.4846308  77.9061491  72.8835428  78.6199992  74.8234990  73.0999997
  79.6479992  74.3494990  73.5919997  78.0199992  74.2954990  72.0309997
  77.1823591  74.7276325  71.6680686  78.4849992  73.0614990  71.4109997
  79.4469992  72.8154990  71.8369997  77.4919992  71.9234990  71.6509997
  77.8869992  70.9954990  71.1869997  77.4058284  71.7842718  72.7286315
  76.1209992  72.2084990  71.0669997  75.8649992  73.3634990  70.6699997
  75.2939992  71.2744990  71.0129997  78.7409992  73.2474990  69.9189997
  78.4599992  72.3514990  69.1199997  79.2829992  74.3954990  69.5339997
  79.4609099  75.0950997  70.2404032  79.6009992  74.7144990  68.1539997
  79.4169992  73.8334990  67.5579997  78.7459992  75.8864990  67.6489997
  78.4829992  76.5414990  68.5059997  79.3558235  76.4311289  66.9281719
  77.4479992  75.4654990  66.9949997  76.9519992  74.1794990  67.1519997
  77.5141483  73.4688199  67.7578240  75.7669992  73.7934990  66.5559997
  75.3871771  72.7804291  66.6883872  75.0659992  74.6964990  65.7899997
  73.8859992  74.3174990  65.1949997  73.1689992  74.7754990  65.6389997
  75.5379992  75.9774990  65.6169997  74.9849992  76.6834990  65.0149997
  76.7219992  76.3544990  66.2159997  77.1024161  77.3671067  66.0818033
  81.0789992  75.0624990  68.0259997  81.7139992  75.4874990  68.9979997
  81.6599992  74.8854990  66.8409997  81.0749992  74.2314990  65.6609997
  81.3866564  74.6051296  66.6363817  80.0431434  74.5274792  65.4718746
  81.9939992  74.6494990  64.5689997  81.9979992  73.8964990  63.7519997
  81.2362789  74.3953990  65.3102111  83.3439992  74.7474990  65.1989997
  83.9709992  75.4964990  64.6689997  83.9092588  73.8155903  65.1877084
  83.0849992  75.1864990  66.6499997  83.6809992  74.6754990  67.3899997
  83.3689992  76.6664990  66.8499997  82.4469992  77.4934990  66.8099997
  84.6359992  77.0364990  67.0749997  85.8449992  76.1974990  67.0259997
  84.8649480  76.6723836  66.9803438  86.2258721  76.0535593  66.0149031
  86.8039992  76.9434990  67.8949997  86.6839992  76.6454990  68.9579997
  86.1872065  76.3116854  67.2558755  86.4629992  78.3794990  67.7099997
  86.9619992  78.7904990  66.8069997  86.7519533  78.9618179  68.5849338
  84.9369992  78.4014990  67.5469997  84.3879992  78.6184990  68.4499997
  84.5009992  79.5224990  66.6179997  84.2229992  80.6274990  67.1029997
  84.4579992  79.2974990  65.3019997  84.7247045  78.4090016  64.9025751
  84.0839992  80.3804990  64.3949997  84.7159992  81.2304990  64.6089997
  84.2539992  79.9454990  62.9409997  84.0389992  78.8594990  62.8569997
  83.5721272  80.4876638  62.2858601  85.6369992  80.1674990  62.3999997
  86.5959992  80.8144990  63.1579997  86.3387919  81.1631283  64.1582006
  87.8669992  81.0204990  62.6609997  88.6148576  81.5283126  63.2700431
  88.1899992  80.5854990  61.3939997  89.1829992  80.7464990  61.0039997
  87.2419992  79.9424990  60.6259997  87.4929992  79.5994990  59.6339997
  85.9729992  79.7394990  61.1269997  85.2211690  79.2361119  60.5191735
  82.6569992  80.8434990  64.6509997  82.3569992  82.0414990  64.5579997
  81.7599992  79.9114990  64.9769997  81.9854468  78.9275304  64.9441571
  80.3989992  80.2974990  65.3309997  80.0149992  80.9334990  64.5469997
  79.5219992  79.0574990  65.4899997  79.8099992  78.3044990  64.7249997
  79.6440582  78.6332418  66.4865976  78.0579992  79.3294990  65.3159997
  77.2739992  79.6904990  66.3979997  77.7316983  79.7750337  67.3836291
  75.9259992  79.9424990  66.2389997  75.3173960  80.2218133  67.0990499
  75.3499992  79.8424990  64.9899997  74.2959992  80.0404990  64.8639997
  76.1209992  79.4874990  63.9029997  75.6719992  79.4074990  62.9239997
  77.4679992  79.2354990  64.0689997  78.0802865  78.9577965  63.2110454
  80.3819992  81.1314990  66.6059997  79.6009992  82.0804990  66.7259997
  81.2379992  80.7894990  67.5709997  81.7971372  79.9512472  67.5017309
  81.3369992  81.5884990  68.7879997  80.3449992  81.6984990  69.1999997
  82.2599992  80.9024990  69.7939997  81.8703586  79.9119309  70.0286379
  81.8619992  79.8964990  70.0469997  82.3369992  81.5174990  70.7159997
  81.8269992  82.9984990  68.4839997  81.3259992  83.9744990  69.0539997
  82.8119992  83.1264990  67.5919997  83.2737958  82.3181076  67.2004045
  83.2939992  84.4514990  67.2109997  83.5179992  85.0014990  68.1139997
  84.5419992  84.3264990  66.3399997  84.3759992  83.5234990  65.5909997
  84.7387471  85.2630313  65.8181784  85.7829992  83.9974990  67.1129997
  86.5729992  82.8964990  66.9619997  86.2748493  82.1763887  66.1999973
  87.6219992  82.9424990  67.8489997  88.3466837  82.2447206  67.9386505
  87.5259992  84.0884990  68.5909997  88.3479992  84.5734990  69.6039997
  89.2279992  84.0414990  69.9369997  88.0049992  85.7654990  70.1789997
  88.6229992  86.1674990  70.9679997  86.8729992  86.4754990  69.7679997
  86.6329992  87.4134990  70.2459997  86.0549992  85.9964990  68.7619997
  85.1859992  86.5654990  68.4639997  86.3789992  84.7804990  68.1549997
  82.2129992  85.2464990  66.4899997  82.0779992  86.4584990  66.6989997
  81.4369992  84.5824990  65.6319997  81.6310253  83.6192538  65.3983075
  80.3309992  85.2504990  64.9519997  80.7119992  86.1414990  64.4749997
  79.7289992  84.3004990  63.9169997  80.3929992  84.2654990  63.0269997
  79.6283135  83.3060583  64.3517986  78.3669992  84.6974990  63.4349997
  78.1889992  85.8424990  62.6799997  79.0526985  86.4640075  62.4436723
  76.9359992  86.2014990  62.2269997  76.8070777  87.1087551  61.6367741
  75.8449992  85.4084990  62.5209997  74.8639992  85.6864990  62.1659997
  76.0089992  84.2634990  63.2689997  75.1559992  83.6434990  63.5029997
  77.2629992  83.9094990  63.7179997  77.3954178  82.9999909  64.3039692
  79.2799992  85.7254990  65.9509997  78.7419992  86.8344990  65.8279997
  78.9849992  84.8974990  66.9569997  79.3614092  83.9606001  66.9822052
  78.0629992  85.3014990  68.0139997  77.1409992  85.6254990  67.5529997
  77.8079992  84.1244990  68.9539997  78.0839992  83.1884990  68.4249997
  78.4636331  84.2652174  69.8133265  76.3749992  83.9984990  69.4279997
  76.3139992  83.1854990  70.1819997  76.1004071  84.9498677  69.8836266
  75.4149992  83.6834990  68.3009997  75.7649992  82.8544990  67.4379997
  74.3099992  84.2634990  68.2789997  78.6009992  86.4994990  68.7859997
  77.8549992  87.4334990  69.1019997  79.8999992  86.4934990  69.0949997
  80.4815132  85.6921061  68.8957249  80.4989992  87.6264990  69.7919997
  79.9229992  87.8144990  70.6859997  81.9519992  87.3184990  70.1499997
  81.9769992  86.5694990  70.9699997  82.4148564  86.9157097  69.2490978
  82.7309992  88.5234990  70.6199997  82.5339992  89.0504990  71.8889997
  81.8045133  88.5783214  72.5470255  83.2419992  90.1514990  72.3219997
  83.0757232  90.5549998  73.3208196  84.1619992  90.7414990  71.4859997
  84.8689992  91.8384990  71.9159997  85.2069992  92.2954990  71.1419997
  84.3779992  90.2384990  70.2219997  85.1009992  90.7034990  69.5679997
  83.6649992  89.1354990  69.7969997  83.8308141  88.7309529  68.7985268
  80.4119992  88.8954990  68.9549997  80.1839992  89.9864990  69.4879997
  80.6069992  88.7724990  67.6409997  80.9081929  87.8956421  67.2403704
  80.4759992  89.9284990  66.7579997  81.0879992  90.7244990  67.1529997
  80.9249992  89.5634990  65.3309997  80.6169992  88.5204990  65.1049997
  80.3019992  90.5024990  64.3109997  80.4569992  91.5584990  64.6199997
  79.2099992  90.3114990  64.2379997  80.7759992  90.3504990  63.3179997
  82.4499992  89.6074990  65.2279997  82.7252126  90.6202795  64.9336633
  82.8474389  89.3976153  66.2210203  83.0239992  88.6224990  64.2379997
  82.6273493  88.8320580  63.2445946  84.1100334  88.7139594  64.2217541
  82.7495733  87.6093933  64.5319507  79.0469992  90.4574990  66.7829997
  78.8199992  91.6704990  66.8609997  78.0609992  89.5564990  66.7269997
  78.2520836  88.5744112  66.5888343  76.6659992  89.9864990  66.8079997
  76.5129992  90.7684990  66.0789997  75.7279992  88.8124990  66.5339997
  76.0939992  87.9524990  67.1309997  74.7561587  89.1159639  66.9232746
  75.5709992  88.3304990  65.0929997  76.5159992  87.8544990  64.7539997
  74.4379992  87.3254990  65.0149997  73.5110601  87.7960137  65.3428693
  74.3265017  86.9819778  63.9865726  74.6609264  86.4751273  65.6594156
  75.3159992  89.5014990  64.1619997  76.1549596  90.1955695  64.2121095
  75.2070487  89.1371595  63.1404872  74.4025748  90.0140381  64.4637587
  76.3379992  90.6014990  68.1639997  75.3909992  91.3904990  68.2779997
  77.0919992  90.2384990  69.2019997  77.8572287  89.5900285  69.0836387
  76.7909992  90.7144990  70.5469997  75.7649992  90.4624990  70.7729997
  77.7349992  90.0614990  71.5539997  77.3539992  90.2284990  72.5839997
  77.7785544  88.9912109  71.3522910  79.0359992  90.6134990  71.4559997
  79.6123747  90.1899244  72.0962932  76.8699992  92.2314990  70.6749997
  76.1999992  92.7974990  71.5429997  77.6579992  92.9094990  69.8409997
  78.2385685  92.4444282  69.1578102  77.7599992  94.3614990  69.9629997
  77.8549992  94.6064990  71.0099997  78.9729992  94.8674990  69.1839997
  78.9729992  94.3974990  68.1779997  78.9395466  95.9490811  69.0529992
  80.2789992  94.5564990  69.8469997  81.1069992  95.5354990  70.3529997
  82.1789992  94.9704990  70.8819997  82.9611505  95.5796361  71.3350894
  82.0729992  93.6614990  70.7399997  82.7443601  92.9732951  71.0494345
  80.8929992  93.3774990  70.0979997  80.6213320  92.3426899  69.8895091
  76.4789992  95.0534990  69.5009997  75.9459992  95.9264990  70.1969997
  75.9579992  94.6714990  68.3339997  76.4538988  94.0808240  67.6818600
  74.6659992  95.2154990  67.9299997  74.6909992  96.2834990  68.0879997
  74.3689992  94.9024990  66.4509997  73.3609992  95.2884990  66.1869997
  75.4109992  95.5544990  65.5569997  76.3993410  95.1713664  65.8109504
  75.1901744  95.3259618  64.5143551  75.3918188  96.6344192  65.7036491
  74.3249992  93.4114990  66.2069997  73.8119992  92.9014990  67.0499997
  75.3579992  93.0114990  66.1249997  73.7659992  93.1984990  65.2709997
  73.5689992  94.7064990  68.8579997  72.5419992  95.3734990  69.0419997
  73.7699992  93.5364990  69.4729997  74.5347363  92.9286751  69.2164325
  72.8409992  93.0824990  70.5019997  71.8469992  93.0734990  70.0799997
  73.2329992  91.6834990  70.9769997  73.5595839  91.0880005  70.1244599
  73.5609992  91.0684990  70.1119997  72.3669992  91.1964990  71.4749997
  72.8029992  94.0514990  71.6769997  71.7239992  94.4014990  72.1709997
  73.9749992  94.4934990  72.1389997  74.8435606  94.1222572  71.7813964
  74.0339992  95.4754990  73.2159997  73.4089992  95.1254990  74.0249997
  75.4779992  95.6514990  73.6939997  75.4779992  95.6444990  74.8039997
  76.0301764  94.7881464  73.3227548  76.1609992  96.9284990  73.2279997
  75.9099992  97.1044990  72.1599997  75.7829810  97.7520780  73.8337403
  77.6679992  96.8434990  73.3749997  77.9305710  96.9372672  74.4287371
  77.9922395  95.8706583  73.0054747  78.3569992  97.9414990  72.5819997
  77.9699992  97.9494990  71.5399997  77.9037722  97.1283509  73.1489870
  79.8289992  97.7384990  72.5149997  80.0329992  96.8284990  72.0549997
  80.2229992  97.7374990  73.4769997  80.2599992  98.5084990  71.9649997
  73.4519992  96.8104990  72.7759997  72.8809992  97.5394990  73.5939997
  73.5899992  97.1474990  71.4929997  74.1508949  96.6007821  70.8553508
  72.9859992  98.3804990  70.9999997  73.1979992  99.1654990  71.7109997
  73.5529992  98.7384990  69.6269997  73.7689992  97.8064990  69.0629997
  72.7910409  99.3293711  69.1186792  74.8389992  99.5304990  69.6999997
  75.0059992 100.5264990  70.6519997  74.1928701 100.7312653  71.3484127
  76.1769992 101.2524990  70.7259997  76.2944251 102.0330011  71.4777506
  77.2009992 100.9854990  69.8449997  78.3699992 101.7074990  69.9149997
  78.1869992 102.5224990  70.3889997  77.0599992  99.9994990  68.8919997
  77.8649992  99.7914990  68.2029997  75.8849992  99.2784990  68.8239997
  75.7674757  98.4975542  68.0727250  71.4679992  98.2794990  70.9469997
  70.7769992  99.3004990  71.0459997  70.9279992  97.0684990  70.7959997
  71.5022140  96.2571052  70.6170669  69.4779992  96.8994990  70.8159997
  69.0319992  97.7694990  70.3579997  69.0809992  95.6334990  70.0559997
  69.9119992  94.8974990  70.1099997  68.1834825  95.1892535  70.4863595
  68.7899992  95.8664990  68.6019997  69.8019992  96.2164990  67.7259997
  70.8194764  96.3226758  68.1022529  69.5349992  96.4304990  66.3899997
  70.3411770  96.7031038  65.7089235  68.2479992  96.2974990  65.9159997
  68.0369992  96.4654990  64.8699997  67.2289992  95.9514990  66.7789997
  66.2199992  95.8464990  66.4099997  67.5019992  95.7384990  68.1139997
  66.6980258  95.4670350  68.7981298  68.9399992  96.8574990  72.2439997
  68.1259992  97.6994990  72.6369997  69.3799992  95.8794990  73.0349997
  70.0147547  95.1898354  72.6587697  68.9379992  95.7314990  74.4179997
  68.7219992  96.7144990  74.8079997  67.6809992  94.8374990  74.4899997
  66.8079992  95.4264990  74.1359997  67.8439946  93.9967824  73.8156643
  67.3599992  94.3084990  75.9019997  68.2409992  94.1024990  76.7619997
  66.1569992  94.0714990  76.1429997  70.1069992  95.1484990  75.1959997
  70.5259992  94.0184990  74.9319997  70.6279992  95.9184990  76.1539997
  70.2258828  96.8174473  76.3782620  71.8429992  95.5104990  76.8519997
  72.5179992  95.0774990  76.1299997  72.4879992  96.7214990  77.5279997
  73.4889992  96.4214990  77.9039997  72.5997140  97.4853141  76.7584502
  71.6909992  97.2864990  78.6889997  70.7379992  97.7074990  78.3019997
  71.4795090  96.4760861  79.3865704  72.4339992  98.3794990  79.4279997
  73.3219992  99.0274990  78.8719997  72.0709992  98.5954990  80.6859997
  72.5269992  99.3044990  81.2229997  71.3409992  98.0484990  81.0959997
  71.5739992  94.4074990  77.8699997  72.4699992  93.6134990  78.1779997
  70.3529992  94.3394990  78.4059997  69.6305656  94.9995198  78.1558766
  70.0549992  93.3424990  79.4279997  70.8579992  93.3534990  80.1509997
  68.7229992  93.6594990  80.1079997  68.0189992  94.0474990  79.3409997
  68.3417160  92.7212974  80.5111138  68.8309992  94.6824990  81.2239997
  69.6529992  95.3904990  80.9879997  67.8794041  95.2123796  81.2663354
  69.1149992  94.0464990  82.5699997  69.0339992  92.8044990  82.6699997
  69.4249992  94.7854990  83.5279997  70.0279992  91.9254990  78.8729997
  70.0639992  90.9674990  79.6509997  69.9639992  91.7704990  77.5489997
  69.8633520  92.5679649  76.9374299  69.9579992  90.4384990  76.9549997
  69.2269992  89.8374990  77.4759997  69.6099992  90.5414990  75.4689997
  68.5179992  90.3754990  75.3579997  69.8502330  91.5593483  75.1618017
  70.3319992  89.5574990  74.5669997  71.4269992  89.6974990  74.6899997
  70.0627869  88.5472904  74.8753913  69.8819992  89.7884990  72.8399997
  70.1159992  91.5534990  72.6719997  69.2490698  92.0756355  73.0768526
  69.2409992  92.0974990  73.0879997  70.2359992  91.8244990  71.6009997
  71.2879992  89.7234990  77.1579997  71.3149992  88.4954990  77.3069997
  72.3949992  90.4654990  77.1939997  72.3229464  91.4661323  77.0772066
  73.7209992  89.8794990  77.3219997  73.7129992  88.9174990  76.8309997
  74.7679992  90.7934990  76.6839997  74.8909992  91.6824990  77.3369997
  75.7111160  90.2471466  76.6726010  74.4479992  91.2854990  75.2739997
  73.4219992  91.7114990  75.2539997  75.4419992  92.3424990  74.8609997
  76.4474386  91.9217949  74.8750956  75.2076954  92.6888304  73.8543930
  75.3900782  93.1816698  75.5546833  74.4579992  90.1274990  74.2939997
  73.7097555  89.3927616  74.5913073  74.2281402  90.4951687  73.2939571
  75.4432970  89.6613642  74.2916074  74.1019992  89.5814990  78.7669997
  75.2949992  89.4674990  79.0719997  73.1249992  89.4584990  79.6579997
  72.1754955  89.6926937  79.4056214  73.3899992  89.0274990  81.0229997
  74.3689992  89.3864990  81.3039997  72.3299992  89.5784990  81.9749997
  72.2409992  90.6744990  81.8189997  71.3741145  89.1077028  81.7453578
  72.6569992  89.3254990  83.4369997  73.3619992  88.3764990  83.7819997
  72.1309992  90.1754990  84.3099997  72.3129337  90.0585278  85.2965682
  71.5511838  90.9354360  83.9837935  73.4099992  87.5044990  81.0509997
  72.4129992  86.8594990  80.7099997  74.5469992  86.9304990  81.4479997
  75.3629382  87.4827143  81.6702631  74.6669992  85.4774990  81.4759997
  74.3279992  85.0924990  80.5259997  76.1309992  85.0724990  81.7299997
  76.7279992  85.2534990  80.8109997  76.7169992  85.8784990  82.8779997
  76.1380878  85.6961089  83.7833705  77.7518427  85.5782122  83.0423994
  76.6818387  86.9399207  82.6325424  76.2439992  83.5784990  81.9979997
  75.7079992  83.0084990  81.2099997  75.7909992  83.3364990  82.9829997
  77.3119992  83.2734990  81.9929997  73.7219992  84.8774990  82.5089997
  73.1469992  83.8044990  82.2889997  73.5219992  85.5604990  83.6369997
  74.0123611  86.4288805  83.7968687  72.6529992  85.0544990  84.6899997
  72.7579992  83.9804990  84.7289997  73.0419992  85.6794990  86.0319997
  73.0559992  86.7844990  85.9199997  72.3192591  85.4196948  86.8054650
  74.3809992  85.2434990  86.5339997  74.5629992  84.0864990  87.2609997
  75.8419992  83.9554990  87.5639997  76.1917618  83.0987478  88.1399707
  76.4959992  84.9854990  87.0599997  77.4893420  85.1519933  87.1351642
  75.6069992  85.8054990  86.4099997  75.9597512  86.7149409  85.9236021
  71.1749992  85.3034990  84.4189997  70.3339992  84.7984990  85.1709997
  70.8389992  86.0624990  83.3799997  71.5613982  86.5202949  82.8427270
  69.4449992  86.3004990  83.0109997  68.8539992  86.2904990  83.9149997
  69.2959992  87.6384990  82.2969997  70.3039992  88.0734990  82.1299997
  68.8098721  87.4654813  81.3368719  68.4689992  88.6304990  83.0859997
  67.7679992  88.2614990  84.0279997  68.5459992  89.8994990  82.7069997
  68.0145761  90.6034474  83.1990828  69.1356915  90.1558340  81.9281183
  68.9809992  85.1504990  82.1289997  69.2419992  85.1304990  80.9239997
  68.2899992  84.1864990  82.7259997  68.0995828  84.2446887  83.7161789
  67.8299992  83.0104990  82.0029997  68.4279992  82.9124990  81.1089997
  67.9609992  81.7584990  82.8709997  67.4129992  81.9424990  83.8179997
  67.4546846  80.9447111  82.3518707  69.3849992  81.3264990  83.2299997
  69.7559992  81.9454990  84.0739997  69.4109992  79.8614990  83.6309997
  69.0544170  79.2508360  82.8015187  70.4309954  79.5712747  83.8829489
  68.7662661  79.7097174  84.4966682  70.3419992  81.5854990  82.0779997
  70.3495399  82.6499571  81.8435399  71.3459976  81.2691740  82.3608902
  70.0177602  81.0233754  81.2022228  66.3839992  83.1944990  81.5619997
  65.5759992  83.7944990  82.2769997  66.0679992  82.6654990  80.3799997
  66.7993414  82.2231820  79.8418606  64.7369992  82.7764990  79.7819997
  64.8049992  82.4394990  78.7579997  63.7129992  81.9374990  80.5479997
  63.4219992  82.4784990  81.4729997  62.8349963  81.7991213  79.9170777
  64.2499992  80.5724990  80.9379997  65.2009992  80.4624990  81.7099997
  63.6399992  79.5234990  80.4009997  63.9552078  78.5904956  80.6251603
  62.8633107  79.6629103  79.7705870  64.2939992  84.2364990  79.6879997
  63.1369992  84.5814990  79.9389997  65.2359992  85.0994990  79.3199997
  66.1906343  84.7897597  79.2067180  64.9389992  86.5114990  79.1159997
  64.1849992  86.8024990  79.8319997  66.1979992  87.3554990  79.2979997
  66.6049992  87.1894990  80.3179997  66.9092710  87.0222010  78.5422848
  65.9619992  88.8404990  79.1469997  65.3439992  89.5704990  80.1519997
  65.0289325  89.0548750  81.0591735  65.1259992  90.9264990  80.0179997
  64.6370597  91.4870520  80.8147557  65.5289992  91.5714990  78.8689997
  65.3159992  92.9224990  78.7299997  65.7949992  93.2204990  77.9529997
  66.1469992  90.8684990  77.8559997  66.4629992  91.3764990  76.9569997
  66.3589992  89.5114990  77.9989997  66.8455390  88.9489477  77.2021840
  64.3559992  86.7044990  77.7239997  64.9849992  86.3374990  76.7249997
  63.1559992  87.2784990  77.6549997  62.6847575  87.5502687  78.5059825
  62.4629992  87.4824990  76.3829997  63.2079992  87.5234990  75.6019997
  61.4729992  86.3564990  76.1069997  61.9529992  85.3784990  76.3249997
  60.6051577  86.4877765  76.7533102  61.0579992  86.3644990  74.7519997
  60.4365093  85.6480596  74.6034577  61.7629992  88.8354990  76.4329997
  60.8379992  89.0354990  77.2259997  62.2099992  89.7604990  75.5889997
  63.0418209  89.5644922  75.0507122  61.5789992  91.0594990  75.4329997
  60.6149992  91.0194990  75.9189997  62.4319992  92.1744990  76.0449997
  61.7699992  92.9524990  76.4819997  63.0558241  91.7467330  76.8298301
  63.2559992  92.7804990  75.0649997  63.7797569  93.4744901  75.4720058
  61.3479992  91.3314990  73.9539997  61.8199992  90.5864990  73.0899997
  60.6069992  92.4034990  73.6679997  60.1813692  92.9596518  74.3957581
  60.3409992  92.7614990  72.2789997  59.9289992  91.8954990  71.7809997
  59.3579992  93.9304990  72.2169997  59.4439992  94.4374990  71.2319997
  58.3462130  93.5438031  72.3388804  59.6279992  94.8754990  73.2369997
  58.9992948  95.5985713  73.1778657  61.6279992  93.1074990  71.5399997
  61.8379992  92.6704990  70.4029997  62.5079992  93.8804990  72.1809997
  62.3067268  94.2524727  73.0981824  63.7609992  94.2604990  71.5409997
  63.5289992  94.7294990  70.5959997  64.5369992  95.2234990  72.4389997
  64.7549992  94.7094990  73.3979997  65.4730696  95.4479593  71.9276388
  63.8039992  96.5174990  72.7429997  62.9009992  96.2894990  73.3489997
  64.4756737  97.1580892  73.3144886  63.3829992  97.2324990  71.4719997
  64.0930828  96.9972913  70.6791833  62.3894554  96.8902168  71.1824948
  63.3449992  98.6784990  71.6509997  62.4559992  99.1044990  71.8169997
  64.4099992  99.4674990  71.6089997  65.6209992  98.9834990  71.3889997
  65.7489992  98.0014990  71.2499997  66.4089992  99.5984990  71.3619997
  64.2559992 100.7754990  71.7919997  63.3459992 101.1534990  71.9589997
  65.0519992 101.3814990  71.7619997  64.6049992  93.0364990  71.2129997
  65.1809992  92.9464990  70.1229997  64.6819992  92.0814990  72.1419997
  64.2449803  92.2016823  73.0445902  65.4459992  90.8614990  71.8999997
  66.4549992  91.1404990  71.6339997  65.4449992  89.9904990  73.1579997
  64.4569992  89.4944990  73.2729997  66.4989992  88.9024990  73.0629997
  67.4769992  89.3434990  72.7719997  66.2039992  88.1554990  72.2949997
  66.6149992  88.4014990  74.0469997  65.6939992  90.8074990  74.3089997
  65.6929329  90.2591043  75.0969480  64.8859992  90.0824990  70.7159997
  65.6379992  89.6214990  69.8479997  63.5609992  89.9294990  70.6639997
  62.9629789  90.2959941  71.3907405  62.9469992  89.1694990  69.5809997
  63.4319992  88.2064990  69.5269997  61.4509992  89.0014990  69.8439997
  61.3329992  88.5134990  70.8339997  61.0206413  90.0004745  69.9142845
  60.6659992  88.1794990  68.8209997  61.3509992  87.8514990  68.0099997
  60.0429992  86.9574990  69.4789997  59.3644691  87.2764739  70.2701701
  59.4889107  86.3860421  68.7343362  60.8286110  86.3331859  69.9046142
  59.6019992  89.0334990  68.1539997  60.0756244  89.8725754  67.6443631
  59.0537638  88.4314970  67.4293392  58.9118459  89.4102488  68.9088817
  63.1819992  89.8414990  68.2349997  63.5789992  89.1814990  67.2649997
  62.9519992  91.1544990  68.1589997  62.5684181  91.6665814  68.9404959
  63.1809992  91.8704990  66.9079997  62.6199992  91.3744990  66.1309997
  62.7379992  93.3294990  67.0369997  62.9269992  93.6464990  68.0829997
  63.3916375  93.9180161  66.3931793  61.2739992  93.6544990  66.7129997
  61.1379992  94.7554990  66.6799997  60.8929992  93.0554990  65.3699997
  61.0203082  91.9735227  65.4049079  59.8521325  93.2913889  65.1485201
  61.5327871  93.4711681  64.5915454  60.3169992  93.1794990  67.7899997
  60.5645860  93.6622081  68.7354055  59.2957729  93.4359714  67.5081844
  60.4020514  92.0985419  67.9013408  64.6419992  91.7844990  66.4849997
  64.9429992  91.5564990  65.3079997  65.5669992  91.9494990  67.4359997
  65.3160659  92.1522836  68.3930839  66.9819992  91.8864990  67.0909997
  67.1639992  92.5964990  66.2979997  67.8499992  92.2144990  68.3029997
  67.9329992  93.3174990  68.4099997  67.4315270  91.8236864  69.2304945
  69.2419992  91.6684990  68.1969997  70.1509992  92.2254990  67.3149997
  69.8468335  93.0756965  66.7044694  71.4269992  91.7184990  67.2029997
  72.1365839  92.1733007  66.5118082  71.8059992  90.6364990  67.9659997
  72.8049992  90.2364990  67.8779997  70.9069992  90.0654990  68.8409997
  71.2019992  89.2164990  69.4399997  69.6329992  90.5774990  68.9509997
  68.9201508  90.1222357  69.6385187  67.3649992  90.5194990  66.5499997
  68.0589992  90.4224990  65.5349997  66.9419992  89.4474990  67.2249997
  66.4090347  89.5287120  68.0790796  67.3259992  88.1134990  66.7729997
  68.3929992  88.1074990  66.6099997  66.9409992  87.0714990  67.8199997
  65.8549992  87.1644990  68.0299997  67.1455455  86.0910705  67.3898591
  67.7019992  87.2194990  69.1279997  68.2809992  88.1664990  69.1049997
  66.9807959  87.2501541  69.9447175  68.6629992  86.0724990  69.3729997
  69.6239992  85.8854990  68.6279997  68.4119992  85.3014990  70.4209997
  69.0869992  84.6264990  70.7189997  67.5469992  85.3944990  70.9149997
  66.7079992  87.7864990  65.4179997  67.3819992  87.2284990  64.5399997
  65.4329992  88.1364990  65.2209997  64.8717593  88.5387629  65.9580836
  64.7999992  87.8774990  63.9329997  64.9319992  86.8324990  63.6969997
  63.3169992  88.2264990  63.9989997  63.2199992  89.2844990  64.3209997
  62.9233637  88.1171843  62.9884546  62.5109992  87.3594990  64.9529997
  63.0239992  87.3334990  65.9379997  61.5260676  87.8128871  65.0645830
  62.3589992  85.9424990  64.4369997  62.1032048  85.9705297  63.3778101
  63.3008812  85.4099731  64.5688101  61.3109992  85.2224990  65.1519997
  60.6529992  85.7584990  65.6789997  61.1739992  83.9044990  65.1499997
  62.0039992  83.1244990  64.4799997  62.9059992  83.4654990  64.2139997
  61.7309992  82.1924990  64.2399997  60.1749992  83.3544990  65.8359997
  59.5389992  83.9354990  66.3449997  60.0599992  82.3614990  65.8429997
  65.4859992  88.6554990  62.8149997  65.7299992  88.1134990  61.7299997
  65.8129992  89.9254990  63.0619997  65.5536820  90.3703534  63.9308831
  66.4959992  90.7254990  62.0529997  65.9699992  90.6074990  61.1169997
  66.5179992  92.1974990  62.4709997  66.8429992  92.2714990  63.5299997
  67.2073042  92.7601653  61.8414243  65.1819992  92.8834990  62.3669997
  64.0399992  92.1734990  62.0309997  64.1174760  91.1031724  61.8399542
  62.8159992  92.8044990  61.9369997  61.9254675  92.2347918  61.6715044
  62.7209992  94.1594990  62.1809997  61.7639992  94.6554990  62.1079997
  63.8489992  94.8794990  62.5169997  63.7759992  95.9404990  62.7079997
  65.0699992  94.2424990  62.6099997  65.9617614  94.8097839  62.8765479
  67.9129992  90.2374990  61.7909997  68.3869992  90.3404990  60.6569997
  68.6019992  89.7254990  62.8129997  68.2450186  89.7664964  63.7569188
  69.9229992  89.1464990  62.5979997  70.5189992  89.8614990  62.0489997
  70.5809992  88.8224990  63.9389997  71.6029992  88.4224990  63.7649997
  70.6445871  89.7372295  64.5283423  69.8309992  87.8544990  64.6499997
  70.2621901  87.6671229  65.4869970  69.8409992  87.9004990  61.7309997
  70.6909992  87.6854990  60.8589997  68.8269992  87.0614990  61.9609997
  68.2147794  87.1788542  62.7556782  68.6379992  85.8904990  61.1079997
  69.5779992  85.3614990  61.0509997  67.5429992  84.9734990  61.6839997
  66.6229992  85.5684990  61.8669997  67.2309992  83.8484990  60.7139997
  68.1310665  83.2592723  60.5385235  66.4553090  83.2092209  61.1355785
  66.8822503  84.2679684  59.7703254  67.9869992  84.4074990  63.0149997
  68.1809992  85.2304990  63.7349997  68.9229992  83.8224990  62.8839997
  67.1919992  83.7524990  63.4309997  68.3209992  86.3154990  59.6789997
  68.8469992  85.7464990  58.7139997  67.4589992  87.3214990  59.5209997
  67.0116306  87.7495108  60.3189762  67.0719992  87.7714990  58.1859997
  66.7669992  86.9074990  57.6139997  65.9169992  88.7864990  58.2819997
  66.1359992  89.5154990  59.0909997  65.7439992  89.5314990  56.9679997
  65.5159992  88.8154990  56.1499997  66.6799992  90.0734990  56.7149997
  64.9039992  90.2534990  57.0509997  64.6189992  88.0784990  58.6729997
  64.4077128  87.3385707  57.9010120  64.7985329  87.5721821  59.6214249
  63.4379992  89.0084990  58.8149997  63.2575521  89.5148658  57.8667743
  62.5542997  88.4344746  59.0936937  63.6483735  89.7484791  59.5871862
  68.2689992  88.3524990  57.4409997  68.4879992  88.0554990  56.2599997
  69.0639992  89.1864990  58.1159997  68.8690966  89.4273931  59.0772917
  70.1819992  89.8474990  57.4499997  69.8369992  90.2234990  56.4979997
  70.6909992  90.9974990  58.3359997  69.9029992  91.7764990  58.4029997
  70.8841821  90.7068945  59.3686320  71.9479992  91.6844990  57.8359997
  73.1879992  91.0664990  57.8689997  73.2591982  90.0471022  58.2482895
  74.3229992  91.7214990  57.4309997  75.2838319  91.2068135  57.4305771
  74.2399992  93.0264990  56.9949997  75.1269992  93.5434990  56.6589997
  73.0209992  93.6684990  56.9889997  72.9499992  94.6884990  56.6419997
  71.8879992  93.0074990  57.4279997  70.9302684  93.5271827  57.4559359
  71.2769992  88.8424990  57.1129997  71.9709992  88.9854990  56.0999997
  71.4299992  87.8024990  57.9389997  70.9044400  87.7484505  58.7997932
  72.3929992  86.7454990  57.6489997  73.3629992  87.2014990  57.5159997
  72.4309992  85.7324990  58.7949997  71.4169992  85.6844990  59.2439997
  72.6659589  84.7654468  58.3503604  73.4269992  86.0344990  59.9099997
  72.9049992  86.6444990  60.6769997  73.7099884  85.0725878  60.3374877
  74.9129992  86.9094990  59.3839997  74.5099992  88.5914990  59.8439997
  73.4316893  88.7375971  59.7807375  73.4119992  88.7514990  59.7919997
  75.0139992  89.3074990  59.1609997  72.0869992  86.0194990  56.3459997
  72.9799992  85.3764990  55.7849997  70.8529992  86.1104990  55.8499997
  70.1439281  86.6234366  56.3541945  70.4719992  85.4364990  54.6179997
  71.0249992  84.5114990  54.5539997  68.9679992  85.1604990  54.6159997
  68.4519992  85.9634990  55.1839997  68.6389608  85.1675346  53.5768730
  68.6219992  83.8264990  55.2459997  69.5239992  83.1944990  55.8339997
  67.4479992  83.4094990  55.1569997  70.8469992  86.2234990  53.3689997
  70.5759992  85.7534990  52.2599997  71.4489992  87.4044990  53.5219997
  71.5608075  87.8143419  54.4383113  71.8839992  88.1764990  52.3599997
  71.0429992  88.2804990  51.6909997  72.3939992  89.5604990  52.8009997
  72.9179992  89.4654990  53.7759997  73.3509992  90.1364990  51.7699997
  72.8371470  90.2397814  50.8142855  73.6985722  91.1145879  52.1026189
  74.2044986  89.4687494  51.6527349  71.2249992  90.5034990  53.0339997
  70.5599992  90.0994990  53.8269997  70.6359992  90.6144990  52.0989997
  71.6009992  91.4974990  53.3589997  72.9409992  87.4074990  51.5789997
  72.9059992  87.3544990  50.3429997  73.8929992  86.7934990  52.2859997
  73.9616695  86.9189418  53.2858236  74.9029992  85.9764990  51.6199997
  75.3669992  86.5734990  50.8489997  75.9459992  85.5094990  52.6379997
  76.3559992  86.4174990  53.1249997  75.3840297  84.9383297  53.3769556
  77.1389992  84.6814990  52.1529997  77.2949992  84.8574990  51.0669997
  78.3899992  85.0754990  52.9139997  78.2397374  84.8965625  53.9786601
  79.2327365  84.4808013  52.5615378  78.5980529  86.1327542  52.7496056
  76.8739992  83.1954990  52.3179997  75.9955886  82.9157768  51.7364073
  77.7371944  82.6306770  51.9659038  76.6987147  82.9718094  53.3703006
  74.2719992  84.7874990  50.9089997  74.7659992  84.3554990  49.8609997
  73.1869992  84.2444990  51.4639997  72.8712544  84.5416037  52.3762131
  72.4679992  83.1594990  50.8019997  73.1759992  82.3814990  50.5579997
  71.3819992  82.6274990  51.7379997  71.8579992  82.0274990  52.5439997
  70.8267991  83.4569099  52.1760983  70.3739992  81.7434990  51.0669997
  70.7719992  80.6854990  50.2729997  71.8355891  80.4900898  50.1362819
  69.8409992  79.8824990  49.6579997  70.1706280  79.0602470  49.0229034
  68.4959992  80.1154990  49.8399997  67.7669992  79.4774990  49.3629997
  68.0839992  81.1614990  50.6329997  67.0309992  81.3494990  50.7759997
  69.0199992  81.9684990  51.2429997  68.6972654  82.7963166  51.8743955
  71.8749992  83.6184990  49.4749997  71.9569992  82.9014990  48.4689997
  71.2789992  84.8114990  49.4499997  71.1579903  85.3465463  50.2980448
  70.7059992  85.3354990  48.2129997  70.0519992  84.5814990  47.7999997
  69.9219992  86.6294990  48.4969997  70.5819992  87.3504990  49.0239997
  69.4309992  87.2504990  47.1999997  68.7772968  86.5470100  46.6843666
  68.8789753  88.1642202  47.4201897  70.2840152  87.4863639  46.5637347
  68.7589992  86.3474990  49.4329997  69.1349992  85.9394990  50.3959997
  68.0759992  85.6004990  48.9749997  68.2029992  87.2864990  49.6389997
  71.7959992  85.5504990  47.1719997  71.6199992  85.2334990  45.9879997
  72.9399992  86.0944990  47.5939997  73.0369031  86.4371589  48.5391415
  74.0629992  86.2644990  46.6779997  73.7119992  86.8054990  45.8119997
  75.1909992  87.0294990  47.3649997  74.8709992  88.0794990  47.5359997
  75.3801702  86.5341787  48.3173506  76.4669992  87.0754990  46.5599997
  76.5079992  87.7004990  45.3229997  75.6003279  88.1643984  44.9369563
  77.6739992  87.7414990  44.5819997  77.6942656  88.2370644  43.6113782
  78.8149992  87.1494990  45.0769997  79.9779992  87.1884990  44.3429997
  79.7759992  86.8954990  43.4519997  78.7989992  86.5204990  46.3019997
  79.6959992  86.0584990  46.6869997  77.6289992  86.4854990  47.0349997
  77.6078115  85.9873251  48.0042643  74.5659992  84.9214990  46.1669997
  74.9359992  84.7934990  44.9919997  74.6009992  83.9104990  47.0379997
  74.3839505  84.0507278  48.0143833  75.0199992  82.5824990  46.6069997
  75.9869992  82.6704990  46.1339997  75.0969992  81.6394990  47.8059997
  75.8065873  82.0333229  48.5336585  75.8259992  82.0304990  48.5479997
  75.4099992  80.6274990  47.4709997  74.0779992  82.0264990  45.5489997
  74.5259992  81.4604990  44.5459997  72.7679992  82.1904990  45.7489997
  72.4176306  82.5810076  46.6120432  71.8019992  81.7294990  44.7549997
  72.0149992  80.6944990  44.5339997  70.3659992  81.8784990  45.2879997
  70.2159992  82.9154990  45.6569997  69.3579992  81.5834990  44.1899997
  69.4984423  80.5637528  43.8315386  68.3478014  81.6935742  44.5843145
  69.5036167  82.2812449  43.3653495  70.1469992  80.9524990  46.4569997
  70.8589992  81.1954990  47.2749997  70.3129992  79.9004990  46.1429997
  69.1109992  81.0694990  46.8429997  71.9899992  82.4804990  43.4429997
  71.9569992  81.8814990  42.3589997  72.1839992  83.7984990  43.5179997
  72.1632727  84.2794410  44.4058986  72.3789992  84.5894990  42.3069997
  71.5209992  84.4414990  41.6669997  72.5329992  86.0674990  42.6569997
  71.7099992  86.3564990  43.3439997  73.4885050  86.1801366  43.1692706
  72.4969992  86.9824990  41.4479997  72.8789992  86.4304990  40.5639997
  71.4603174  87.2735373  41.2786198  73.3459992  88.2294990  41.6599997
  73.0591275  88.6856671  42.6074775  74.3931803  87.9301755  41.7037800
  73.1859992  89.2184990  40.5969997  74.0039992  89.4814990  40.0879997
  72.0409992  89.7964990  40.2529997  70.9159992  89.5584990  40.9079997
  70.9129992  88.9294990  41.6849997  70.0679992  90.0084990  40.6259997
  72.0279992  90.6484990  39.2319997  72.8729992  90.8474990  38.7349997
  71.1729992  91.0914990  38.9609997  73.5939992  84.1074990  41.5279997
  73.5209992  83.8784990  40.3149997  74.7229992  83.9374990  42.2159997
  74.7734146  84.1421176  43.2037693  75.9399992  83.5154990  41.5349997
  76.0959992  84.1654990  40.6869997  77.1259992  83.5924990  42.4929997
  77.4069992  84.6594990  42.6179997  76.7831521  83.1894935  43.4459648
  78.3449992  82.8284990  42.0329997  78.7369992  82.2234990  42.8769997
  78.0430345  82.1685310  41.2197600  79.4399992  83.7554990  41.5499997
  79.3759992  84.9624990  41.8649997  80.3589992  83.2834990  40.8539997
  75.7909992  82.1094990  40.9649997  76.2019992  81.8434990  39.8279997
  75.1859992  81.2014990  41.7339997  74.8779656  81.4369291  42.6666235
  75.0159992  79.8274990  41.2759997  75.9809992  79.4494990  40.9729997
  74.4379992  78.9784990  42.4049997  75.1329992  79.0344990  43.2689997
  73.4633080  79.3610404  42.7078844  74.1839992  77.2584990  41.9719997
  73.6994109  76.8877305  43.1537793  74.1309992  79.7654990  40.0369997
  74.4059992  79.0074990  39.0999997  73.0539992  80.5554990  40.0179997
  72.7582614  81.0636824  40.8392110  72.2369992  80.6524990  38.8129997
  71.9939992  79.6504990  38.4899997  70.9619992  81.4444990  39.1029997
  71.2379992  82.3244990  39.7209997  70.5124708  81.7916192  38.1726601
  69.6789992  80.5044990  39.9589997  68.7948179  81.4963835  40.0163284
  73.0129992  81.2934990  37.6709997  72.7729992  80.9734990  36.5009997
  73.9359992  82.2034990  37.9889997  74.0394670  82.5320840  38.9384341
  74.7749992  82.8004990  36.9549997  74.1299992  83.1784990  36.1759997
  75.6189992  83.9304990  37.5449997  75.7939992  83.7124990  38.6189997
  76.5725864  83.9253947  37.0170361  74.9819992  85.3114990  37.4299997
  75.0379992  85.6414990  36.3709997  73.9392381  85.2084187  37.7302090
  75.6649992  86.3644990  38.3099997  75.4736319  87.3377693  37.8580900
  75.1868745  86.3184781  39.2884568  77.1739992  86.1644990  38.4699997
  77.6119992  87.0714990  38.9399997  76.1146596  86.3109986  38.2591999
  77.9099992  85.9394990  37.1889997  77.9219992  86.8194990  36.6359997
  77.4349992  85.1924990  36.6429997  78.8859992  85.6474990  37.3969997
  75.6639992  81.7544990  36.2929997  75.9129992  81.8204990  35.0839997
  75.9749992  80.6824990  37.0299997  75.6757432  80.5974396  37.9908899
  76.7629992  79.5684990  36.4349997  77.5579992  80.0034990  35.8479997
  77.3449992  78.6554990  37.5059997  76.5919992  77.8744990  37.7439997
  78.2542834  78.1732775  37.1471615  77.8029992  79.5204990  39.0289997
  78.2433400  78.4436191  39.6734592  75.8779992  78.6914990  35.5319997
  76.4489992  77.8934990  34.7589997  74.5509992  78.8204990  35.6229997
  74.1379808  79.4919681  36.2543826  73.6379992  77.9254990  34.8409997
  73.8799992  76.9034990  35.0909997  72.1609992  78.2184990  35.1669997
  72.0119992  79.3174990  35.2229997  71.2269992  77.6394990  34.1029997
  71.3549992  76.5374990  34.0409997  71.4629992  78.0804990  33.1119997
  70.1699992  77.8594990  34.3679997  71.7799992  77.7344990  36.5579997
  72.0311568  76.6757035  36.6210297  72.3777246  78.2926893  37.2785879
  70.3099992  77.9234990  36.8679997  69.7116077  77.3651875  36.1480582
  70.1005080  77.5593853  37.8737998  70.0581750  78.9821738  36.8056141
  73.9029992  78.0844990  33.3349997  74.0379992  79.2404990  32.8789997
  73.9619992  76.9704990  32.5989997  73.9722931  76.0613215  33.0387606
  74.1089992  77.0404990  31.1179997  74.8149992  77.8264990  30.8919997
  74.5969992  75.7184990  30.5489997  74.2289992  75.6304990  29.5049997
  75.6851537  75.7784428  30.5696538  74.1429992  74.4824990  31.3109997
  74.6459992  74.2694990  32.4339997  73.2829992  73.7504990  30.7789997
  72.7669992  77.4754990  30.5259997  71.8069992  76.6754990  30.5859997
  72.6959992  78.6894990  29.9759997  73.5208741  79.2699556  29.9235513
  71.4299992  79.2264990  29.4499997  70.6849992  79.1044990  30.2219997
  71.5850081  80.2874524  29.2539143  70.9199992  78.5514990  28.1699997
  69.9569992  79.0334990  27.5879997  71.5639992  77.4704990  27.7019997
  72.3200277  77.1007801  28.2604155  71.3159992  76.8714990  26.3739997
  71.1739992  77.6744990  25.6649997  72.5059992  75.9864990  25.9509997
  72.7119992  75.2574990  26.7629997  72.2032767  75.4505924  25.0514091
  73.7929992  76.7804990  25.6659997  73.5699992  77.5954990  24.9449997
  74.1453170  77.2098654  26.6038795  74.8829992  75.8674990  25.0789997
  75.1201414  75.0821494  25.7966965  74.4996404  75.4181307  24.1629191
  76.1529992  76.6714990  24.7619997  75.9089992  77.4914990  24.0529997
  75.2702818  76.0629931  24.9585441  77.2049992  75.8294990  24.1319997
  76.8439992  75.4304990  23.2419997  77.4639992  75.0564990  24.7779997
  78.0439992  76.4114990  23.9349997  69.9949992  76.0934990  26.2509997
  69.6039992  75.7674990  25.1349997  69.3069992  75.9064990  27.3859997
  69.6978175  76.1765658  28.2773045  67.9719992  75.2504990  27.3709997
  68.0169992  74.4344990  26.6639997  67.5699992  74.7224990  28.7519997
  68.4679992  74.2814990  29.2339997  67.2343915  75.5798444  29.3354603
  66.4729992  73.6664990  28.7249997  66.3419992  73.3214990  27.6779997
  66.8227805  72.8425803  29.3470232  65.1259992  74.1574990  29.2429997
  64.6799392  73.3564743  29.8324815  65.3249762  75.0142151  29.8868514
  64.1819992  74.5604990  28.1549997  64.6469992  74.3694990  27.1639997
  64.8775616  74.3054548  28.9545274  63.8549992  75.9874990  28.2289997
  64.7329992  76.5414990  28.3039997  63.2609992  76.1644990  29.0629997
  63.3399992  76.2694990  27.3699997  66.9439992  76.2674990  26.8639997
  66.6659992  77.2444990  27.5939997  66.3979992  76.0384990  25.6719997
  66.7080554  75.2341679  25.1456765  65.4339992  76.9554990  25.0419997
  65.7049992  77.9644990  25.3159997  65.4489992  76.7934990  23.4979997
  65.0499992  75.7904990  23.2349997  64.6009992  77.8664990  22.7999997
  64.9925883  78.8543998  23.0425095  64.6394681  77.7157705  21.7211570
  63.5680999  77.7921185  23.1401293  66.8689992  76.8904990  22.9169997
  67.5129992  76.0944990  23.3479997  67.3129992  77.8784990  23.1669997
  66.8369992  76.7634990  21.8139997  64.0329992  76.7364990  25.6319997
  63.1969992  76.0544990  25.0419997  63.7959992  77.3344990  26.8049997
  64.5216401  77.8404455  27.2924039  62.4559992  77.2684990  27.4189997
  61.8499992  76.5694990  26.8609997  62.5177848  76.9358154  28.4551481
  61.8239992  78.6464990  27.3799997  62.0599992  79.4254990  28.3269997
  60.9479992  78.9074990  26.4079997  60.7847944  78.2436022  25.6645586
  60.2319992  80.2094990  26.3599997  60.9639992  81.0014990  26.4279997
  59.4419992  80.3204990  25.0509997  59.1399992  79.2974990  24.7409997
  58.5510308  80.9068988  25.2755226  60.1949992  80.9644990  23.8949997
  59.4699992  81.1794990  23.0819997  60.6096470  81.8958782  24.2806186
  61.3179992  80.1074990  23.3219997  61.7524023  80.6357181  22.4732491
  62.0700704  79.9951450  24.1029382  60.8509992  78.7564990  22.8819997
  61.7129992  78.1634990  22.5099997  61.1737214  79.7571765  23.1693914
  59.8719992  78.8524990  21.7939997  60.3049992  79.3324990  20.9789997
  59.0469992  79.3964990  22.1179997  59.5699992  77.8974990  21.5139997
  59.3019992  80.3564990  27.5779997  59.1469992  79.3474990  28.3019997
  58.7309992  81.5534990  27.7949997  59.0317060  82.3270557  27.2194263
  57.7859992  81.8324990  28.9209997  57.2419992  82.7274990  28.6599997
  56.7899992  80.7054990  29.2239997  56.7019992  80.0604990  28.3239997
  57.2037595  80.1233873  30.0474367  55.3989992  81.2044990  29.6029997
  55.3259992  82.2834990  29.3519997  54.6853807  80.6338039  29.0087313
  55.0799992  81.0344990  31.0759997  54.9719992  79.8754990  31.5279997
  54.9399992  82.0604990  31.7729997  58.5609992  82.2364990  30.1919997
  57.8959992  82.7424990  31.1249997  59.8829992  82.0184990  30.2399997
  60.3149755  81.4882045  29.4968418  60.7299992  82.4334990  31.3989997
  61.7509992  82.1614990  31.1749997  60.6309992  83.9384990  31.6579997
  60.6439992  84.4524990  30.6739997  59.6560290  84.1766999  32.0831978
  61.7309992  84.5584990  32.5249997  61.9099992  85.6004990  32.1859997
  61.3739992  84.5784990  34.0039997  61.2104210  83.5587961  34.3526358
  62.1900674  85.0286674  34.5692269  60.4654081  85.1623805  34.1511215
  63.0859992  83.9084990  32.3009997  63.3771914  84.0247406  31.2570675
  63.8287050  84.3859536  32.9401605  63.0255189  82.8478494  32.5448512
  60.3719992  81.6174990  32.6569997  61.2979992  81.0854990  33.2969997
  59.0919992  81.5444990  33.0219997  58.3824935  82.0778193  32.5400553
  58.6829992  80.7154990  34.1749997  59.0489992  81.1834990  35.0779997
  57.1609992  80.6064990  34.2059997  56.7969992  79.9174990  33.4149997
  56.6419992  80.1044990  35.5399997  56.9449992  80.7984990  36.3539997
  57.0629992  79.0994990  35.7559997  55.5329992  80.0484990  35.5169997
  56.6869992  81.9264990  33.9609997  55.7270212  81.9280891  33.9673230
  59.3379992  79.3584990  34.0489997  59.8519992  78.8504990  35.0669997
  59.3369992  78.7894990  32.8389997  58.9040612  79.2598263  32.0570430
  59.9129992  77.4374990  32.6169997  59.7079992  76.8354990  33.4899997
  59.2869992  76.8104990  31.3719997  60.0569992  76.7604990  30.5729997
  58.9738890  75.7988922  31.6302898  58.0879992  77.5954990  30.8479997
  58.2589992  78.6734990  31.0509997  58.0614108  77.4081500  29.7745507
  56.7539992  77.2094990  31.4619997  56.5909992  77.3734990  32.6899997
  55.8729992  76.7504990  30.7059997  61.4419992  77.5234990  32.4819997
  62.0979992  76.4794990  32.6429997  61.9899992  78.7084990  32.2029997
  61.4366823  79.5210754  31.9713549  63.4729992  78.8274990  32.1549997
  63.8159992  78.2354990  31.3189997  63.9629992  80.2724990  31.9989997
  63.1389992  80.9534990  32.2989997  64.8001062  80.3953396  32.6862130
  64.4029992  80.6484990  30.5919997  63.4969992  80.8164990  29.9709997
  64.9700059  81.5753101  30.6793307  65.2639992  79.5884990  29.9159997
  64.8997528  78.6072901  30.2203886  65.1405885  79.7032816  28.8391087
  66.7139992  79.7134990  30.2679997  67.1449992  80.6044990  29.7629997
  65.6698936  79.5823416  29.9838512  67.4859992  78.5434990  29.8429997
  67.1549992  78.2304990  28.9079997  67.3559992  77.7744990  30.5309997
  68.4929992  78.7934990  29.7889997  64.0549992  78.1924990  33.4279997
  63.6999992  78.6384990  34.5419997  64.9309992  77.1734990  33.3009997
  65.4389992  76.6464990  32.0229997  64.9597032  77.1412073  32.8677713
  66.0377015  77.3706400  31.4704833  66.2349992  75.4414990  32.4359997
  65.6069992  74.5264990  32.3839997  65.6873054  76.2990401  32.0451596
  66.6769992  75.6864990  33.8329997  67.6309992  76.2554990  33.8519997
  66.8217759  74.7607639  34.3899144  65.5409992  76.5034990  34.4619997
  64.8049992  75.9194990  34.9909997  66.0599992  77.4654990  35.5159997
  66.0279992  77.1414990  36.7099997  66.5469992  78.6404990  35.1079997
  66.5991632  78.8706502  34.1259565  67.0729992  79.6014990  36.0729997
  67.8329992  79.1064990  36.6599997  67.6629992  80.8104990  35.3469997
  66.8679992  81.2594990  34.7149997  67.9596989  81.5235302  36.1161913
  68.8579992  80.4954990  34.4599997  69.5729992  79.8664990  35.0309997
  68.4870612  79.9410373  33.5979792  69.5809992  81.7574990  33.9819997
  70.3373164  82.0046117  34.7269954  70.0679195  81.5129554  33.0379623
  68.6529992  82.9564990  33.7809997  68.2269992  83.2554990  34.7619997
  69.2529849  82.0520246  33.8812116  67.5049992  82.6924990  32.8649997
  67.0249992  81.8164990  33.1539997  67.8549992  82.5904990  31.8909997
  66.8349992  83.4864990  32.9109997  65.9909992  80.0444990  37.0489997
  66.2089992  80.0744990  38.2649997  64.8109992  80.3884990  36.5279997
  64.6679991  80.3876241  35.5281749  63.7159992  80.8344990  37.3829997
  64.0739992  81.6484990  37.9959997  62.5389992  81.2914990  36.5189997
  62.8709992  82.1224990  35.8599997  62.1766848  80.4640008  35.9090201
  61.3629992  81.7924990  37.3049997  61.3519992  83.0764990  37.8199997
  62.2115987  83.7251547  37.6513744  60.2679992  83.5394990  38.5409997
  60.2740003  84.5517619  38.9452131  59.1789992  82.7194990  38.7509997
  58.3299992  83.0804990  39.3119997  59.1769992  81.4394990  38.2409997
  58.3259992  80.7944990  38.4049997  60.2629992  80.9814990  37.5219997
  60.2605310  79.9698705  37.1161652  63.2849992  79.7334990  38.3419997
  63.0639992  79.9804990  39.5339997  63.1649992  78.5044990  37.8339997
  63.3180113  78.3381358  36.8496166  62.7289992  77.3854990  38.6659997
  61.8119992  77.6714990  39.1609997  62.5029992  76.1344990  37.7969997
  63.4139992  75.9364990  37.1929997  62.2049992  74.9274990  38.6689997
  61.4049992  75.1724990  39.3999997  63.1179992  74.6314990  39.2289997
  61.8619992  74.0804990  38.0379997  61.3719992  76.3774990  36.7979997
  60.4332944  76.3158675  37.3485772  61.4966364  77.3865860  36.4051786
  61.3499992  75.3904990  35.6529997  61.2249164  74.3811617  36.0450361
  60.5209400  75.6258425  34.9856366  62.2882600  75.4518788  35.1016386
  63.7349992  77.1214990  39.7759997  63.3629992  76.9454990  40.9429997
  65.0249992  77.0924990  39.4369997  65.3185376  77.1813817  38.4746928
  66.0459992  76.8634990  40.4529997  65.7889992  75.9634990  40.9919997
  67.4169992  76.7204990  39.7959997  67.3789992  75.8444990  39.1159997
  67.5803387  77.6088739  39.1859093  68.6029992  76.5274990  40.7429997
  68.6699992  77.3964990  41.4309997  68.4329992  75.2544990  41.5519997
  68.3749406  74.3999726  40.8778240  69.2849990  75.1318424  42.2206944
  67.5168037  75.3162212  42.1392616  69.9079992  76.5014990  39.9649997
  70.0319937  77.4435267  39.4308569  70.7403367  76.3634381  40.6551118
  69.8891076  75.6788555  39.2501572  66.0559992  77.9874990  41.4809997
  66.1939992  77.7364990  42.6859997  65.9029992  79.2344990  41.0259997
  65.8212987  79.4238345  40.0372750  65.9129992  80.3634990  41.9469997
  66.8119992  80.3064990  42.5429997  65.8739992  81.6744990  41.1629997
  64.9359992  81.7264990  40.5709997  65.9044377  82.5053430  41.8678909
  66.9749992  81.7674990  40.2759997  66.9295288  82.5973037  39.7954204
  64.7489992  80.2934990  42.9259997  64.9329992  80.5064990  44.1289997
  63.5429992  79.9934990  42.4359997  63.3697374  79.8722587  41.4483861
  62.4049992  79.9424990  43.3499997  62.4709992  80.7954990  44.0089997
  61.0689992  79.9684990  42.5799997  60.9539992  80.9524990  42.0779997
  61.0249992  78.8774990  41.5479997  61.1285997  77.9091601  42.0375788
  60.0732960  78.9161334  41.0180291  61.8411373  79.0145552  40.8386084
  59.8899992  79.8564990  43.5359997  59.9959992  80.5944990  44.3599997
  59.8549992  78.8364990  43.9749997  58.9429992  80.0634990  42.9939997
  62.5049992  78.7284990  44.2649997  62.1129992  78.7974990  45.4369997
  63.0339992  77.6054990  43.7679997  63.2829617  77.5249289  42.7924867
  63.2039992  76.4364990  44.6239997  62.2569992  76.2264990  45.0989997
  63.6639992  75.2354990  43.7969997  64.4849992  75.5794990  43.1349997
  64.0803530  74.5131344  44.4990958  62.6199992  74.5464990  42.9159997
  62.2469992  75.2654990  42.1559997  63.2259992  73.3434990  42.2139997
  63.5866300  72.6321743  42.9570080  62.4691080  72.8658614  41.5918431
  64.0577420  73.6679669  41.5886798  61.4129992  74.1354990  43.7349997
  60.9627977  75.0187815  44.1880229  60.6835937  73.6476069  43.0884472
  61.7232159  73.4440696  44.5184472  64.1899992  76.7114990  45.7519997
  63.9519992  76.3174990  46.8999997  65.3029992  77.3824990  45.4489997
  65.4991367  77.6794737  44.5037825  66.3059992  77.6394990  46.4769997
  66.4179992  76.7444990  47.0719997  67.6359992  78.0184990  45.8269997
  67.4329992  78.7844990  45.0499997  68.2632025  78.4822844  46.5883269
  68.3999992  76.8674990  45.1689997  67.7459992  76.3764990  44.4169997
  69.6569992  77.3754990  44.4849997  70.3049136  77.8512085  45.2212104
  70.1836742  76.5397149  44.0243704  69.3859602  78.1007328  43.7177486
  68.7389992  75.7984990  46.1929997  67.8196502  75.4083712  46.6296884
  69.2821107  74.9881045  45.7067981  69.3588993  76.2306565  46.9785331
  65.8479992  78.7254990  47.4449997  66.0019992  78.5864990  48.6649997
  65.2809992  79.8154990  46.9229997  65.1384098  79.9062788  45.9272454
  64.9069992  80.9364990  47.7809997  65.7159992  81.1154990  48.4729997
  64.6419992  82.1794990  46.9359997  63.8959992  81.9044990  46.1629997
  64.1877597  82.9083472  47.6072275  65.8299992  82.8184990  46.2199997
  66.2789992  82.0844990  45.5179997  65.3689992  84.0404990  45.4489997
  64.9334487  84.7631477  46.1390528  66.2205280  84.4923132  44.9402134
  64.6212340  83.7455198  44.7128374  66.9169992  83.1894990  47.2109997
  67.2586619  82.2932284  47.7287498  67.7539567  83.6431157  46.6801180
  66.5205245  83.8991035  47.9372009  63.6869992  80.6124990  48.6339997
  63.6689992  80.9014990  49.8349997  62.6599992  80.0124990  48.0329997
  62.7454032  79.7562210  47.0597951  61.3859992  79.7774990  48.6999997
  61.3279992  80.4324990  49.5569997  60.2299992  80.0514990  47.7389997
  60.4029992  79.4814990  46.8009997  59.2849149  79.7352353  48.1804666
  60.0749992  81.4974990  47.3859997  60.9309992  82.2564990  46.6439997
  61.8262864  81.7620140  46.2671106  60.4509992  83.5384990  46.5309997
  60.9009141  84.2936562  46.0335927  59.2609992  83.6264990  47.2029997
  58.4039992  84.7094990  47.3709997  58.6129992  85.6804990  46.9479997
  57.2669992  84.5054990  48.1009997  56.5809992  85.3264990  48.2499997
  56.9719992  83.2574990  48.6589997  56.0629992  83.1324990  49.2289997
  57.8219992  82.1814990  48.4949997  57.5709992  81.2294990  48.9389997
  58.9919992  82.3594990  47.7529997  61.2799992  78.3674990  49.2709997
  60.1929992  77.7784990  49.2719997  62.3909992  77.8104990  49.7459997
  63.2770648  78.2917670  49.6879625  62.3689992  76.4704990  50.3169997
  61.8959992  75.8084990  49.6049997  63.7919992  76.0044990  50.6159997
  64.4499992  76.2844990  49.7659997  64.1359438  76.5013444  51.5231638
  63.8809992  74.5074990  50.8209997  63.7499992  74.0134990  51.9399997
  64.1029992  73.7754990  49.7359997  64.1717406  72.7708426  49.8137170
  64.2021349  74.2266109  48.8377954  61.5229992  76.4444990  51.5829997
  61.6679992  77.2994990  52.4609997  60.6329992  75.4534990  51.6719997
  60.5204619  74.7922116  50.9169277  59.7529992  75.3374990  52.8299997
  59.3149992  76.3054990  53.0229997  58.6639992  74.3024990  52.5419997
  57.8999992  74.7544990  51.8739997  59.1110337  73.4281171  52.0690127
  57.9439992  73.8084990  53.7659997  56.8659992  74.5054990  54.2759997
  56.5457353  75.4240759  53.7843216  56.1959992  74.0514990  55.3949997
  55.3508870  74.6143790  55.7912975  56.5969992  72.8844990  56.0109997
  56.0739992  72.5284990  56.8859997  57.6649992  72.1754990  55.5079997
  57.9819992  71.2614990  55.9899997  58.3309992  72.6334990  54.3889997
  59.1710958  72.0683244  53.9853718  60.5359992  74.9704990  54.0849997
  60.3629992  75.5914990  55.1449997  61.4029992  73.9614990  53.9829997
  61.5581447  73.4858210  53.1056401  62.1439992  73.5134990  55.1499997
  61.4299992  73.2014990  55.8989997  62.7663175  72.6642397  54.8679040
  63.0259992  74.6004990  55.7269997  63.0589992  74.8114990  56.9419997
  63.7499992  75.3124990  54.8589997  63.7717767  75.0779179  53.8768608
  64.5699992  76.4244990  55.3219997  65.2629992  76.0474990  56.0599997
  65.3259992  77.0454990  54.1509997  64.7289992  76.8604990  53.2339997
  65.3448685  78.1171329  54.3493546  66.7429992  76.5544990  53.8789997
  66.7769992  75.4464990  53.9479997  67.1559992  76.9934990  52.4959997
  67.1255602  78.0813829  52.4353299  68.1690166  76.6469214  52.2915967
  66.4722399  76.5698249  51.7604225  67.7039992  77.0934990  54.9229997
  67.3959215  76.7527996  55.9114892  68.7105018  76.7321616  54.7120751
  67.6966535  78.1831443  54.8962021  63.7199992  77.4784990  56.0099997
  64.0759992  77.9674990  57.0879997  62.5839992  77.8314990  55.4039997
  62.3268688  77.4254025  54.5157041  61.7139992  78.8514990  55.9749997
  62.2769992  79.7694990  56.0549997  60.4889992  79.0494990  55.0819997
  60.3719992  78.1334990  54.4679997  59.6316585  79.1210205  55.7512915
  60.4909992  80.2444990  54.1269997  61.4679992  80.2944990  53.6009997
  59.3759992  80.1074990  53.1059997  58.4155055  80.0654099  53.6195940
  59.3907172  80.9654435  52.4338276  59.5200292  79.1931318  52.5304231
  60.3529992  81.5444990  54.8969997  61.1871586  81.6465341  55.5911656
  60.3565293  82.3824253  54.1998854  59.4160269  81.5398131  55.4539196
  61.2919992  78.4764990  57.3889997  61.4909992  79.2454990  58.3369997
  60.7429992  77.2714990  57.5579997  60.5976200  76.6345058  56.7878023
  60.2099992  76.9074990  58.8669997  59.6589992  77.7534990  59.2489997
  59.2889992  75.6724990  58.7629997  58.6769992  75.5924990  59.6869997
  58.3699992  75.7894990  57.5579997  58.8519992  75.3374990  56.6649997
  58.1609992  76.8594990  57.3449997  57.4169992  75.2544990  57.7569997
  60.0789992  74.3614990  58.7469997  60.4982652  74.2445816  57.7476763
  60.8881429  74.4584889  59.4708635  59.2439992  73.1524990  59.0859997
  58.4348672  73.0545795  58.3622477  59.8679475  72.2592630  59.0557120
  58.8247428  73.2684880  60.0854347  61.3339992  76.7204990  59.8819997
  61.2239992  77.1784990  61.0259997  62.4499992  76.1024990  59.4779997
  62.5395643  75.7446146  58.5377889  63.5329992  75.8474990  60.4209997
  63.1089992  75.3984990  61.3069997  64.5789992  74.9074990  59.7919997
  64.8009992  75.2434990  58.7569997  65.8599992  74.9114990  60.6079997
  65.6464620  74.5737526  61.6221152  66.5865432  74.2417283  60.1479544
  66.2676231  75.9218931  60.6403747  64.0249992  73.4974990  59.6999997
  63.1099992  73.4874990  59.0699997  63.7629992  73.1274990  60.7139997
  64.7799992  72.8244990  59.2399997  64.1609992  77.1524990  60.8919997
  64.4469992  77.3224990  62.0829997  64.3829992  78.0974990  59.9809997
  64.1264395  77.9589002  59.0140111  65.0599992  79.3304990  60.3439997
  65.7629992  79.1094990  61.1329997  65.7849992  79.9064990  59.1249997
  65.0729992  79.9674990  58.2749997  66.1288514  80.9054230  59.3933586
  66.9699992  79.0614990  58.7009997  66.8999992  77.8244990  58.8509997
  67.9689992  79.6334990  58.2189997  64.1329992  80.3884990  60.9239997
  64.6239992  81.3344990  61.5469997  62.8129992  80.2694990  60.7479997
  62.4155367  79.4702424  60.2754408  61.9169992  81.3334990  61.1769997
  62.5129992  82.1194990  61.6159997  61.1219992  81.8684990  59.9779997
  60.5289992  81.0364990  59.5439997  60.4295094  82.6543571  60.2796366
  61.9809992  82.4464990  58.8959997  63.3569992  82.3884990  58.9279997
  63.8469992  82.9674990  57.8479997  64.9235958  83.0291741  57.6891447
  62.8369992  83.3934990  57.1119997  62.9094718  83.8730268  56.2260534
  61.6589992  83.0804990  57.7439997  60.7069752  83.3525369  57.2882073
  60.9459992  80.9314990  62.2749997  60.6389992  81.7644990  63.1309997
  60.4469992  79.6974990  62.2819997  60.6054798  79.0865457  61.4935078
  59.5859992  79.2284990  63.3549997  59.3129992  80.0814990  63.9599997
  58.3249992  78.5494990  62.7949997  58.5899992  77.5374990  62.4209997
  57.2549992  78.4244990  63.8639997  57.1019992  79.4034990  64.3669997
  57.5679992  77.6794990  64.6259997  56.2949992  78.1084990  63.4029997
  57.7419992  79.3924990  61.6609997  57.1673503  80.1979418  62.1183193
  58.5803898  79.8143723  61.1067221  56.8549992  78.6144990  60.7169997
  56.0160739  78.1926816  61.2705105  56.4790494  79.2796814  59.9396366
  57.4291134  77.8091102  60.2589149  60.3439992  78.3064990  64.3009997
  59.8119992  77.9044990  65.3419997  61.5959992  77.9874990  63.9769997
  61.9485112  78.2445026  63.0660750  62.4599992  77.2214990  64.8589997
  61.9509992  77.0994990  65.8039997  62.7759992  75.8504990  64.2389997
  61.8189992  75.3334990  64.0149997  63.3350140  75.9700286  63.3109290
  63.5919992  74.9564990  65.1179997  63.1819992  74.5744990  66.3769997
  64.0969992  73.7894990  66.9159997  63.9561351  73.3804759  67.9164777
  65.0859992  73.6474990  66.0539997  65.9241912  73.1018788  66.1948284
  64.7949992  74.3664990  64.9199997  65.4953300  74.3740659  64.0847867
  63.7549992  77.9524990  65.1879997  64.4759992  77.5154990  66.0909997
  64.0559992  79.0584990  64.5039997  63.5324256  79.2392039  63.6594195
  65.1479992  79.9694990  64.8519997  65.2159992  80.7184990  64.0769997
  64.8979992  80.6344990  66.2099997  63.8719992  81.0594990  66.2279997
  64.9817722  79.9237325  67.0321269  65.8499992  81.7524990  66.5109997
  65.7349992  82.9694990  65.8659997  64.9385733  83.1142544  65.1360329
  66.6149992  83.9944990  66.1379997  66.5078183  84.9546017  65.6332069
  67.6319992  83.8044990  67.0489997  68.3259992  84.6044990  67.2579997
  67.7609992  82.5964990  67.6909997  68.5549992  82.4474990  68.4079997
  66.8779992  81.5774990  67.4189997  66.9832546  80.6163138  67.9221341
  66.5069992  79.2624990  64.8359997  67.1549992  79.0594990  65.8619997
  66.9169992  78.8694990  63.6339997  66.2729984  78.8500160  62.8561934
  68.2739992  78.3964990  63.4169997  68.8389992  78.5954990  64.3149997
  68.3119992  76.8984990  63.0939997  67.3269992  76.5964990  62.6799997
  69.0840485  76.7441277  62.3402030  68.6139992  76.0414990  64.3099997
  69.3999992  76.5404990  64.9149997  67.7037363  75.9491585  64.9024493
  69.0969992  74.6564990  63.9479997  68.8339992  73.6904990  64.6619997
  69.8109992  74.5484990  62.8339997  69.8779992  75.3244990  62.2059997
  70.2819992  73.6924990  62.6219997  68.9249992  79.2004990  62.2989997
  68.2519992  79.7614990  61.4309997  70.2589992  79.2484990  62.3369997
  70.7353414  78.7643687  63.0845393  71.0589992  80.0204990  61.3929997
  70.4409992  80.8134990  60.9969997  72.2879992  80.5994990  62.0949997
  72.7389992  79.8164990  62.7399997  72.9856997  80.8904180  61.3097097
  72.0009992  81.7904990  62.9799997  71.9709992  83.0764990  62.4579997
  72.1544254  83.2176407  61.3928549  71.7139992  84.1674990  63.2649997
  71.6928868  85.1725865  62.8437454  71.4849992  83.9794990  64.6109997
  71.2269992  85.0624990  65.4199997  71.4049992  84.8044990  66.3269997
  71.5109992  82.7144990  65.1519997  71.3299992  82.5704990  66.2069997
  71.7689992  81.6284990  64.3379997  71.7935024  80.6241306  64.7607808
  71.4879992  79.2044990  60.1819997  72.5609992  79.4574990  59.6179997
  70.6819992  78.2214990  59.7719997  69.8024803  78.0428486  60.2352813
  71.0819992  77.3374990  58.6829997  72.0549992  76.9324990  58.9169997
  70.0609992  76.2124990  58.5169997  69.0849992  76.6514990  58.2199997
  70.4056095  75.5381212  57.7330619  69.8619992  75.4144990  59.7889997
  70.4069992  75.7534990  60.8379997  69.0819992  74.3444990  59.6979997
  68.9139625  73.7748937  60.5149533  68.6600662  74.1047891  58.8122161
  71.2489992  78.0964990  57.3719997  72.0489992  77.6984990  56.5179997
  70.4979992  79.1854990  57.1899997  69.9086716  79.5503472  57.9246276
  70.5049992  79.8704990  55.9079997  70.1559992  79.1744990  55.1599997
  69.8189065  80.7154089  55.9671887  71.8779992  80.3764990  55.5049997
  72.3119992  80.1824990  54.3689997  72.5889992  81.0114990  56.4379997
  72.2241229  81.1441999  57.3703918  73.8749992  81.6154990  56.1059997
  73.7749992  82.1364990  55.1659997  74.2769992  82.5834990  57.2219997
  73.9599992  83.6104990  56.9409997  73.7969360  82.2540704  58.1434746
  75.7499992  82.6404990  57.5019997  76.5789992  83.4534990  56.7489997
  76.1530920  84.0410565  55.9356861  77.9309992  83.5254990  57.0179997
  78.5761941  84.1594038  56.4097325  78.4649992  82.7944990  58.0579997
  79.5219992  82.8514990  58.2719997  77.6479992  81.9904990  58.8239997
  78.0649992  81.4144990  59.6359997  76.2969992  81.9234990  58.5519997
  75.6475351  81.3003315  59.1667831  74.9429992  80.5534990  55.8549997
  75.7329992  80.6714990  54.9109997  74.9669992  79.4964990  56.6709997
  74.3620409  79.4485672  57.4783579  75.9129992  78.4044990  56.4479997
  76.9049992  78.8254990  56.3769997  75.8349992  77.4084990  57.6029997
  74.8629992  76.8764990  57.5319997  76.6257180  76.6717870  57.4611573
  75.9429992  78.0074990  59.0039997  75.3249992  78.9284990  59.0579997
  75.4629992  77.0194990  60.0529997  76.0732857  76.1174165  60.0094511
  75.5494611  77.4686265  61.0423983  74.4212920  76.7624141  59.8610263
  77.3669992  78.4384990  59.2869997  77.6722172  79.1880305  58.5568327
  77.4263088  78.8630147  60.2891823  78.0288147  77.5750934  59.2189546
  75.6449992  77.7024990  55.1199997  76.5799992  77.3624990  54.3819997
  74.3659992  77.4614990  54.8069997  73.6263915  77.6744825  55.4610010
  74.0089992  76.8304990  53.5399997  74.5929992  75.9274990  53.4379997
  72.5139992  76.5034990  53.5089997  71.9629992  77.2644990  54.1009997
  72.1277667  76.5147493  52.4897853  72.1699992  75.1594990  54.0839997
  72.5519992  73.9984990  53.4369997  73.1108368  74.0689434  52.5038126
  72.2339992  72.7614990  53.9589997  72.5465511  71.8542202  53.4420303
  71.5199992  72.6734990  55.1359997  71.2689992  71.7054990  55.5459997
  71.1279992  73.8214990  55.7869997  70.5699992  73.7564990  56.7099997
  71.4489992  75.0564990  55.2599997  71.1332489  75.9659448  55.7711844
  74.3759992  77.7124990  52.3559997  74.8219992  77.2154990  51.3149997
  74.1699992  79.0234990  52.4829997  73.7022812  79.4151379  53.2879581
  74.6179992  79.9284990  51.4389997  74.1539992  79.6274990  50.5119997
  74.3056695  80.9431364  51.6861035  76.1259992  79.9024990  51.2739997
  76.6389992  80.0104990  50.1589997  76.8539992  79.7534990  52.3839997
  76.4244640  79.7946994  53.2971816  78.3009992  79.5684990  52.3069997
  78.7219992  80.4124990  51.7809997  78.8889992  79.4674990  53.7139997
  78.0689992  79.1344990  54.3809997  79.6314801  78.6734835  53.6342396
  79.5219992  80.6914990  54.3709997  78.8879992  81.5844990  54.1869997
  79.6449992  80.4514990  55.8609997  80.2715027  79.5773254  56.0382363
  80.0967050  81.3235071  56.3339314  78.6554564  80.2806541  56.2849305
  80.8759992  80.9834990  53.7739997  80.7691934  81.1753668  52.7063487
  81.3061109  81.8598562  54.2588741  81.5325731  80.1265918  53.9247312
  78.6479992  78.3194990  51.5059997  79.5519992  78.3324990  50.6599997
  77.9429992  77.2184990  51.7759997  77.2406227  77.2015848  52.5015894
  78.2339992  75.9764990  51.0649997  79.2979992  75.7974990  51.1259997
  77.4629992  74.8084990  51.6789997  77.9139992  74.5664990  52.6649997
  76.4339852  75.1316088  51.8365758  77.4739992  73.5524990  50.8199997
  77.1909992  73.8424990  49.7869997  78.4989425  73.1816479  50.8279214
  76.3679992  72.2474990  51.3819997  74.7789992  72.9514990  50.9679997
  74.7185164  73.9676053  51.3578313  74.7069992  73.9904990  51.3539997
  73.9629992  72.3424990  51.4119997  77.9179992  76.1104990  49.5789997
  78.6689992  75.6154990  48.7299997  76.8089992  76.7754990  49.2429997
  76.1310711  77.0622527  49.9345812  76.5099992  77.0274990  47.8309997
  76.5879992  76.0884990  47.3039997  75.1129992  77.6164990  47.6529997
  74.8799992  78.2204990  48.5549997  75.1261629  78.3170096  46.8180077
  73.9819992  76.6104990  47.4549997  73.9499992  76.3094990  46.3859997
  74.1589992  75.3704990  48.3089997  74.1784030  75.6532983  49.3614952
  73.3295085  74.6857305  48.1325399  75.0965314  74.8796410  48.0478629
  72.6459992  77.2834990  47.7089997  72.5175608  78.1118330  47.0122459
  71.8419542  76.5614930  47.5664508  72.6173899  77.6613150  48.7310249
  77.5469992  77.9314990  47.1819997  77.8689992  77.7624990  46.0029997
  78.0649992  78.9134990  47.9209997  77.7028696  79.1443740  48.8351431
  79.1449992  79.7294990  47.3789997  78.8159992  80.1384990  46.4349997
  79.4999992  80.8534990  48.3509997  78.5749992  81.1404990  48.8939997
  80.1967503  80.4508604  49.0862004  80.0919992  82.1164990  47.7269997
  81.1959992  82.0104990  47.6629997  79.5299992  82.3504990  46.3329997
  78.4475194  82.4641615  46.3914562  79.9675924  83.2554361  45.9114528
  79.7715987  81.4998146  45.6957665  79.8439992  83.3234990  48.6149997
  80.3086463  83.1612976  49.5875701  80.2740241  84.2111078  48.1509625
  78.7710971  83.4655261  48.7446461  80.3669992  78.8764990  47.0749997
  81.0119992  79.0454990  46.0329997  80.6919992  77.9414990  47.9699997
  80.2067943  77.8708110  48.8529938  81.8079992  77.0344990  47.7189997
  82.6809992  77.6284990  47.4939997  82.0579992  76.1614990  48.9469997
  82.4599992  76.7864990  49.7729997  81.1138998  75.7135147  49.2569778
  82.9929992  75.1384990  48.6579997  83.1344687  74.6033908  49.4423755
  81.5549992  76.1684990  46.4879997  82.4569992  75.9624990  45.6659997
  80.3329992  75.6514990  46.3459997  79.6330268  75.7710581  47.0642221
  80.0039992  74.8204990  45.1889997  80.7549992  74.0484990  45.1079997
  78.6059992  74.1924990  45.3499997  77.8599992  74.9964990  45.5269997
  78.2219992  73.4144990  44.1049997  79.0429992  72.7234990  43.8179997
  78.0379992  74.1164990  43.2629997  77.3059992  72.8164990  44.2999997
  78.5619992  73.2824990  46.5769997  78.9107708  72.2980031  46.2651870
  79.2514059  73.6951346  47.3135795  77.1869992  73.1584990  47.1889997
  76.4970952  72.7454676  46.4531075  77.2323075  72.4978029  48.0547520
  76.8377292  74.1426001  47.5014980  80.1089992  75.6264990  43.8999997
  80.6289992  75.1414990  42.8879997  79.6089992  76.8634990  43.9109997
  79.1227374  77.2191296  44.7216634  79.6939992  77.7124990  42.7279997
  79.3109992  77.1564990  41.8859997  78.8819992  78.9904990  42.9379997
  77.8415804  78.7322370  43.1353053  77.8179992  78.7344990  43.1289997
  78.9549992  79.6374990  42.0379997  81.1419992  78.0464990  42.3929997
  81.5119992  78.1234990  41.2149997  81.9739992  78.2584990  43.4149997
  81.6337313  78.3118060  44.3644602  83.3969992  78.4754990  43.1769997
  83.5009992  79.2854990  42.4709997  84.1029992  78.8164990  44.4889997
  83.7839992  78.0824990  45.2579997  85.1722411  78.7090593  44.3065754
  83.8169992  80.2134990  45.0149997  82.8539992  80.2024990  45.5679997
  84.6259335  80.4852031  45.6931621  83.7329992  81.2324990  43.8949997
  84.6140328  81.1399373  43.2599318  82.8377428  81.0399189  43.3037905
  83.6689992  82.5944990  44.4089997  84.1989992  82.8104990  45.2279997
  82.9529992  83.5664990  43.8619997  82.2319992  83.3624990  42.7719997
  81.5859992  84.0604990  42.4619997  82.3319992  82.5104990  42.2579997
  82.9629992  84.7734990  44.4199997  83.6149992  84.9814990  45.1489997
  82.3179992  85.4724990  44.1109997  84.0339992  77.2514990  42.5339997
  84.8699992  77.3774990  41.6319997  83.6529992  76.0574990  42.9919997
  83.0452871  75.9742987  43.7944104  84.1659992  74.8334990  42.3819997
  85.2429992  74.9034990  42.3429997  83.7389992  73.6174990  43.2009997
  82.6689992  73.7434990  43.4659997  83.8211499  72.7434058  42.5550025
  84.5179992  73.3704990  44.4939997  84.2159992  74.1214990  45.2549997
  84.2429992  71.9774990  45.0269997  84.5466728  71.2379248  44.2861142
  84.8066155  71.8220827  45.9469362  83.1777848  71.8699168  45.2315595
  86.0069992  73.5714990  44.2689997  86.1901182  74.5934084  43.9369334
  86.5433654  73.3911140  45.2005972  86.3573243  72.8743885  43.5078109
  83.7009992  74.6994990  40.9369997  84.4529992  74.2264990  40.0769997
  82.4599992  75.1024990  40.6539997  81.8410206  75.4331950  41.3803638
  81.9439992  75.0174990  39.2899997  82.1019992  74.0104990  38.9329997
  80.4549992  75.3634990  39.2639997  80.2299992  76.0704990  40.0909997
  80.1822983  75.8288716  38.3168130  79.5509992  74.1784990  39.4359997
  79.9409992  73.0954990  40.2039997  80.9186255  73.1106489  40.6857852
  79.1089992  72.0044990  40.3639997  79.4261308  71.1600353  40.9758897
  77.8749992  71.9844990  39.7469997  77.2239992  71.1314990  39.8679997
  77.4749992  73.0554990  38.9769997  76.5079992  73.0434990  38.4949997
  78.3099992  74.1434990  38.8229997  77.9957050  74.9895160  38.2117925
  82.7139992  75.9324990  38.3469997  82.9819992  75.5684990  37.1959997
  83.0759992  77.1264990  38.8149997  82.8166192  77.3765427  39.7585565
  83.7759992  78.1154990  38.0059997  83.4139992  78.0374990  36.9909997
  83.5219992  79.5184990  38.5579997  83.7009992  79.5014990  39.6529997
  84.2450401  80.1778671  38.0778481  82.1229992  80.0394990  38.3109997
  82.1299992  80.6874990  37.4079997  81.4534032  79.1957121  38.1443655
  81.6029992  80.8454990  39.4799997  82.3679992  81.5184990  40.1709997
  80.2979992  80.7814990  39.7119997  79.8759992  81.4034990  40.3719997
  79.7359992  80.1114990  39.2279997  85.2739992  77.8634990  37.9199997
  86.0209992  78.7894990  37.5809997  85.7239992  76.6484990  38.2339997
  85.0513523  75.9714272  38.5644829  87.1359992  76.2694990  38.2129997
  87.2099992  75.2524990  38.5689997  87.7259992  76.3794990  36.8019997
  87.7959992  77.4544990  36.5329997  88.7261136  75.9479693  36.8426628
  86.9119992  75.6704990  35.7329997  86.0319992  75.1844990  36.2059997
  86.5746428  76.4154022  35.0122973  87.7409992  74.6154990  35.0199997
  88.4161179  75.1076546  34.3199307  88.3232009  74.0776095  35.7682079
  86.8569992  73.6364990  34.2669997  86.4279992  74.1324990  33.3699997
  87.4589642  74.3409699  34.8409840  85.7239992  73.1554990  35.1039997
  85.1389992  73.9644990  35.3959997  86.0969992  72.6744990  35.9479997
  85.1449992  72.4884990  34.5539997  87.9719992  77.0814990  39.1959997
  89.1959992  77.1664990  39.0539997  87.3349992  77.6874990  40.1959997
  86.3259891  77.7320025  40.1918447  88.0529992  78.3594990  41.2749997
  89.0569992  78.5644990  40.9339997  87.3469992  79.6574990  41.6579997
  86.5819992  79.4264990  42.4279997  88.1053337  80.3149707  42.0831582
  86.6639992  80.3574990  40.4979997  86.7639992  79.7334990  39.5839997
  85.6092853  80.4769026  40.7458369  87.2809992  81.7224990  40.2389997
  88.3619461  81.6111987  40.1537644  86.8820113  82.1165008  39.3042962
  86.9919992  82.6714990  41.3069997  87.7059992  82.8394990  41.9859997
  85.8469992  83.3254990  41.4399997  84.8509992  83.1564990  40.5879997
  84.9509992  82.5224990  39.8199997  83.9959992  83.6614990  40.7099997
  85.6989992  84.1724990  42.4549997  84.9949992  84.8814990  42.4159997
  86.2909992  84.1004990  43.2569997  88.1739992  77.4054990  42.4629997
  87.5179992  77.5454990  43.4959997  89.0399992  76.4054990  42.2789997
  89.5832558  76.3379522  41.4302305  89.1739992  75.3454990  43.2719997
  88.1889992  74.9634990  43.4939997  90.0689992  74.2344990  42.7299997
  91.0769992  74.6544990  42.5299997  90.1606601  73.4292265  43.4588581
  89.5629992  73.6124990  41.4659997  89.9119992  74.0794990  40.2169997
  89.3189992  73.3444990  39.2929997  89.4688557  73.5551586  38.2341019
  88.5979992  72.4174990  39.8989997  88.0351609  71.7119926  39.4455973
  88.7339992  72.5634990  41.2579997  88.2115346  71.8864881  41.9338607
  89.7209992  75.8794990  44.5899997  89.2909992  75.4494990  45.6659997
  90.6779992  76.8084990  44.5269997  91.0494121  77.1166423  43.6397570
  91.2529992  77.3634990  45.7479997  91.6059992  76.5454990  46.3579997
  92.4039992  78.3064990  45.3979997  92.7789992  78.0414990  44.3869997
  91.9992819  79.3182017  45.3704048  93.5679992  78.2544990  46.3679997
  94.3929992  78.8774990  45.9629997  93.2319077  78.6746849  47.3159386
  94.1589992  76.5764990  46.6409997  95.7539992  76.6564990  45.8339997
  95.6355522  77.0752973  44.8346612  95.6479992  77.0874990  44.8159997
  96.1939992  75.6394990  45.7519997  90.1959992  78.0934990  46.5679997
  90.1089992  77.9164990  47.7909997  89.3799992  78.9154990  45.9069997
  89.4922538  79.0796025  44.9167632  88.3389992  79.6524990  46.6169997
  88.7969992  80.1644990  47.4499997  87.6709992  80.6534990  45.6759997
  87.7819992  80.2854990  44.6339997  86.6150530  80.6795072  45.9450744
  88.2469992  82.0554990  45.7529997  88.8059992  82.1644990  46.7069997
  88.9279111  82.1797037  44.9109596  87.1759992  83.1254990  45.6979997
  86.8549992  83.7014990  46.7589997  86.6519992  83.3884990  44.5949997
  87.3049992  78.7094990  47.2159997  86.8679992  78.9024990  48.3549997
  86.9019992  77.6834990  46.4649997  87.2371752  77.5515778  45.5214144
  85.9479992  76.7244990  46.9979997  85.0639992  77.2674990  47.2989997
  85.6868379  76.0143061  46.2134487  86.4929992  75.9634990  48.1909997
  85.7819992  75.7364990  49.1739997  87.7629992  75.5604990  48.1219997
  88.3081461  75.6899008  47.2816608  88.3769992  74.8594990  49.2429997
  87.7329992  74.0374990  49.5209997  89.7579992  74.3434990  48.8469997
  89.6644432  73.6712684  47.9940909  89.6689992  73.6484990  47.9849997
  90.2259992  73.8164990  49.7059997  88.4719992  75.7554990  50.4689997
  88.2089992  75.3104990  51.5929997  88.8449992  77.0224990  50.2759997
  89.1437332  77.3513584  49.3689667  88.8959992  77.9524990  51.4009997
  89.4979992  77.5084990  52.1789997  89.5009992  79.2824990  50.9509997
  90.5899992  79.1484990  50.7779997  89.0161088  79.6161376  50.0335758
  89.3429992  80.3934990  51.9489997  90.2129992  80.5064990  53.0189997
  91.0143855  79.7765102  53.1330015  90.0749992  81.5284990  53.9359997
  90.7641544  81.6022131  54.7772678  89.0659992  82.4564990  53.7879997
  88.9569992  83.2574990  54.5039997  88.1949992  82.3594990  52.7229997
  87.4019992  83.0834990  52.6039997  88.3379992  81.3354990  51.8079997
  87.6547690  81.2612391  50.9619608  87.5129992  78.1624990  52.0049997
  87.3609992  78.1994990  53.2319997  86.4929992  78.3014990  51.1549997
  86.6498317  78.3289217  50.1576277  85.1319992  78.4824990  51.6459997
  85.1279992  79.3164990  52.3319997  84.1869992  78.7494990  50.4729997
  84.5929992  78.2004990  49.5989997  83.2407656  78.2864793  50.7529187
  83.9349992  80.1914990  50.0179997  83.5699992  80.1884990  48.9679997
  82.9059992  80.8544990  50.9029997  83.2646859  80.8662974  51.9322244
  82.7401006  81.8773541  50.5648492  81.9696162  80.2989534  50.8514606
  85.2099992  81.0174990  49.9969997  85.9249009  80.5657611  49.3092875
  84.9813565  82.0313306  49.6684132  85.6397585  81.0488404  50.9982108
  84.6699992  77.2714990  52.4449997  84.0629992  77.4164990  53.5119997
  84.9579992  76.0634990  51.9519997  85.4014211  75.9524873  51.0513594
  84.5679992  74.8624990  52.6839997  83.5279992  74.9594990  52.9589997
  84.7749992  73.6204990  51.8219997  84.2509992  73.7564990  50.8519997
  85.8339163  73.4485954  51.6290131  84.2419992  72.3624990  52.4429997
  82.9179992  72.2784990  52.8379997  82.2645841  73.1382582  52.6898014
  82.4219992  71.1254990  53.4129997  81.3768618  71.0721206  53.7178589
  83.2509992  70.0404990  53.6009997  82.8649992  69.1374990  54.0499997
  84.5739992  70.1104990  53.2149997  85.2259992  69.2614990  53.3609997
  85.0639992  71.2664990  52.6399997  86.1094197  71.3236154  52.3367941
  85.3359992  74.7344990  53.9949997  84.7769992  74.2924990  55.0059997
  86.6209992  75.0984990  53.9949997  87.0899958  75.3645435  53.1409728
  87.3999992  75.0554990  55.2269997  87.3069992  74.0664990  55.6509997
  88.8649992  75.3734990  54.9339997  89.2589939  74.6492222  54.2210540
  89.2759992  74.6334990  54.2139997  89.4539992  75.3474990  55.8749997
  86.8389992  76.0164990  56.2649997  86.7749992  75.6894990  57.4559997
  86.4339992  77.2124990  55.8349997  86.6198905  77.5196704  54.8909713
  85.7889992  78.1474990  56.7529997  86.4069992  78.2324990  57.6349997
  85.6179992  79.5244990  56.0849997  85.0729992  79.4014990  55.1239997
  84.8379992  80.4614990  56.9889997  85.3735354  80.5890391  57.9297629
  84.7269358  81.4296079  56.5006038  83.8525586  80.0397271  57.1867797
  86.9719992  80.1214990  55.7559997  87.5949992  79.3794990  55.2119997
  87.4969992  80.4064990  56.6919997  86.8439992  81.0174990  55.1109997
  84.4579992  77.5864990  57.2379997  84.0999992  77.7294990  58.4129997
  83.7069992  76.9364990  56.3449997  84.0052425  76.8496517  55.3839545
  82.4059992  76.3894990  56.7179997  81.8309992  77.1754990  57.1849997
  81.6859992  75.8644990  55.4789997  81.5369992  76.7164990  54.7829997
  82.3467830  75.1521283  54.9850433  80.3259992  75.2114990  55.7249997
  80.4509992  74.3464990  56.4109997  79.3589992  76.2064990  56.3409997
  79.2274153  77.0518692  55.6656230  78.3967071  75.7227219  56.5084941
  79.7575710  76.5603447  57.2918068  79.7689992  74.6404990  54.4359997
  80.4554954  73.8901305  54.0438649  78.8005396  74.1797619  54.6307007
  79.6498733  75.4404331  53.7052375  82.5369992  75.2864990  57.7619997
  81.7129992  75.1964990  58.6809997  83.5579992  74.4354990  57.6339997
  84.2127518  74.5180115  56.8694148  83.7159992  73.3194990  58.5639997
  82.8089992  72.7334990  58.5449997  84.9129992  72.4604990  58.1599997
  85.7259992  73.1414990  57.8329997  85.2543112  71.9371660  59.0531563
  84.6679992  71.4504990  57.0409997  84.2709992  71.9784990  56.1479997
  85.9589992  70.7404990  56.6729997  86.3464859  70.2145762  57.5455581
  85.7655647  70.0245811  55.8741596  86.6928908  71.4720079  56.3347714
  83.6039992  70.4504990  57.4559997  82.6735887  70.9767003  57.6694190
  83.4403190  69.7371271  56.6482802  83.9329973  69.9185980  58.3487150
  83.8729992  73.8084990  59.9979997  83.3649992  73.1824990  60.9349997
  84.5719992  74.9254990  60.1889997  85.0417122  75.3666171  59.4112569
  84.7419992  75.5014990  61.5139997  84.7559992  74.6954990  62.2329997
  86.0459992  76.2964990  61.5759997  86.0809992  76.9924990  60.7109997
  86.1057497  76.8894199  62.4886741  87.2729992  75.4414990  61.5399997
  87.6749992  74.6734990  62.6099997  88.7799992  74.0234990  62.2929997
  89.2614223  73.3614517  63.0127387  89.1059992  74.3384990  61.0519997
  89.9050120  73.9915039  60.5408511  88.1779992  75.2224990  60.5579997
  88.2735765  75.6009321  59.5402794  83.5729992  76.3844990  61.9279997
  83.5909992  76.9244990  63.0369997  82.5749992  76.5584990  61.0649997
  82.6799311  76.2531780  60.1079899  81.3389992  77.2314990  61.4439997
  81.5569992  77.8954990  62.2679997  80.7809992  78.0184990  60.2579997
  81.2399992  77.6404990  59.3199997  79.6987880  77.9057115  60.1932081
  81.0559992  79.4924990  60.3219997  80.2219992  80.3324990  61.0379997
  79.3610587  79.9119179  61.5576081  80.4699992  81.6894990  61.0989997
  79.8074572  82.3408427  61.6689909  81.5579992  82.2204990  60.4379997
  81.7529992  83.2814990  60.4829997  82.3959992  81.3934990  59.7189997
  83.2479992  81.8064990  59.2009997  82.1429992  80.0374990  59.6619997
  82.8036067  79.3832813  59.0930560  80.2919992  76.2494990  61.9509997
  79.5019992  76.5874990  62.8389997  80.2559992  75.0514990  61.3669997
  80.8638495  74.8388934  60.5889147  79.3039992  74.0074990  61.8219997
  79.2089992  74.0914990  62.8939997  77.9349992  74.1674990  61.1599997
  77.5839992  75.2064990  61.3309997  78.0811689  74.0060526  60.0919784
  76.8709992  73.2134990  61.6749997  77.1539992  72.1764990  61.3969997
  76.8453223  73.3097033  62.7604431  75.4909992  73.5164990  61.1059997
  75.2538043  74.5605490  61.3104429  75.5388975  73.3596088  60.0284141
  74.4309992  72.6424990  61.6889997  73.4269992  73.0254990  61.4079997
  75.2089776  73.2921598  61.2880139  74.5159992  72.6244990  63.1499997
  74.3929992  73.5904990  63.5159997  75.4469992  72.2604990  63.4379997
  73.7699992  72.0104990  63.5329997  79.8769992  72.6254990  61.4909997
  79.9559992  72.2844990  60.2959997  80.2669992  71.8544990  62.5079997
  80.1485231  72.1624465  63.4625839  80.9569992  70.5564990  62.2649997
  81.7299992  70.7184990  61.5279997  81.5659992  70.0254990  63.5679997
  81.9839992  69.0154990  63.3739997  82.3599984  70.6989389  63.8907132
  80.6109992  69.9154990  64.7069997  80.2139992  70.9954990  65.4639997
  79.3749992  70.5874990  66.4019997  78.9384375  71.2935646  67.1083878
  79.2249992  69.2874990  66.2779997  78.6437540  68.6969799  66.8555299
  79.9909992  68.8514990  65.2279997  80.0045942  67.7936358  64.9656220
  80.0289992  69.5044990  61.6489997  80.5249992  68.4154990  61.3119997
  78.7439992  69.7934990  61.4619997  78.2882585  70.6325753  61.7911662
  77.9059992  68.7394990  60.8159997  78.2629992  67.7794990  61.1589997
  76.4159992  68.9014990  61.1619997  75.9199992  67.9084990  61.1309997
  76.2499992  69.5074990  62.5549997  76.5709992  70.5704990  62.5499997
  76.8749992  68.9514990  63.2859997  75.1829992  69.4604990  62.8629997
  75.6609992  69.6974990  60.1039997  75.8274261  70.7547308  60.3105516
  76.0927185  69.4446762  59.1355996  74.1709992  69.4154990  60.0819997
  73.7384685  69.6685325  61.0499826  73.6983703  70.0165212  59.3051513
  74.0037610  68.3584768  59.8750328  78.1649992  68.7614990  59.3029997
  77.8319992  67.7654990  58.6359997  78.7679992  69.8354990  58.7909997
  78.9294183  70.6729057  59.3321033  79.1119992  69.8534990  57.3459997
  78.2679992  69.4634990  56.7969997  79.4349992  71.2744990  56.8819997
  80.0779992  71.7784990  57.6349997  79.9400864  71.1827072  55.9204586
  78.1759992  72.1104990  56.7149997  77.3819992  71.9874990  55.5829997
  77.6812353  71.2817344  54.8081102  76.2299992  72.7394990  55.4269997
  75.6262920  72.6376772  54.5251838  75.8469992  73.6224990  56.4189997
  74.7109992  74.3644990  56.2739997  74.3159992  74.1394990  55.4289997
  76.6159992  73.7524990  57.5599997  76.3209992  74.4414990  58.3369997
  77.7679992  72.9964990  57.7029997  78.3728884  73.0901607  58.6049069
  80.2369992  68.8694990  57.1229997  80.6739992  68.7084990  55.9689997
  80.7109992  68.2254990  58.1919997  80.4615711  68.4315072  59.1487888
  81.7029992  67.1874990  57.9449997  82.4719992  67.6004990  57.3089997
  82.3049992  66.7094990  59.2679997  81.5719992  66.9294990  60.0709997
  82.4079281  65.6267017  59.1968957  83.6439992  67.3224990  59.6799997
  83.5679992  68.4294990  59.6479997  84.0169992  66.8834990  61.0859997
  84.0993174  65.7970880  61.1181526  84.9723932  67.3281501  61.3645828
  83.2472462  67.2098842  61.7853231  84.7329992  66.9444990  58.6929997
  84.4683138  67.3109852  57.7011686  85.6773679  67.3907807  59.0046110
  84.8366138  65.8598423  58.6632874  81.1169992  66.0044990  57.1899997
  81.8699992  65.1114990  56.7879997  79.7949992  65.9774990  57.0089997
  79.2101880  66.6959942  57.4113176  79.1529992  64.8984990  56.2669997
  79.3969992  63.9634990  56.7479997  77.6389992  65.1154990  56.2509997
  77.4289992  66.1804990  56.0149997  77.2595605  64.4579054  55.4688891
  76.9359992  64.8064990  57.5539997  77.6489992  64.4264990  58.6839997
  78.7345873  64.3515649  58.6208888  77.0049992  64.1454990  59.8739997
  77.5762154  63.8444663  60.7521758  75.6319992  64.2494990  59.9469997
  74.9859992  63.9724990  61.1299997  75.6229992  63.5784990  61.7309997
  74.9019992  64.6274990  58.8419997  73.8269992  64.7054990  58.9019997
  75.5539992  64.9054990  57.6559997  74.9832169  65.2094468  56.7785469
  79.6829992  64.8194990  54.8419997  79.9379992  63.7254990  54.3239997
  79.8589992  65.9704990  54.1929997  79.6750038  66.8370644  54.6780867
  80.2199992  66.0314990  52.7829997  80.0449992  65.0564990  52.3509997
  79.3869992  67.0954990  52.0539997  79.7229992  67.1674990  50.9969997
  77.9139992  66.7284990  52.0899997  77.5802648  66.6641459  53.1256545
  77.3359753  67.4919648  51.5693186  77.7668833  65.7655634  51.6009050
  79.6139992  68.4624990  52.6769997  80.6869992  68.7404990  52.6069997
  79.3219992  68.4424990  53.7479997  79.0129992  69.2264990  52.1389997
  81.7119992  66.2824990  52.5809997  82.1389992  66.5744990  51.4609997
  82.5119992  66.1844990  53.6409997  82.1347785  66.0406207  54.5667982
  83.9509992  66.3884990  53.5039997  84.1149992  67.3524990  53.0449997
  84.6149992  66.3314990  54.8859997  84.1452405  67.0610012  55.5457369
  84.1889992  67.1194990  55.5429997  85.7109992  66.4794990  54.7859997
  84.6279992  65.4154990  52.5399997  85.4839992  65.8694990  51.7589997
  84.3349992  64.1044990  52.5469997  83.5079992  63.3364990  53.4989997
  84.0541905  64.0490442  52.8808939  82.4385224  63.4445628  53.3183327
  83.9799992  61.9284990  53.3069997  84.8279992  61.7034990  53.9889997
  83.5691324  62.9135521  53.5282692  84.4089992  61.8414990  51.8999997
  83.5419992  61.6414990  51.2339997  85.1511689  61.0586251  51.7438193
  85.0239992  63.2134990  51.5969997  86.0919992  63.2694990  51.7329997
  84.8339992  63.6034990  50.1429997  85.7579992  63.4304990  49.3379997
  83.6599992  64.1244990  49.7769997  82.8935685  64.2010943  50.4303116
  83.4349992  64.5364990  48.3949997  83.6729992  63.7034990  47.7509997
  81.9769992  64.9574990  48.2059997  81.3219588  64.1229585  48.4561283
  81.3039992  64.1084990  48.4509997  81.8089992  65.2774990  47.1549997
  84.3789992  65.6644990  47.9979997  85.0269992  65.6054990  46.9439997
  84.4779992  66.6984990  48.8409997  83.8887353  66.7666440  49.6584491
  85.4139992  67.7854990  48.5699997  85.1859992  68.1864990  47.5939997
  85.2949992  68.8764990  49.6339997  85.0969992  68.3994990  50.6169997
  86.2577314  69.3876219  49.6336552  84.1919992  69.8814990  49.4049997
  82.8719992  69.5784990  49.6969997  82.6312939  68.5920537  50.0933407
  81.8679992  70.5044990  49.4929997  80.8334065  70.2543757  49.7278573
  82.1779992  71.7464990  48.9879997  81.1799992  72.6694990  48.7819997
  81.5919992  73.5134990  48.5819997  83.4819992  72.0704990  48.6909997
  83.7239992  73.0464990  48.2949997  84.4789992  71.1424990  48.9009997
  85.5144358  71.3934670  48.6708124  86.8449992  67.2784990  48.5139997
  87.6169992  67.6704990  47.6299997  87.2209992  66.4104990  49.4559997
  86.5847336  66.0909482  50.1723464  88.5849992  65.9084990  49.4719997
  89.2499992  66.7524990  49.5819997  88.7058597  65.2399720  50.3243868
  88.9379992  65.1584990  48.2029997  89.9759992  65.4114990  47.5839997
  88.0629992  64.2434990  47.7819997  87.2324495  64.0366903  48.3182054
  88.3299992  63.4504990  46.5869997  89.3299992  63.0514990  46.6649997
  87.3059992  62.3094990  46.4649997  86.2819992  62.7164990  46.6069997
  87.3999992  61.6524990  45.0989997  88.4012829  61.2450284  44.9593582
  86.6680543  60.8476628  45.0312066  87.1982234  62.3925940  44.3246306
  87.5259992  61.2864990  47.5659997  86.6919992  61.3274990  48.2979997
  88.4769992  61.5034990  48.0989997  87.5659992  60.2654990  47.1309997
  88.3439992  64.3364990  45.3469997  89.2149992  64.1894990  44.4789997
  87.3949992  65.2714990  45.2429997  86.6629715  65.3560111  45.9337184
  87.3699992  66.1714990  44.0949997  87.2939992  65.5714990  43.1999997
  86.1829992  67.1294990  44.1949997  85.2949992  66.5744990  44.5649997
  86.4131116  67.9091436  44.9211557  85.7939992  67.7664990  42.8769997
  86.4009992  67.3854990  41.6889997  87.1640529  66.6075007  41.7128175
  86.0529992  67.9744990  40.4899997  86.5176498  67.6446234  39.5608152
  85.1179992  68.9814990  40.4709997  84.7769992  69.5754990  39.2779997
  84.2409992  70.3474990  39.4729997  84.5209992  69.3964990  41.6389997
  83.7839992  70.1854990  41.6209997  84.8699992  68.7974990  42.8329997
  84.4162413  69.1346210  43.7649613  88.6659992  66.9644990  43.9959997
  89.3129992  67.0014990  42.9439997  89.0609992  67.6114990  45.0949997
  88.5366421  67.5518162  45.9561540  90.2269992  68.4854990  45.0549997
  90.1379992  69.1264990  44.1909997  90.2969992  69.3174990  46.3339997
  90.1969992  68.6314990  47.2009997  91.2832479  69.7768913  46.4001239
  89.2219992  70.3994990  46.4509997  88.2789992  70.0294990  45.9959997
  88.9699992  70.7584990  47.9059997  89.8914576  71.1306477  48.3537927
  88.2018035  71.5297072  47.9626908  88.6357307  69.8730032  48.4466126
  89.6099992  71.6304990  45.6499997  89.7247034  71.3602870  44.6002721
  88.8319503  72.3877111  45.7468030  90.5521517  72.0280648  46.0273445
  91.5099992  67.6914990  44.8519997  92.4509992  68.1754990  44.2129997
  91.5719992  66.4694990  45.3859997  90.8257145  66.0987188  45.9566839
  92.7749992  65.6644990  45.2129997  93.6329992  66.3144990  45.3059997
  92.8189992  64.5624990  46.2719997  92.5249992  65.0184990  47.2399997
  92.0550733  63.8394113  45.9862350  94.1499992  63.8384990  46.4909997
  94.9839992  64.4814990  46.1359997  94.3409992  63.5294990  47.9649997
  93.5270757  62.8927825  48.3117264  95.2909029  63.0145893  48.1087068
  94.3423515  64.4589480  48.5344056  94.2189992  62.5604990  45.6739997
  94.1233143  62.8000601  44.6149651  95.1752185  62.0676167  45.8495360
  93.4080674  61.8950882  45.9701703  92.8619992  65.0724990  43.8119997
  93.9649992  64.8104990  43.3209997  91.7229992  64.8594990  43.1519997
  90.8321913  65.1065583  43.5588439  91.7299992  64.2014990  41.8509997
  92.6409992  63.6294990  41.7659997  90.5079992  63.2874990  41.7199997
  90.6619992  62.3994990  42.3699997  89.6470881  63.8538606  42.0751991
  90.2479992  62.8074990  40.3019997  89.1859992  62.4954990  40.2099997
  90.4461640  63.6318218  39.6169270  91.1479992  61.6334990  39.9549997
  92.1874864  61.9463280  40.0535056  90.9468206  60.8187849  40.6506055
  90.9319992  61.1514990  38.5959997  90.1229992  60.5924990  38.4219997
  91.7389992  61.4064990  37.5759997  92.8249992  62.1474990  37.7219997
  93.4949992  62.2034990  36.9819997  92.9759992  62.6524990  38.5719997
  91.4519992  60.9014990  36.3799997  90.6359992  60.3374990  36.2579997
  92.0529992  61.0864990  35.6019997  91.7649992  65.1914990  40.6899997
  92.5489992  65.0194990  39.7519997  90.9299992  66.2284990  40.7339997
  90.3588257  66.3760383  41.5538120  90.7549992  67.1274990  39.5979997
  91.0769992  66.6104990  38.7059997  89.2859992  67.5384990  39.4779997
  88.9719992  68.0724990  40.4009997  89.1751686  68.2010959  38.6196397
  88.4579992  66.4024990  39.3069997  87.5424718  66.6819196  39.2339693
  91.6359992  68.3684990  39.6689997  92.2809992  68.7194990  38.6769997
  91.6639992  69.0574990  40.8129997  91.0549281  68.8301887  41.5859562
  92.5449992  70.2144990  40.9429997  92.3359992  70.8894990  40.1269997
  92.3149992  70.9124990  42.2829997  91.2329992  71.1344990  42.4009997
  92.6484039  70.2286106  43.0635367  93.0609992  72.2214990  42.4079997
  93.0819992  73.1314990  41.3599997  92.5481712  72.8878584  40.4414321
  93.7629992  74.3274990  41.4659997  93.7705698  75.0340881  40.6360742
  94.4349992  74.6264990  42.6319997  95.1149992  75.8174990  42.7409997
  95.3819992  75.9244990  43.6559997  94.4299992  73.7384990  43.6859997
  94.9579992  73.9754990  44.5979997  93.7459992  72.5454990  43.5699997
  93.7384233  71.8387070  44.3997513  94.0029992  69.8024990  40.7939997
  94.7749992  70.4494990  40.0779997  94.3729992  68.6974990  41.4499997
  93.7424996  68.2255243  42.0823046  95.7499992  68.1604990  41.2969997
  96.4109992  68.9894990  41.0939997  96.1899992  67.4314990  42.5609997
  95.8839992  66.3674990  42.4749997  97.2723804  67.4797687  42.6802515
  95.4859992  68.1364990  44.0739997  96.0680884  67.2812389  44.9098230
  95.7689992  67.2194990  40.0809997  94.7669992  67.2134990  39.3329997
  96.8509992  66.4584990  39.8879997  97.6296525  66.4762429  40.5310266
  96.9559992  65.6004990  38.6759997  98.0009992  65.3894990  38.5039997
  96.1749992  64.2974990  38.8709997  95.2019992  64.5264990  39.3549997
  95.9920287  63.8163290  37.9102202  96.8769992  63.2694990  39.7459997
  98.1809992  62.8714990  39.4729997  98.7034924  63.3057836  38.6206513
  98.8159992  61.9344990  40.2699997  99.8383267  61.6334443  40.0412786
  98.1609992  61.3824990  41.3459997  98.6589992  60.6514990  41.9669997
  96.8709992  61.7644990  41.6309997  96.3549992  61.3314990  42.4759997
  96.2299992  62.7014990  40.8379997  95.2076957  63.0019451  41.0676245
  96.4329992  66.4004990  37.4869997  95.5749992  65.8794990  36.7409997
  96.9329992  67.6274990  37.3129997  97.6272791  67.9859264  37.9530032
  96.4439992  68.5194990  36.2349997  95.4889992  68.9244990  36.5319997
  97.4639992  69.6364990  36.0209997  97.1129992  70.3494990  35.2449997
  97.7469992  70.4124990  37.2939997  98.3149992  69.7794990  38.0089997
  96.7909992  70.7174990  37.7709997  98.3529992  71.3144990  37.0609997
  98.6539992  68.9874990  35.5829997  99.3384198  69.6431414  35.4303504
  96.1949992  67.7334990  34.9629997  95.0299992  67.7074990  34.5099997
  97.2379992  67.1234990  34.3939997  98.1572436  67.1752868  34.8092191
  97.0899992  66.4144990  33.0989997  96.3809992  66.9594990  32.4939997
  98.4319992  66.3334990  32.4029997  98.8137273  67.3397904  32.2304853
  98.8249992  67.3564990  32.2209997  98.3239992  65.7964990  31.4359997
  96.4889992  65.0224990  33.3099997  96.8109992  64.3734990  34.3289997
  95.6389992  64.5824990  32.3779997  95.3166732  65.2024683  31.6487238
  95.0569992  63.2124990  32.4489997  95.6189992  62.6544990  33.1839997
  93.5819992  63.2424990  32.8309997  93.1319992  64.1914990  32.4699997
  93.0775492  62.3986789  32.3602579  93.3839992  63.1504990  34.3259997
  94.2059992  62.5494990  35.0259997  92.3089992  63.7364990  34.8309997
  92.1377038  63.6995041  35.8256800  91.6654528  64.2176789  34.2191054
  95.3169992  62.5204990  31.1079997  95.4539992  63.2404990  30.0929997
  95.3579992  61.1864990  31.0949997  95.2950372  60.6518362  31.9495586
  95.5149992  60.4514990  29.8149997  96.4629992  60.7354990  29.3819997
  95.4699992  58.9384990  30.0429997  94.9089992  58.7474990  30.9819997
  94.9212716  58.5178115  29.2003728  96.8239992  58.2604990  30.1539997
  96.6769992  57.1604990  30.1259997  97.4158076  58.5751728  29.2944385
  97.5589992  58.6254990  31.4369997  98.1080252  59.5512503  31.2647964
  96.8057877  58.7884052  32.2078651  98.5059992  57.5614990  31.8839997
  98.6439992  56.8154990  31.0719997  97.7893791  58.3245778  31.5802474
  97.9969992  56.8554990  33.0619997  96.9729992  56.7054990  32.9619997
  98.1829992  57.4234990  33.9139997  98.4759992  55.9354990  33.1489997
  94.3789992  60.8694990  28.8709997  93.2709992  61.1554990  29.3679997
  94.5909992  60.8994990  27.5389997  95.8359992  60.5024990  26.8179997
  95.0601386  60.8864657  27.4803516  96.4578295  59.7912479  27.3616430
  95.2799992  59.9254990  25.5569997  96.0109992  60.0384990  24.7279997
  95.7183450  60.2675972  26.4945087  94.0029992  60.6914990  25.2429997
  93.2219992  60.0014990  24.8549997  94.1289207  61.4629051  24.4832786
  93.5509992  61.3234990  26.5569997  93.4779992  62.3984990  26.5339997
  92.1769992  60.8394990  27.0029997  91.2379992  61.6624990  27.0749997
  92.0569992  59.5414990  27.2929997  92.8393491  58.9175329  27.1562723
  90.7659992  58.9634990  27.7569997  90.0169992  59.1744990  27.0089997
  90.8949992  57.4654990  27.9659997  90.0789992  57.1344990  28.6429997
  90.7784336  57.0201995  26.9779608  92.2169992  57.0174990  28.5709997
  93.2629992  57.2474990  27.9289997  92.1869992  56.4524990  29.6819997
  90.3189992  59.6634990  29.0419997  89.1739992  60.1594990  29.0769997
  91.1869992  59.6984990  30.0579997  92.1063219  59.2944692  29.9498096
  90.8419992  60.3164990  31.3539997  91.0859992  61.3674990  31.3119997
  89.7776994  60.2070043  31.5622689  91.6309992  59.6494990  32.4589997
  91.4279992  60.0134990  33.6339997  92.5139992  58.7174990  32.0929997
  92.6051192  58.4637088  31.1196616  93.3099992  57.9604990  33.0969997
  92.6339992  57.6274990  33.8709997  94.0089992  56.7764990  32.4769997
  93.3549992  55.8814990  32.5429997  94.2127931  56.9989962  31.4295919
  95.2299992  56.4984990  33.1479997  95.6561788  55.7428658  32.7369166
  94.3019992  58.9014990  33.7939997  94.6299992  59.9564990  33.2189997
  94.7819992  58.5184990  34.9759997  94.5368538  57.6263469  35.3810524
  95.6689992  59.4294990  35.7559997  95.2679992  60.4294990  35.6879997
  95.7369992  58.9784990  37.2249997  96.3709992  58.0684990  37.2999997
  96.3279992  60.0794990  38.1019997  95.6119992  60.9244990  38.1869997
  97.2709992  60.4564990  37.6519997  96.5319992  59.6834990  39.1199997
  94.3809992  58.5304990  37.7359997  93.6428645  58.7587653  36.9671353
  94.4224479  57.4522944  37.8904546  93.9879992  59.2104990  39.0299997
  93.9458859  60.2887718  38.8762008  93.0092454  58.8507818  39.3474012
  94.7254711  58.9823024  39.7995199  97.0779992  59.4604990  35.1519997
  97.7739992  58.4264990  35.2449997  97.4759992  60.5844990  34.5469997
  96.8457612  61.3452534  34.3368758  98.8879992  60.6994990  34.1079997
  99.0289992  60.0524990  33.2549997  99.2119992  62.1474990  33.7379997
  98.6999992  62.8304990  34.4489997 100.2892235  62.2953379  33.8143639
  98.7559992  62.4654990  32.3219997  97.7069992  62.1244990  32.1919997
  98.8095275  63.5454809  32.1846101  99.6309992  61.7814990  31.2909997
  99.8186491  60.7542650  31.6035328  99.1218782  61.7802474  30.3272084
 100.9169992  62.4694990  31.1419997 101.7339992  61.9064990  31.0229997
 101.0729992  63.7864990  31.1519997 101.6359992  64.3804990  32.1889997
 101.9459992  63.8364990  32.9689997 101.7519992  65.3734990  32.1939997
 100.6659992  64.5064990  30.1219997 100.2409992  64.0584990  29.3359997
 100.7829992  65.4994990  30.1289997  99.7939992  60.1844990  35.2339997
 100.8699992  59.6474990  34.9199997  99.3449992  60.2914990  36.4859997
  98.4433918  60.7052251  36.6758262 100.1999992  59.9014990  37.6409997
  99.7719992  60.3344990  38.5329997 100.2749992  58.3764990  37.7739997
 100.0039992  57.9144990  36.8009997 101.2813947  58.0659722  38.0547867
  99.3479992  57.8404990  38.8319997  99.2519992  58.2664990  40.1239997
  99.9185461  59.0747957  40.4247843  98.2939992  57.5504990  40.7889997
  98.0408018  57.6750283  41.7587847  97.7359992  56.6394990  39.9319997
  96.7319992  55.6994990  40.1459997  96.2439992  55.5824990  41.1029997
  96.3709992  54.9064990  39.0809997  95.5949992  54.1684990  39.2119997
  96.9849992  55.0354990  37.8359997  96.6759992  54.3934990  37.0239997
  97.9789992  55.9644990  37.6209997  98.4349992  56.0414990  36.6449997
  98.3719992  56.7884990  38.6809997 101.5819992  60.5354990  37.5059997
 102.5019992  60.1104990  38.2309997 101.7129992  61.5094990  36.6049997
 100.9504679  61.7459348  35.9863371 102.9959992  62.2404990  36.4519997
 103.5819992  62.0694990  37.3429997 103.7669992  61.7694990  35.2149997
 104.6329992  62.4484990  35.0679997 104.1276979  60.7663641  35.4424131
 102.9639992  61.7384990  33.9239997 101.9959992  61.2314990  34.1199997
 102.7868408  62.7740208  33.6334632 103.6769992  61.0084990  32.7919997
 103.7873698  61.6972197  31.9543953 104.6627647  60.7216790  33.1581966
 102.9389992  59.7884990  32.3399997 101.9059992  60.0644990  32.0399997
 103.4740679  60.6627037  32.7108997 102.8409992  58.7874990  33.4059997
 102.1939992  59.1294990  34.1449997 103.7829992  58.6254990  33.8169997
 102.4779992  57.8964990  33.0119997 102.6669992  63.7344990  36.3649997
 103.4699992  64.4884990  35.7749997 101.5239992  64.1354990  36.9269997
 100.8900386  63.4620071  37.3327113 101.1219992  65.5644990  36.9189997
 102.0059992  66.1594990  36.7459997 100.1029992  65.8214990  35.8459997
  99.5969992  66.7914990  36.0379997 100.6094590  65.8600788  34.8815775
  99.1229992  64.7934990  35.8249997  98.4824045  64.9761727  35.1337194
 100.5789992  65.9494990  38.2989997  99.7799992  66.9044990  38.3659997
 101.0169992  65.2584990  39.3549997 101.6934086  64.5168034  39.2433867
 100.4589992  65.5074990  40.7149997  99.4289992  65.1854990  40.7079997
 101.2299992  64.7654990  41.8079997 101.5199992  63.7584990  41.4409997
 102.1330876  65.2975174  42.1071449 100.3999992  64.5744990  43.0679997
  99.0129992  64.5124990  43.0009997  98.5237844  64.6004180  42.0309280
  98.2539992  64.3414990  44.1459997  97.1674772  64.2920065  44.0744375
  98.8669992  64.2344990  45.3699997  98.2739992  64.0984990  46.2629997
 100.2379992  64.3004990  45.4579997 100.7209992  64.2194990  46.4209997
 101.0029992  64.4704990  44.3149997 102.0891608  64.5239737  44.3891176
 100.4279992  67.0084990  41.0159997  99.4599992  67.4584990  41.6619997
 101.4489992  67.7514990  40.5889997 102.2198706  67.3265286  40.0937654
 101.5179992  69.2064990  40.8849997 102.4649992  69.5744990  40.5189997
 100.3859992  69.9514990  40.2319997 100.4719992  69.8654990  39.1279997
  99.4433437  69.5119764  40.5580680 100.4129992  71.3264990  40.5829997
  99.6829925  71.7802718  40.1554717 101.5109992  69.4234990  42.4019997
 100.5429992  70.0224990  42.9089997 102.5289992  68.9064990  43.0979997
 103.2647304  68.4004934  42.6260280 102.5779992  69.0014990  44.5829997
 101.7849992  68.3884990  44.9869997 103.9399992  68.5184990  45.0889997
 104.7269992  68.8314990  44.3699997 104.1555096  68.9493360  46.0667700
 104.0529992  67.0084990  45.2439997 104.4719992  66.2114990  44.1859997
 104.7218763  66.6797442  43.2339452 104.5739992  64.8374990  44.3299997
 104.9047619  64.2277396  43.4892320 104.2609992  64.2424990  45.5299997
 104.3419992  63.1704990  45.6409997 103.8429992  65.0144990  46.5879997
 103.5949992  64.5484990  47.5299997 103.7379992  66.3894990  46.4489997
 103.4060918  66.9985130  47.2898559 102.2969992  70.4364990  45.0169997
 101.6759992  70.6394990  46.0799997 102.7479992  71.4094990  44.2189997
 103.3069414  71.1918828  43.4063951 102.5059992  72.8464990  44.5479997
 103.1069992  73.0924990  45.4109997 102.8709992  73.7714990  43.3699997
 103.9069992  74.1464990  43.5119997 102.7839992  73.0514990  42.0299997
 101.7670412  72.6905984  41.8762201 103.0493755  73.7409878  41.2285752
 103.4732548  72.2071024  42.0252327 102.0389992  75.0484990  43.3579997
 102.0569992  75.5254990  44.3609997 100.9849992  74.8104990  43.0979997
 102.4539992  75.7644990  42.6169997 101.0339992  73.0044990  44.9609997
 100.7819992  73.5624990  46.0529997 100.1069992  72.5144990  44.1309997
 100.3784553  72.1029274  43.2495124  98.6589992  72.6084990  44.4479997
  98.4109992  73.6514990  44.5769997  97.8199992  71.9984990  43.3199997
  98.3169992  71.0694990  42.9689997  96.8424485  71.7507106  43.7336367
  97.6459992  72.9364990  42.1359997  96.8559992  73.6794990  42.3759997
  98.5937428  73.4492132  41.9716575  97.2529992  72.1854990  40.8779997
  97.9555578  71.3667348  40.7226429  96.2485712  71.7822033  41.0067489
  97.2649992  73.0464990  39.6909997  98.1529992  73.3134990  39.3179997
  96.1779992  73.4954990  39.0769997  95.2629992  72.6444990  38.6459997
  95.3119992  71.6814990  38.9099997  94.5219992  72.9644990  38.0559997
  96.0089992  74.7924990  38.8979997  96.6999992  75.4364990  39.2239997
  95.1889992  75.1304990  38.4349997  98.3869992  71.8994990  45.7839997
  97.7139992  72.5044990  46.6479997  98.8929992  70.6734990  45.9439997
  99.4112015  70.2216446  45.2041393  98.6379992  69.9214990  47.1699997
  97.5689992  69.8574990  47.3099997  99.2519992  68.5104990  47.0689997
 100.1899992  68.5604990  46.4769997  99.5579992  67.9554990  48.4519997
  98.6373541  67.8974512  49.0326407  99.9903542  66.9594480  48.3568569
 100.2658487  68.6113802  48.9588236  98.3229992  67.5784990  46.3209997
  98.1439992  67.9614990  45.2929997  97.3479992  67.5114990  46.8489997
  98.7799992  66.5684990  46.2479997  99.1739992  70.6774990  48.3779997
  98.5029992  70.7864990  49.4129997 100.3919992  71.2114990  48.2619997
 100.9389683  71.0708799  47.4246524 101.0019992  71.9354990  49.3739997
 100.9639992  71.3024990  50.2479997 102.4599992  72.2994990  49.0379997
 102.5279992  72.5914990  47.9679997 102.9419992  73.4514990  49.9059997
 102.7209992  73.2424990  50.9739997 102.4219992  74.3884990  49.6129997
 104.0389992  73.5794990  49.7889997 103.3699992  71.0824990  49.2159997
 103.2061051  70.4285717  48.3594842 104.3983404  71.4437414  49.2051442
 103.1199992  70.3114990  50.4939997 102.0919232  69.9495180  50.5053663
 103.8035960  69.4641841  50.5474051 103.2841564  70.9646889  51.3510266
 100.1789992  73.1664990  49.7229997  99.9349992  73.4514990  50.8999997
  99.7299992  73.9114990  48.7099997  99.9649079  73.6892313  47.7531745
  98.9449992  75.1134990  48.9679997  99.4619992  75.7004990  49.7129997
  98.7729992  75.9174990  47.6799997  97.8459992  76.5264990  47.7439997
  99.6328532  76.5770685  47.5628709  98.6769992  75.0644990  46.5559997
  98.5697919  75.5927782  45.7616273  97.5879992  74.7774990  49.5759997
  97.1179992  75.4834990  50.4759997  96.9389992  73.7124990  49.0969997
  97.2937180  73.1930148  48.3068034  95.6639992  73.3034990  49.6779997
  94.9919992  74.1474990  49.6479997  95.0869992  72.1294990  48.8859997
  95.9389992  71.5124990  48.5319997  94.5071189  71.5316902  49.5891807
  94.2239992  72.4644990  47.6699997  94.8429992  72.9894990  46.9129997
  93.6459992  71.1984990  47.0589997  93.0302811  70.6860407  47.7981725
  93.0347050  71.4579210  46.1946385  94.4579144  70.5423405  46.7453912
  93.1209992  73.4234990  48.0579997  93.5584182  74.3426257  48.4478330
  92.5140741  73.6534857  47.1823004  92.4943427  72.9666072  48.8239308
  95.8319992  72.9254990  51.1449997  95.0579992  73.3624990  52.0099997
  96.8509992  72.1164990  51.4419997  97.4576434  71.7444310  50.7253075
  97.1059992  71.7434990  52.8209997  96.2149992  71.2704990  53.2079997
  97.9333723  71.0344320  52.8488790  97.4499992  72.9364990  53.6879997
  97.0179992  73.0244990  54.8379997  98.2259992  73.8784990  53.1449997
  98.6129514  73.7597760  52.2196499  98.5879992  75.0724990  53.8969997
  98.9789992  74.7624990  54.8539997  99.6329992  75.8774990  53.1279997
  99.6979992  75.4624990  52.0999997  99.2713552  76.9024459  53.0455532
 101.0409992  75.8804990  53.7259997 101.4339992  74.8414990  53.7459997
 101.9709992  76.7534990  52.8999997 101.5922032  77.7754397  52.8842052
 102.9676037  76.7427448  53.3413213 102.0212051  76.3693846  51.8811592
 101.0049992  76.3444990  55.1719997 100.3751532  75.6719928  55.7543473
 102.0154386  76.3401818  55.5807720 100.5985366  77.3547409  55.2199394
  97.3669992  75.9294990  54.1959997  97.2389992  76.4624990  55.3009997
  96.4609992  76.0774990  53.2279997  96.6190444  75.6963047  52.3061472
  95.2529992  76.8674990  53.4529997  95.5489992  77.8254990  53.8549997
  94.4819992  77.0544990  52.1319997  94.5819992  76.1364990  51.5149997
  93.0099992  77.3214990  52.4009997  92.9078169  78.2270975  52.9989553
  92.4847209  77.4503945  51.4546545  92.5803854  76.4787420  52.9425662
  95.0939992  78.1834990  51.3179997  96.1539992  77.9524990  51.0809997
  95.0579992  79.1304990  51.8969997  94.5359992  78.3064990  50.3639997
  94.3849992  76.2144990  54.5209997  93.8879992  76.8814990  55.4409997
  94.1999992  74.8944990  54.4219997  94.5618031  74.3700275  53.6383371
  93.3859992  74.1904990  55.4099997  92.4319992  74.6924990  55.4799997
  93.1889992  72.7214990  54.9919997  94.1689992  72.2894990  54.6959997
  92.6069992  71.9124990  56.1399997  91.6420226  72.3302767  56.4270239
  92.4750514  70.8772616  55.8253987  93.2860390  71.9490851  56.9918612
  92.2949992  72.6364990  53.7659997  92.7529992  73.1894990  52.9189997
  91.3039992  73.0874990  53.9889997  92.1639992  71.5744990  53.4669997
  94.0129992  74.3034990  56.7949997  93.3209992  74.5654990  57.7889997
  95.3339992  74.1224990  56.8789997  95.8728390  73.8771006  56.0607511
  96.0239992  74.2104990  58.1599997  95.5119992  73.5704990  58.8639997
  97.4789992  73.7754990  58.0019997  97.5149992  72.6804990  57.8169997
  97.9462462  74.2988214  57.1677851  98.3269992  74.0484990  59.2089997
  98.0049992  73.5004990  60.4389997  97.1241513  72.8639900  60.5230424
  98.7839992  73.7514990  61.5509997  98.5182403  73.3152807  62.5139049
  99.9009992  74.5544990  61.4419997 100.5119992  74.7514990  62.3109997
 100.2339992  75.1054990  60.2219997 101.1069992  75.7354990  60.1349997
  99.4509992  74.8514990  59.1139997  99.7149187  75.2847163  58.1492359
  95.9489992  75.6174990  58.7369997  95.7899992  75.7854990  59.9469997
  96.0789992  76.6404990  57.8909997  96.2793682  76.4859044  56.9132205
  96.0009992  78.0154990  58.3719997  96.6769992  78.1194990  59.2069997
  96.3789992  78.9844990  57.2539997  96.0179992  78.5564990  56.2959997
  95.8328128  79.9119050  57.4263321  97.8689992  79.2924990  57.0959997
  98.3819992  78.4114990  56.6559997  98.0749992  80.4974990  56.1929997
  97.5798501  81.3662105  56.6268965  99.1414696  80.6997082  56.0937365
  97.6516277  80.2920187  55.2098238  98.5209992  79.5174990  58.4499997
  98.4109636  78.6210925  59.0602840  99.5801858  79.7348298  58.3121864
  98.0402030  80.3581998  58.9501557  94.6129992  78.3324990  58.9109997
  94.4839992  78.9704990  59.9629997  93.5639992  77.8954990  58.2109997
  93.6750757  77.4601876  57.3064194  92.2099992  78.1254990  58.7069997
  92.1139992  79.1744990  58.9449997  91.1719992  77.7194990  57.6469997
  91.3849992  76.6854990  57.2989997  89.7699992  77.7774990  58.2279997
  89.5564385  78.7927130  58.5624145  89.0476658  77.4873327  57.4650197
  89.6982363  77.0941372  59.0741489  91.2809992  78.6224990  56.4299997
  92.2959992  78.5424990  55.9849997  91.1059992  79.6784990  56.7259997
  90.5339992  78.3194990  55.6659997  91.9909992  77.3864990  60.0229997
  91.4479992  77.9464990  60.9869997  92.4239992  76.1244990  60.0939997
  92.8307476  75.6646102  59.2920287  92.2549992  75.3534990  61.3219997
  91.2139992  75.3964990  61.6059997  92.6879992  73.9064990  61.0959997
  93.4319992  73.8654990  60.2719997  93.1397144  73.5288120  62.0132815
  91.5809992  73.0944990  60.7459997  91.8770171  72.1915748  60.6092474
  93.0319992  75.9734990  62.4759997  92.5549992  75.9914990  63.6149997
  94.2349992  76.4774990  62.2029997  94.6411091  76.3758209  61.2838502
  95.0249992  77.1304990  63.2389997  95.0729992  76.4704990  64.0929997
  96.4289992  77.4334990  62.7189997  96.9142488  76.5046832  62.4191094
  96.9309992  76.4894990  62.4159997  97.0249992  77.9374990  63.5089997
  94.3419992  78.4014990  63.7199997  94.2059992  78.6234990  64.9249997
  93.8799992  79.2384990  62.7889997  94.0458395  79.0805973  61.8053008
  93.1719992  80.4504990  63.1849997  93.8199992  81.0234990  63.8319997
  92.7989992  81.2644990  61.9449997  93.7419992  81.5094990  61.4139997
  92.2198468  80.6005694  61.3032210  92.0349992  82.5754990  62.1439997
  90.9869992  82.3484990  62.4359997  92.6849992  83.4244990  63.2249997
  93.7102731  83.6573289  62.9374193  92.1232584  84.3505709  63.3472241
  92.6881009  82.8750919  64.1664043  91.9439992  83.3444990  60.8359997
  91.4214707  82.7403541  60.0943311  91.3974209  84.2736315  60.9974498
  92.9477583  83.5717364  60.4769315  91.9329992  80.1244990  64.0049997
  91.5399992  80.9074990  64.8779997  91.3109992  78.9714990  63.7519997
  91.6229393  78.3549824  63.0153178  90.1099992  78.6064990  64.4979997
  89.5419992  79.5054990  64.6849997  89.2809992  77.6064990  63.6909997
  88.7619992  78.1354990  62.8639997  89.9494433  76.8523341  63.2756468
  88.3089992  76.9774990  64.5069997  87.8022784  76.3557102  63.9795411
  90.4349992  78.0344990  65.8769997  89.7169992  78.3044990  66.8469997
  91.5079992  77.2464990  65.9909997  92.1727953  77.1763510  65.2338836
  91.7179992  76.4194990  67.1749997  90.8759992  76.5594990  67.8369997
  91.8439992  74.9434990  66.7709997  92.6019992  74.8744990  65.9629997
  92.2290689  74.3978114  67.6324209  90.5639992  74.2714990  66.2729997
  90.1139992  74.8894990  65.4669997  90.8589992  72.8814990  65.7339997
  91.2923417  72.2690430  66.5247024  89.9338492  72.4225276  65.3853689
  91.5626897  72.9545691  64.9047947  89.5289992  74.2084990  67.3819997
  89.2910548  75.2185997  67.7154340  88.6249543  73.7271316  67.0090526
  89.9268712  73.6344720  68.2188329  92.9289992  76.7894990  68.0239997
  93.0939992  76.2104990  69.1009997  93.7799992  77.7224990  67.5779997
  93.6265406  78.1732474  66.6872833  94.9479992  78.0974990  68.3439997
  95.5359992  77.2024990  68.4869997  95.5056721  78.8125463  67.7391794
  94.6749992  78.7074990  69.6999997  95.3609992  78.3644990  70.6719997
  93.7079992  79.6234990  69.8179997  93.1069992  80.4424990  68.7489997
  93.6316230  79.7518014  69.4091564  92.3847769  79.8910852  68.1469725
  92.4779992  81.5864990  69.4929997  93.1719992  82.4524990  69.5309997
  92.8911051  80.7950190  68.8676962  92.1979992  81.0894990  70.8569997
  91.2259992  80.5534990  70.8929997  92.1719523  81.8862387  71.6003885
  93.3609992  80.1344990  71.1539997  94.2179992  80.5954990  71.6179997
  92.9639992  79.0464990  72.1359997  93.1809992  79.2014990  73.3439997
  92.3869992  77.9474990  71.6549997  92.1533664  77.8786165  70.6748108
  92.0149992  76.8454990  72.5329997  91.8559992  77.2424990  73.5239997
  90.7429992  76.1724990  72.0139997  90.8939992  75.8674990  70.9569997
  90.5068150  75.3021525  72.6262202  89.5389992  77.0634990  72.0529997
  88.8699992  77.2934990  73.2419997  89.2243726  76.8129587  74.1539210
  87.7669992  78.1194990  73.2819997  87.2449944  78.2877415  74.2239689
  87.3249992  78.7334990  72.1299997  86.4609992  79.3814990  72.1589997
  87.9869992  78.5184990  70.9399997  87.6419992  78.9984990  70.0359997
  89.0889992  77.6914990  70.9049997  89.6163368  77.5256731  69.9655760
  93.1249992  75.8154990  72.6839997  93.1859992  75.1294990  73.7099997
  94.0009992  75.6854990  71.6849997  93.8691926  76.1640819  70.8054062
  95.1419992  74.7864990  71.8189997  94.7899992  73.8564990  72.2419997
  95.7829992  74.5424990  70.4529997  95.0399992  74.0154990  69.8199997
  95.9681385  75.5175983  70.0024391  97.0749992  73.7204990  70.4389997
  97.8709992  74.2804990  70.9739997  96.8689992  72.3744990  71.1129997
  96.0944662  71.8180445  70.5852158  97.8009696  71.8096910  71.0901086
  96.5635638  72.5287520  72.1478985  97.5749992  73.5374990  69.0159997
  97.7718909  74.5129632  68.5712496  98.4937601  72.9510822  69.0257536
  96.8185632  73.0169788  68.4286648  96.1649992  75.3374990  72.8029997
  96.7399992  74.5844990  73.5969997  96.4059992  76.6514990  72.7649997
  95.9586459  77.2390964  72.0760123  97.3679992  77.2624990  73.6749997
  98.2909992  76.7044990  73.6149997  97.6009992  78.7234990  73.2889997
  97.9571709  78.7756562  72.2601550  97.9909992  78.7824990  72.2499997
  98.3289992  79.1874990  73.9889997  96.9259992  77.1744990  75.1279997
  97.7699992  77.2444990  76.0279997  95.6279992  77.0244990  75.3789997
  94.9734924  77.0428738  74.6099857  95.1019992  76.8914990  76.7299997
  95.8099992  77.3374990  77.4129997  93.7419992  77.5884990  76.8369997
  93.0449992  77.0694990  76.1469997  93.3935125  77.4283282  77.8572949
  93.6869992  79.0824990  76.5079997  93.6579992  79.2174990  75.4059997
  92.4549992  79.7084990  77.1259997  92.4868226  79.5825950  78.2082354
  92.4270007  80.7711609  76.8850300  91.5628261  79.2231243  76.7303497
  94.9409992  79.7954990  76.9889997  95.8148927  79.3634236  76.5014337
  94.8745134  80.8550559  76.7419773  95.0337616  79.6798358  78.0688682
  94.9659992  75.4404990  77.1709997  94.4549992  75.1914990  78.2679997
  95.4109992  74.4884990  76.3489997  95.7996888  74.7632344  75.4581909
  95.2829992  73.0604990  76.6389997  95.5549992  72.5144990  75.7479997
  96.1869992  72.6514990  77.8059997  95.9649992  73.3004990  78.6789997
  95.9755063  71.6127934  78.0598924  97.6609992  72.7784990  77.4729997
  98.1019992  72.3884990  76.3919997  98.4319992  73.3294990  78.4039997
  99.4218334  73.4390329  78.2356830  98.0247932  73.6363456  79.2758535
  93.8269992  72.6874990  76.9139997  93.5139992  71.9314990  77.8359997
  92.9279992  73.2324990  76.0939997  93.2432002  73.8490710  75.3587537
  91.4949992  73.0244990  76.2539997  91.3379992  72.4254990  77.1379997
  90.7799992  74.3734990  76.3869997  91.1549992  75.0504990  75.5909997
  89.7171825  74.1860657  76.2340636  90.9859992  75.0484990  77.7299997
  90.8529992  74.2964990  78.5369997  92.0007967  75.4442791  77.7705727
  90.0139992  76.1844990  77.9659997  89.7389992  76.5544990  79.1069997
  89.4819992  76.7434990  76.8859997  88.8329992  77.4974990  76.9809997
  89.7309992  76.4094990  75.9769997  90.8899992  72.2274990  75.1069997
  89.6609992  72.0974990  75.0379997  91.7139992  71.7014990  74.2029997
  92.7055418  71.8917861  74.2300844  91.1889992  70.9194990  73.0859997
  90.4719992  71.5274990  72.5539997  92.3359992  70.5034990  72.1559997
  93.2089992  70.2404990  72.7889997  92.0220144  69.6002543  71.6328718
  92.7909992  71.5494990  71.1379997  93.3599992  72.3484990  71.6609997
  93.6749992  70.9144990  70.0789997  93.1176653  70.1351219  69.5593372
  93.9888695  71.6745354  69.3635062  94.5538692  70.4774099  70.5529629
  91.5949992  72.2324990  70.4979997  91.0024967  72.7259451  71.2684224
  91.9415895  72.9728851  69.7770248  90.9813084  71.4895601  69.9885643
  90.3759992  69.7024990  73.5159997  89.3389992  69.4404990  72.8799997
  90.7799992  68.9064990  74.5179997  92.0839992  68.8524990  75.2039997
  91.1840760  69.0405308  74.6184379  92.2068404  69.6429525  75.9443997
  92.0949992  67.4854990  75.8199997  92.5299992  66.7424990  75.1169997
  92.1950248  68.4922539  75.4143635  90.6799992  67.1684990  76.1009997
  90.3579992  67.6154990  77.0659997  90.4908522  66.0959211  76.1445853
  89.9129992  67.7874990  74.9269997  89.7409992  67.1204990  74.0969997
  88.5149992  68.2204990  75.3309997  87.5389992  67.5614990  74.9589997
  88.3869992  69.3304990  76.0629997  89.1968407  69.8305266  76.4009768
  87.0639992  69.8144990  76.4479997  86.5189992  68.9934990  76.8899997
  87.2009992  70.9634990  77.4459997  87.6229992  70.5594990  78.3899997
  87.9011488  71.6744037  77.0072458  85.8979992  71.6714990  77.7699997
  86.1099992  72.5284990  78.4439997  85.4648109  72.0354738  76.8383494
  84.8929992  70.7634990  78.4489997  85.0819992  70.3574990  79.5949997
  83.8149992  70.4434990  77.7449997  83.7679992  70.6704990  76.7719997
  83.0499992  69.9744990  78.1859997  86.2589992  70.2544990  75.2319997
  85.0629992  69.9524990  75.1259997  86.9029992  70.9604990  74.2999997
  87.8673202  71.2303828  74.4317080  86.2079992  71.4354990  73.1069997
  85.3269992  71.9734990  73.4239997  87.1289992  72.3534990  72.2819997
  88.1769992  71.9944990  72.3669997  86.7169992  72.3554990  70.8169997
  85.6917242  72.7146179  70.7278609  87.3811717  73.0105115  70.2531433
  86.7825886  71.3427996  70.4192061  87.1169992  73.7614990  72.8459997
  87.4729992  73.7544990  73.8989997  86.0839992  74.1694990  72.8249997
  87.7889992  74.4144990  72.2489997  85.7029992  70.2574990  72.2849997
  84.5549992  70.2434990  71.8299997  86.5499992  69.2434990  72.0949997
  87.4998650  69.2788110  72.4364779  86.1399992  68.0844990  71.3099997
  85.6419992  68.4394990  70.4209997  87.3579992  67.2414990  70.9379997
  88.0139992  67.1324990  71.8279997  87.0526890  66.2529671  70.5949392
  88.1909992  67.8384990  69.8409997  87.5909992  68.4594990  68.7589997
  86.5031339  68.5103676  68.7135983  88.3499992  69.0094990  67.7469997
  87.8633701  69.4953520  66.9012812  89.7259992  68.9454990  67.8069997
  90.3219992  69.3754990  67.0159997  90.3399992  68.3294990  68.8789997
  91.4179992  68.2774990  68.9279997  89.5739992  67.7804990  69.8889997
  90.0571082  67.2939499  70.7363341  85.1029992  67.2394990  72.0399997
  84.2519992  66.6184990  71.3939997  85.1579992  67.1934990  73.3729997
  85.9291876  67.5998867  73.8831142  84.1229992  66.4934990  74.1259997
  84.0089992  65.5064990  73.7039997  84.5169992  66.4034990  75.5989997
  85.1039992  65.4754990  75.7699997  85.1273227  67.2707933  75.8508046
  83.3719992  66.3744990  76.4319997  83.6457872  66.3179365  77.3503899
  82.7749992  67.1844990  73.9749997  81.7369992  66.5214990  73.8679997
  82.7699992  68.5174990  73.9679997  83.6146963  69.0501294  74.1192976
  81.5129992  69.2424990  73.8159997  80.7569992  68.7324990  74.3949997
  81.6759992  70.6824990  74.3019997  82.4159992  70.6934990  75.1299997
  82.0621100  71.2600370  73.4620780  80.3869992  71.3114990  74.7979997
  79.8469992  71.7614990  73.9379997  79.7765035  70.5259172  75.2432617
  80.6579992  72.3894990  75.8329997  81.7180883  72.6422857  75.8127728
  80.0694875  73.2733713  75.5869853  80.3069992  71.9544990  77.1799997
  80.2439992  70.9714990  77.3519997  80.0659992  72.7764990  78.1909997
  80.1269992  74.0904990  78.0429997  79.7979992  74.6914990  78.7719997
  80.5019992  74.4824990  77.2029997  79.7559992  72.2684990  79.3799997
  79.7079992  71.2774990  79.5029997  79.5719992  72.8774990  80.1509997
  81.0119992  69.2134990  72.3749997  79.7989992  69.2524990  72.1389997
  81.9239992  69.1484990  71.4029997  82.9114586  69.1418268  71.6150819
  81.5169992  69.1564990  69.9999997  80.7559992  69.9114990  69.8739997
  82.7189992  69.4554990  69.1019997  83.5669992  68.8374990  69.4629997
  82.4559298  69.1090754  68.1025572  83.2029992  70.9044990  69.0279997
  83.9499992  71.0844990  69.8299997  83.8369992  71.1864990  67.6759997
  83.1031210  71.0183326  66.8878108  84.1754005  72.2220712  67.6417143
  84.6878681  70.5216478  67.5273543  82.0649992  71.8734990  69.2959997
  81.6589563  71.6916125  70.2910604  82.4367121  72.8964739  69.2372357
  81.2812929  71.7289629  68.5523515  80.8649992  67.8404990  69.5949997
  79.9109992  67.8324990  68.8079997  81.3579992  66.7154990  70.1179997
  82.1288931  66.7823979  70.7671118  80.8699992  65.3854990  69.7559997
  79.9989992  65.5134990  69.1309997  81.9339992  64.5774990  69.0159997
  82.7069992  64.2424990  69.7399997  81.4937768  63.7006181  68.5412532
  82.6409992  65.3414990  67.9349997  82.0589992  65.5054990  66.6909997
  81.0747313  65.0762526  66.5037458  82.7089992  66.2024990  65.6929997
  82.2393794  66.3252357  64.7170419  83.9539992  66.7444990  65.9319997
  84.4649992  67.2914990  65.1529997  84.5469992  66.5874990  67.1659997
  85.5229992  67.0104990  67.3559997  83.8929992  65.8874990  68.1609997
  84.3620220  65.7608839  69.1367487  80.4259992  64.6554990  71.0179997
  81.1549992  63.7974990  71.5409997  79.2389992  64.9644990  71.5359997
  78.2929992  65.9974990  71.0929997  79.0708317  65.2482850  71.2404963
  77.6065715  65.6598323  70.3165351  77.5899992  66.3494990  72.3589997
  78.0969992  67.2054990  72.8529997  78.0543825  66.1419130  71.3949677
  77.6339992  65.1234990  73.2579997  76.6489992  64.6104990  73.2629997
  77.8655442  65.3585492  74.2968634  78.7169992  64.2014990  72.6749997
  79.5139992  63.9564990  73.3589997  78.1379992  62.8694990  72.2319997
  77.0709992  62.8274990  71.6109997  78.8299992  61.7764990  72.5429997
  79.7165856  61.8673058  73.0182029  78.3879992  60.4394990  72.1499997
  77.6969992  60.5394990  71.3269997  79.5919992  59.5994990  71.7399997
  80.4569992  59.8584990  72.3879997  79.3736537  58.5365159  71.8424314
  80.0219992  59.8144990  70.3179997  79.2649992  59.3214990  69.2699997
  78.3496315  58.7716260  69.4887264  79.6559992  59.5184990  67.9599997
  79.0489873  59.1275818  67.1434086  80.8159992  60.2124990  67.6859997
  81.1249992  60.3664990  66.6619997  81.5819992  60.7084990  68.7199997
  82.4909992  61.2514990  68.5079997  81.1839992  60.5094990  70.0289997
  81.7874449  60.9015184  70.8477023  77.5979992  59.7504990  73.2509997
  77.4359992  58.5264990  73.2409997  77.0519992  60.5484990  74.1669997
  77.1821311  61.5495374  74.1340283  76.2449992  59.9804990  75.2739997
  76.3649992  58.9074990  75.2669997  76.7239992  60.5674990  76.6039997
  76.0379992  60.2204990  77.4059997  77.7221674  60.1691389  76.7858503
  76.7709992  62.0894990  76.6389997  76.5219992  62.4724990  75.6269997
  76.0134746  62.4100835  77.3541808  78.1269992  62.6524990  77.0489997
  78.0420592  63.7378333  77.1031623  78.3561759  62.2566857  78.0383982
  79.2219992  62.2854990  76.0999997  79.8559992  61.4904990  76.5479997
  78.4449130  62.5912187  76.8005506  80.0869992  63.4304990  75.7999997
  80.5199992  63.7784990  76.6799997  79.5209992  64.1884990  75.3689997
  80.8339992  63.1374990  75.1389997  74.7699992  60.3224990  75.0449997
  73.9189992  59.7834990  75.7829997  74.4829992  61.1744990  74.0599997
  75.2165984  61.5766555  73.4941360  73.0849992  61.6234990  73.8249997
  72.7199992  62.0904990  74.7269997  73.0659992  62.6144990  72.6569997
  73.1999992  62.0544990  71.7069997  72.0943957  63.1084172  72.6455389
  74.1649992  63.6604990  72.7729997  74.2209992  64.0034990  73.8279997
  75.1021210  63.1801128  72.4916918  73.9249992  64.8624990  71.8789997
  74.6841216  64.8805772  71.0970116  72.9381378  64.7742243  71.4246744
  73.9879992  66.1234990  72.6239997  74.4049992  66.1074990  73.5319997
  73.5289992  67.2834990  72.1759997  74.2889992  68.3624990  72.2329997
  75.2119992  68.3034990  72.6139997  73.9419992  69.2364990  71.8949997
  72.3099992  67.3614990  71.6729997  71.7329992  66.5454990  71.6299997
  71.9629992  68.2374990  71.3349997  72.1759992  60.4084990  73.5809997
  71.2849992  60.1614990  74.4209997  72.3859992  59.6884990  72.4749997
  73.1358318  59.9223542  71.8400491  71.5239992  58.5354990  72.1459997
  71.8369992  57.6954990  72.7479997  70.4861517  58.7752752  72.3772552
  71.6309992  58.1744990  70.6819997  72.0549992  59.0434990  69.8959997
  71.2699992  56.9424990  70.3129997  71.0460436  56.2056521  70.9664520
  71.2679992  56.6274990  68.8869997  72.2649992  56.7904990  68.5039997
  70.8439992  55.1734990  68.6719997  71.5949992  54.5194990  69.1619997
  69.8920647  55.0224823  69.1810327  70.7149992  54.7394990  67.2109997
  70.1249992  55.4964990  66.6529997  72.0809992  54.5974990  66.5709997
  72.6595423  53.8478105  67.1107718  71.9657226  54.2881229  65.5322030
  72.6018243  55.5542648  66.6089576  69.9379992  53.4374990  67.1109997
  68.9408695  53.5758215  67.5289693  69.8552116  53.1426124  66.0649168
  70.4597557  52.6587670  67.6672782  70.3609992  57.5724990  68.1089997
  70.7029992  58.0144990  67.0069997  69.1959992  57.8884990  68.6649997
  68.9545617  57.4899773  69.5610955  68.2289992  58.7574990  68.0139997
  68.7309992  59.2594990  67.2009997  67.0289992  57.9614990  67.4819997
  66.2599992  57.9294990  68.2809997  66.6101241  58.4567364  66.6059954
  67.4069992  56.2714990  66.9689997  66.1686592  55.9584731  66.5982881
  67.7449992  59.8254990  68.9839997  67.7859992  59.6454990  70.2049997
  67.2869992  60.9434990  68.4269997  67.3603956  61.0774714  67.4286191
  66.7279992  62.0194990  69.2269997  67.3659992  62.1674990  70.0859997
  66.6399992  63.3014990  68.4019997  67.3149992  63.2054990  67.5249997
  65.6219618  63.4604174  68.0464091  67.0269992  64.5334990  69.1559997
  68.2569992  64.6844990  69.7579997  68.3159992  65.8634990  70.3479997
  69.2134151  66.1715457  70.8845172  67.1689992  66.4864990  70.1489997
  66.9272540  67.4084668  70.4831170  66.3439992  65.6754990  69.4069997
  65.3436473  66.0151181  69.1385673  65.3529992  61.6204990  69.7599997
  64.8819992  60.4944990  69.5749997  64.7009992  62.5644990  70.4449997
  65.1528577  63.4286559  70.7079751  63.3289992  62.3394990  70.8859997
  63.3109992  61.4414990  71.4849997  62.8369992  63.5354990  71.7019997
  63.4793878  63.6713555  72.5720456  63.4879992  63.6804990  72.5899997
  61.7889992  63.3634990  72.0299997  62.4179992  62.0864990  69.6929997
  61.5739992  61.1834990  69.7179997  62.5759992  62.8794990  68.6389997
  63.1259401  63.7220370  68.7272840  61.9439992  62.5984990  67.3569997
  61.0459992  62.0284990  67.5439997  61.6069992  63.8994990  66.6329997
  60.9369992  64.5074990  67.2769997  62.5547322  64.4150422  66.4777015
  60.9009992  63.7284990  65.3019997  60.2479992  62.5464990  64.9769997
  60.2456028  61.7312525  65.7005098  59.6089992  62.3934990  63.7619997
  59.0991382  61.4610046  63.5199296  59.6209992  63.4264990  62.8539997
  58.9869992  63.2804990  61.6429997  59.0999992  64.0954990  61.1479997
  60.2629992  64.6084990  63.1519997  60.2679992  65.4184990  62.4369997
  60.8979992  64.7534990  64.3669997  61.4102087  65.6853775  64.6064654
  62.8859992  61.7394990  66.5229997  63.9809992  62.1834990  66.1599997
  62.4659992  60.5104990  66.2289997  61.6002233  60.1583080  66.6117436
  63.2589992  59.6254990  65.3849997  64.2379992  59.5314990  65.8289997
  62.5989992  58.2524990  65.2619997  61.5539992  58.3934990  64.9139997
  63.1284788  57.6394696  64.5326531  62.5619992  57.4694990  66.5309997
  63.1229992  57.8104990  67.7249997  63.6590020  58.7587935  67.7642207
  62.8759992  56.8354990  68.6589997  63.1819312  56.8508689  69.6214283
  62.1449992  55.8354990  68.0719997  61.6589992  54.6474990  68.6079997
  61.8249992  54.3684990  69.6379997  60.9489992  53.8254990  67.7769997
  60.5589992  52.8954990  68.1609997  60.7189992  54.1624990  66.4379997
  60.1539992  53.4894990  65.8109997  61.2009992  55.3414990  65.9059997
  61.0089992  55.5774990  64.8689997  61.9299992  56.2014990  66.7309997
  63.4399992  60.2374990  64.0039997  62.4629992  60.4244990  63.2719997
  64.6759992  60.5584990  63.6449997  65.4493097  60.4908969  64.2911578
  64.9379992  61.0604990  62.3079997  64.2869992  61.9044990  62.1349997
  66.3999992  61.4814990  62.1649997  66.6202568  62.2785163  62.8751756
  66.6379992  62.2774990  62.9019997  66.5869992  61.8564990  61.1359997
  64.5939992  59.9844990  61.2819997  64.8629992  58.7994990  61.5119997
  63.9959992  60.3504990  60.1529997  63.6239992  61.7104990  59.7289997
  63.9010274  60.7744879  60.2140140  64.4351743  62.4301861  59.8392018
  63.2189992  61.5194990  58.2959997  62.4299992  62.2484990  58.0129997
  63.5893991  61.7342081  59.2983994  62.7019992  60.1284990  58.2079997
  62.7939992  59.7364990  57.1729997  61.6561399  60.0372170  58.5011644
  63.5869992  59.3354990  59.1749997  63.0939992  58.5124990  59.6679997
  64.7609992  58.6954990  58.4519997  64.8629992  58.7764990  57.2239997
  65.6489992  58.0554990  59.2039997  65.5512289  58.1065599  60.2079584
  66.8029992  57.3624990  58.6589997  66.8309992  57.5394990  57.5939997
  68.0859992  57.8754990  59.3199997  68.9429992  57.2654990  58.9629997
  68.2336981  58.9149730  59.0271193  68.0399992  57.8004990  60.8329997
  67.1629992  57.1624990  61.4139997  68.9919992  58.4594990  61.4829997
  69.0122540  58.4456884  62.4927020  69.6915026  58.9715438  60.9647277
  66.6239992  55.8544990  58.8239997  65.5659992  55.3744990  59.2439997
  67.6719992  55.1014990  58.4779997  68.5118233  55.5212787  58.1057365
  67.6059992  53.6474990  58.5649997  66.7349992  53.3154990  58.0199997
  68.8739992  53.0354990  57.9719997  68.8989992  53.2334990  56.8789997
  69.7589330  53.4689649  58.4379390  68.9759992  51.5504990  58.1559997
  68.0929992  50.6984990  57.5169997  67.3175329  51.1178183  56.8759669
  68.1859992  49.3304990  57.6839997  67.4838907  48.6694176  57.1759487
  69.1679992  48.8014990  58.4939997  69.2429992  47.7324990  58.6259997
  70.0549992  49.6404990  59.1359997  70.8249992  49.2284990  59.7719997
  69.9569992  51.0064990  58.9649997  70.6581209  51.6707023  59.4703335
  67.4049992  53.1734990  59.9979997  66.7989992  52.1184990  60.2259997
  67.8999992  53.9344990  60.9759997  68.4394313  54.7646324  60.7760227
  67.7359992  53.5354990  62.3689997  68.0239992  52.4984990  62.4599997
  68.6039992  54.4104990  63.2719997  68.2489992  55.4604990  63.2019997
  68.5360504  54.0806310  64.3086626  70.0579992  54.3784990  62.9059997
  70.8699992  55.4524990  62.6969997  70.4193665  56.4389702  62.8061068
  72.1369992  55.0324990  62.3799997  72.9199936  55.6361385  62.1735083
  72.1679992  53.6634990  62.3849997  73.2179992  52.7874990  62.1269997
  74.2089992  53.1344990  61.8729997  72.9559992  51.4474990  62.2049997
  73.7509992  50.7424990  62.0129997  71.6829992  50.9714990  62.5289997
  71.5129992  49.9054990  62.5799997  70.6379992  51.8374990  62.7859997
  69.6649992  51.4424990  63.0359997  70.8749992  53.2144990  62.7129997
  66.2789992  53.5914990  62.8049997  65.8769992  52.8494990  63.7069997
  65.4699992  54.4514990  62.1809997  65.8278216  55.1498320  61.5450803
  64.0379992  54.4404990  62.4619997  63.9049992  54.5194990  63.5299997
  63.3529992  55.6054990  61.7509997  63.7883379  56.5454438  62.0902399
  63.7869992  56.5684990  62.0979997  62.2629992  55.5894990  61.9619997
  63.4109992  53.1144990  62.0499997  62.6099992  52.5374990  62.7949997
  63.7759992  52.6104990  60.8689997  64.3505667  53.1401531  60.2291262
  63.2969992  51.2974990  60.4449997  62.2229992  51.2794990  60.5549997
  63.6899992  51.0394990  58.9919997  64.7979992  51.0384990  58.9329997
  63.3414572  50.0395916  58.7335353  63.1649992  52.0424990  57.9659997
  63.2819992  53.0724990  58.3649997  63.9299992  51.9194990  56.6599997
  63.8106621  50.9118274  56.2619350  63.5420135  52.6416791  55.9416518
  64.9872142  52.1165759  56.8376444  61.6799992  51.8344990  57.7419997
  61.1470192  51.9747854  58.6823993  61.3181420  52.5553609  57.0088431
  61.5057018  50.8235994  57.3734871  63.8379992  50.1994990  61.3489997
  63.1379992  49.2234990  61.6419997  65.0889992  50.3384990  61.7929997
  65.6751716  51.0917997  61.4627887  65.6629992  49.3724990  62.7269997
  65.6109992  48.3924990  62.2769997  67.1149992  49.7524990  63.0219997
  67.5939992  50.1014990  62.0829997  67.0626836  50.5543426  63.7584845
  67.9699992  48.6304990  63.5599997  68.3659992  47.5804990  62.7459997
  68.0451114  47.5710214  61.7043468  69.1539992  46.5574990  63.2349997
  69.4597876  45.7371650  62.5856557  69.5539992  46.5784990  64.5529997
  70.3369992  45.5614990  65.0459997  70.5139992  45.7444990  65.9719997
  69.1749992  47.6104990  65.3799997  69.4919992  47.6234990  66.4129997
  68.3899992  48.6294990  64.8829997  68.0879477  49.4511134  65.5324723
  64.8499992  49.3074990  64.0149997  64.5089992  48.2214990  64.4999997
  64.5159992  50.4724990  64.5739997  64.8399685  51.3444004  64.1803866
  63.7339992  50.5174990  65.8049997  64.1909992  49.8494990  66.5199997
  63.6999992  51.9434990  66.3509997  63.3279992  52.6254990  65.5579997
  63.0215603  51.9728611  67.2036183  65.0639992  52.4244990  66.8009997
  65.9189992  51.6284990  67.1849997  65.2749992  53.7354990  66.7549997
  66.1671660  54.1107459  67.0436654  64.5422557  54.3507918  66.4315767
  62.3209992  49.9914990  65.5859997  61.7649992  49.3174990  66.4609997
  61.7179992  50.2954990  64.4329997  62.1449809  50.9205342  63.7643317
  60.3849992  49.7764990  64.1419997  59.7389992  50.0214990  64.9719997
  59.8519992  50.3934990  62.8499997  59.8151016  51.4780047  62.9528873
  59.8009992  51.4984990  62.9519997  58.8409992  49.9914990  62.6279997
  60.3929992  48.2554990  64.0459997  59.4929992  47.5854990  64.5699997
  61.4039992  47.6934990  63.3799997  62.0771444  48.2598400  62.8837813
  61.5259992  46.2434990  63.2969997  60.5889992  45.8454990  62.9359997
  62.6659992  45.8674990  62.3509997  62.3879992  46.2114990  61.3329997
  63.5453884  46.4341190  62.6571313  63.0219992  44.3834990  62.2619997
  63.3419992  44.0214990  63.2619997  61.8249992  43.5694990  61.7919997
  61.5135623  43.9161284  60.8066297  62.1005826  42.5164106  61.7357895
  61.0023521  43.6921502  62.4964915  64.2179992  44.1674990  61.3449997
  65.0782472  44.7117599  61.7346828  64.4526266  43.1041151  61.2973976
  63.9806001  44.5317607  60.3454728  61.7459992  45.6314990  64.6749997
  61.1839992  44.5754990  64.9909997  62.5629992  46.2814990  65.5089997
  63.0899320  47.0867642  65.2024234  62.7829992  45.7854990  66.8639997
  63.0809992  44.7494990  66.8049997  63.8789992  46.6304990  67.5339997
  64.8599992  46.3434990  67.1009997  63.7024769  47.6782072  67.2905919
  63.9659992  46.4664990  69.0639997  62.9629992  46.2894990  69.7819997
  65.1029992  46.5754990  69.5709997  61.4759992  45.7924990  67.6499997
  61.1679992  44.8304990  68.3619997  60.6909992  46.8644990  67.5259997
  60.9877056  47.6592652  66.9779017  59.4099992  46.9434990  68.2229997
  59.5869992  46.7674990  69.2739997  58.7829992  48.3214990  68.0079997
  58.9519992  48.6204990  66.9519997  57.7139733  48.2066928  68.1871731
  59.3319992  49.4154990  68.9069997  60.3289992  49.7294990  68.5289997
  58.6430523  50.2592448  68.8676659  59.4719992  48.9434990  70.3429997
  58.4887335  48.6697065  70.7255244  60.1206527  48.0675393  70.3495353
  60.0739992  50.0254990  71.2229997  61.1809992  49.9334990  71.2259997
  59.6278177  49.2291996  70.6272408  59.6059992  49.9124990  72.6319997
  59.8819992  48.9864990  73.0159997  58.5709992  50.0054990  72.6609997
  60.0379992  50.6674990  73.2019997  58.4629992  45.8474990  67.7519997
  57.7749992  45.2144990  68.5619997  58.4109992  45.6134990  66.4389997
  58.9244387  46.1871422  65.7852316  57.5349992  44.5744990  65.9079997
  56.5429992  44.7374990  66.3009997  57.5179992  44.6284990  64.3689997
  58.5189992  44.9414990  64.0019997  57.1709992  43.2684990  63.7829997
  56.1856105  42.9618382  64.1338117  57.1652059  43.3319151  62.6948612
  57.9131542  42.5357246  64.0997795  56.5369992  45.6854990  63.8909997
  56.8309992  46.6834990  64.2799997  55.5159992  45.4474990  64.2589997
  56.5349992  45.7234990  62.7809997  57.9599992  43.2024990  66.4219997
  57.1179992  42.3864990  66.8239997  59.2669992  42.9304990  66.4289997
  59.9381626  43.5831445  66.0499313  59.7539992  41.6484990  66.9269997
  59.2089992  40.8624990  66.4269997  61.2509992  41.5174990  66.6549997
  61.7409992  42.4564990  66.9869997  61.6294042  40.7103825  67.2822738
  61.6579992  41.2664990  65.1999997  61.6209992  42.2234990  64.6379997
  63.0649992  40.6944990  65.1279997  63.1024368  39.7508645  65.6722893
  63.3352876  40.5232962  64.0860138  63.7673229  41.3987124  65.5740101
  60.6659992  40.3434990  64.5099997  59.6757492  40.7988473  64.5227336
  60.9773169  40.1808797  63.4781385  60.6328118  39.3881832  65.0338024
  59.4609992  41.4874990  68.4129997  59.1129992  40.3914990  68.8689997
  59.6009992  42.5654990  69.1869997  59.9677418  43.4288226  68.8124713
  59.2889992  42.5064990  70.6119997  59.8269992  41.6744990  71.0409997
  59.6959992  43.8144990  71.2909997  60.5549992  44.2624990  70.7479997
  58.8499369  44.5011408  71.2626873  60.0779992  43.5914990  72.6369997
  60.3285504  44.4255804  73.0408957  57.8099992  42.2194990  70.8349997
  57.4439992  41.4514990  71.7319997  56.9419992  42.8354990  70.0289997
  57.2561190  43.5340610  69.3706386  55.5059992  42.5754990  70.1319997
  55.2119992  42.7194990  71.1609997  54.7159992  43.5234990  69.2129997
  55.1929992  43.5454990  68.2099997  53.2749992  43.0574990  69.0739997
  52.8013183  43.0419975  70.0555734  52.7330201  43.7409510  68.4203541
  53.2564119  42.0550840  68.6463077  54.7659992  44.9424990  69.7519997
  55.8149992  45.2294990  69.9759997  54.1709992  45.0134990  70.6869997
  54.3589992  45.6484990  68.9959997  55.2129992  41.1134990  69.8089997
  54.4209992  40.4494990  70.4879997  55.8599992  40.5964990  68.7609997
  56.4508490  41.1762509  68.1823084  55.6669992  39.1974990  68.3739997
  54.6079992  39.0294990  68.2389997  56.4279992  38.8854990  67.0729997
  57.4659992  39.2734990  67.1529997  56.4699992  37.3874990  66.8199997
  55.4499992  36.9564990  66.9079997  57.1289992  36.8954990  67.5679997
  56.8519992  37.1874990  65.7959997  55.7869992  39.6094990  65.8859997
  56.1373394  40.6413523  65.9113209  56.1502136  39.1251623  64.9795821
  54.2729992  39.5904990  65.8959997  53.9090143  40.0751101  66.8019615
  53.8966538  40.1237684  65.0230237  53.9218885  38.5589192  65.8702250
  56.0979992  38.2734990  69.5069997  55.4089992  37.3044990  69.8469997
  57.2589992  38.5754990  70.0919997  57.7944025  39.3862739  69.8161616
  57.7929992  37.7174990  71.1639997  57.9659992  36.7324990  70.7549997
  58.7359344  38.1274530  71.5258151  56.8239992  37.6164990  72.3209997
  56.2789992  36.5164990  72.5459997  56.6159992  38.7234990  73.0349997
  57.1356648  39.5685830  72.8455795  55.6499992  38.7294990  74.1599997
  56.1219992  38.2704990  75.0159997  55.2469992  40.1684990  74.4769997
  54.8329992  40.6194990  73.5509997  54.4464823  40.1326054  75.2159072
  56.3699992  41.0784990  74.9849997  57.3299992  40.7714990  74.5189997
  56.0859992  42.5284990  74.6379997  55.1480847  42.8362724  75.1002665
  56.8962353  43.1566403  75.0082114  56.0094268  42.6354096  73.5559612
  56.5469992  40.9104990  76.4809997  56.8012233  39.8741116  76.7031948
  57.3481206  41.5630255  76.8281522  55.6191161  41.1733777  76.9889630
  54.4349992  37.8744990  73.7729997  54.0779992  36.9674990  74.5529997
  53.8199992  38.1664990  72.6249997  54.1503909  38.9195869  72.0386557
  52.5709992  37.4594990  72.2289997  51.8899992  37.4744990  73.0669997
  51.9569992  38.1704990  71.0179997  51.8069992  39.2364990  71.2909997
  52.7058696  38.0972168  70.2293788  50.6309992  37.6334990  70.5079997
  50.7719992  36.5794990  70.1869997  49.9277471  37.6747122  71.3397689
  50.0779992  38.4334990  69.3359997  49.9267142  39.4642105  69.6566952
  50.8188982  38.4071774  68.5369531  48.7869992  37.8734990  68.8359997
  48.9379992  36.8294990  68.4869997  49.7322213  38.3011584  69.1703078
  48.2699992  38.6534990  67.7089997  48.9589992  38.6384990  66.9309997
  48.1089992  39.6354990  68.0109997  47.3719992  38.2404990  67.3839997
  52.8539992  35.9704990  71.9669997  51.9699992  35.1404990  72.2519997
  54.0379992  35.6504990  71.4409997  54.7003089  36.3657256  71.1766209
  54.3899992  34.2324990  71.1759997  53.4779992  33.6924990  70.9709997
  55.3429992  34.1384990  69.9879997  55.6519992  35.1684990  69.7129997
  56.2441904  33.6148281  70.3069407  54.7779992  33.4644990  68.7359997
  53.8199992  33.9524990  68.4589997  55.7439992  33.5674990  67.5699997
  56.6832800  33.0802112  67.8315359  55.3128989  33.0790648  66.6961087
  55.9305940  34.6173023  67.3437348  54.4159992  32.0164990  69.0139997
  53.6647080  31.9742239  69.8025894  54.0168709  31.5608083  68.1078298
  55.3061548  31.4734093  69.3314516  55.0109992  33.6274990  72.4419997
  55.6569992  32.5654990  72.3269997  54.8259992  34.2964990  73.5849997
  54.3475984  35.1859815  73.5777404  55.3739992  33.8004990  74.8769997
  55.3439992  34.6114990  75.5889997  54.5459992  32.6144990  75.3819997
  54.4599992  31.8714990  74.5609997  55.0977503  32.1732468  76.2120403
  53.1459992  32.9834990  75.8439997  52.5189992  33.1974990  74.9519997
  52.7426409  32.1243345  76.3799479  53.1349992  34.2014990  76.7569997
  53.0776578  33.8598954  77.7904976  54.0719268  34.7368880  76.6032965
  51.9869992  35.1144990  76.4699997  51.0419992  34.6584990  76.8349997
  52.8248799  34.4398518  76.6458015  51.8459992  35.3524990  75.0329997
  51.8499992  34.4424990  74.5279997  52.6379992  35.9374990  74.6989997
  50.9489992  35.8464990  74.8489997  56.8529992  33.4264990  74.6979997
  57.2609992  32.3654990  75.2119997  57.6169992  34.2704990  73.9999997
  57.2157814  35.0858014  73.5590853  59.0719992  34.0144990  73.8189997
  59.3199992  33.1034990  74.3439997  59.4049992  33.8804990  72.3329997
  58.9669992  34.7424990  71.7849997  60.4850861  33.8787429  72.1863389
  58.8739992  32.6174990  71.6719997  58.7219992  31.4414990  72.3969997
  58.9912628  31.4289925  73.4531439  58.2349992  30.2944990  71.7929997
  58.1151953  29.3824956  72.3778052  57.9019992  30.3044990  70.4589997
  57.5239992  29.4084990  69.9889997  58.0519992  31.4564990  69.7249997
  57.7919992  31.4644990  68.6769997  58.5349992  32.6084990  70.3249997
  58.6529207  33.5199177  69.7389021  59.8569992  35.1594990  74.4469997
  61.0689992  35.2834990  74.1689997  59.1879992  35.9964990  75.2419997
  58.2087441  35.8624899  75.4498465  59.8709992  37.1894990  75.8059997
  60.9379992  37.0394990  75.7319997  59.4429992  38.4254990  75.0199997
  58.4849992  38.1924990  74.5109997  59.2609589  39.2204393  75.7432086
  60.4339992  38.9164990  73.9609997  60.3779992  38.2574990  73.0689997
  60.1049992  40.3384990  73.5579997  60.1655395  40.9875258  74.4316116
  60.8162525  40.6769691  72.8045691  59.0960328  40.3761031  73.1473014
  61.8539992  38.8264990  74.4899997  62.0840076  37.7909084  74.7404947
  62.5492092  39.1784234  73.7278097  61.9498584  39.4454484  75.3820824
  59.5309992  37.3324990  77.2939997  58.3749992  37.6884990  77.6029997
  60.5049992  37.0724990  78.1709997  61.3910531  36.6946641  77.8672751
  60.2799992  37.2574990  79.6299997  59.5449992  36.5314990  79.9459997
  61.5659992  37.0764990  80.4189997  61.5769992  37.8204990  81.2439997
  61.5243103  36.0652137  80.8235540  62.8479992  37.2494990  79.6179997
  62.9609992  38.2684990  78.9039997  63.7219992  36.3644990  79.7149997
  59.6649992  38.6394990  79.8559997  60.3289992  39.6484990  79.5379997
  58.4349992  38.7364990  80.4029997  57.5419992  37.6064990  80.8079997
  58.2660345  38.3095754  80.3962271  58.0675030  36.8204476  81.3502801
  56.5009992  38.2784990  81.6449997  55.5369992  37.7284990  81.5849997
  57.2874344  37.7269167  81.1298511  56.3549992  39.6754990  81.0719997
  55.9369992  40.3774990  81.8259997  55.7124049  39.7654535  80.1961684
  57.7889992  40.0474990  80.7059997  57.8779992  40.7104990  79.8609997
  58.5389992  40.7504990  81.8299997  59.3849992  40.0874990  82.4709997
  58.2599992  42.0414990  82.0499997  57.6706856  42.5238914  81.3865946
  58.9329992  42.8454990  83.1159997  58.4759992  43.8244990  83.1239997
  58.8089992  42.2024990  84.4979997  58.3039992  42.9154990  85.1829997
  58.2087037  41.2987798  84.3929433  60.1429992  41.8284990  85.0969997
  60.7739992  42.6464990  85.7749997  60.5869992  40.5994990  84.8709997
  61.4752292  40.3084070  85.2536388  60.0348760  39.9602380  84.3172794
  60.3699992  43.1744990  82.6869997  60.7769992  44.3434990  82.8579997
  61.1059992  42.2004990  82.1449997  60.7633989  41.2507543  82.1183660
  62.4789992  42.4694990  81.6389997  63.0879992  42.7704990  82.4779997
  63.0759992  41.2364990  80.9719997  62.4289992  40.9334990  80.1209997
  64.0701949  41.4835445  80.5996509  63.1939992  40.0744990  81.9279997
  62.2979992  39.8484990  82.7479997  64.2859992  39.3294990  81.8419997
  64.4062955  38.5416718  82.4624486  64.9932330  39.5527560  81.1563777
  62.4139992  43.6634990  80.6819997  63.2529992  44.5794990  80.8159997
  61.5519992  43.3364990  79.8089997  61.0354017  42.4838273  79.6472055
  61.3819992  44.4614990  78.8419997  62.3249992  44.6204990  78.3409997
  60.2819992  44.1244990  77.8199997  59.3979992  44.7704990  78.0069997
  60.7779992  44.3484990  76.3909997  61.6569992  43.7004990  76.1869997
  61.0789992  45.4084990  76.2569997  59.9739992  44.0934990  75.6679997
  59.7449992  42.7054990  78.0189997  59.9790125  42.4149056  79.0431550
  58.6632754  42.7515428  77.8930913  60.3229992  41.6814990  77.0579997
  61.4047138  41.6345533  77.1836560  59.8907627  40.7027208  77.2660002
  60.0889784  41.9711921  76.0335915  61.0569992  45.7434990  79.6279997
  60.1049992  45.7144990  80.4359997  61.5959992  46.8494990  79.5239997
  62.7479992  46.9964990  78.5769997  61.9320710  46.7164189  79.2432703
  62.4947256  46.7149145  77.5549127  63.1169992  48.4434990  78.6959997
  64.2129992  48.5754990  78.5709997  62.8272946  47.4103999  78.5039610
  62.6869992  48.8774990  80.0859997  62.5449992  49.9774990  80.1419997
  63.3607661  48.6236533  80.9043518  61.3669992  48.1364990  80.2509997
  61.0839992  47.9444990  81.2729997  60.1959992  48.9034990  79.6459997
  59.5999992  48.4374990  78.6489997  59.8549992  50.0294990  80.2739997
  60.3318099  50.2875612  81.1261468  58.7739992  50.9154990  79.7769997
  57.9729992  50.2964990  79.4009997  58.2759992  51.8074990  80.9169997
  57.6509992  51.1874990  81.5939997  59.1634211  52.1464518  81.4515026
  57.4539992  53.0124990  80.4839997  57.6759992  53.2334990  79.4189997
  56.4029921  52.7449494  80.5931014  57.7509992  54.2534990  81.3169997
  57.1631330  55.0819304  80.9217610  57.4438283  54.0473194  82.3422974
  59.2039992  54.6174990  81.2949997  59.3739992  55.5094990  81.9349997
  58.1425375  54.3723584  81.2588846  59.6759992  54.9414990  79.9469997
  58.9499992  55.4944990  79.4479997  59.8619992  54.0624990  79.4239997
  60.5519992  55.4984990  80.0109997  59.3299992  51.7624990  78.6259997
  60.4619992  52.2744990  78.7629997  58.5619992  51.8884990  77.5409997
  57.7273546  51.3274288  77.4478973  58.9309992  52.7894990  76.4239997
  58.3879992  52.4794990  75.5439997  58.5839992  54.2134990  76.7869997
  57.6193101  54.2350032  77.2939636  57.6119992  54.2394990  77.3259997
  58.5189992  54.8324990  75.8679997  60.4189992  52.6274990  76.1139997
  61.1749992  53.6214990  76.1819997  60.8139992  51.3984990  75.7639997
  60.1175315  50.6720555  75.6784900  62.2409992  51.0334990  75.5649997
  62.6859992  50.8924990  76.5389997  62.3769992  49.7764990  74.7479997
  61.9739992  48.9134990  75.3199997  61.8104384  49.8936915  73.8242168
  63.7409992  49.5224990  74.4379997  63.8065161  48.7183934  73.9176905
  62.9979992  52.1924990  74.9079997  64.1299992  52.4654990  75.3439997
  62.4019992  52.8134990  73.8849997  61.4915280  52.4977268  73.5826268
  63.0299992  53.9474990  73.1609997  63.9239992  54.2314990  73.6949997
  63.3729992  53.5434990  71.7249997  62.4269992  53.4264990  71.1549997
  63.9527850  54.3535725  71.2825866  64.1559992  52.2534990  71.6299997
  65.2339992  52.4844990  71.7629997  63.8238345  51.6025612  72.4387324
  63.9139992  51.4114990  70.0539997  64.8339992  49.9034990  70.3879997
  65.8729260  50.1516509  70.6051420  65.8929992  50.1434990  70.6189997
  64.7979992  49.2294990  69.5059997  62.0509992  55.1284990  73.1469997
  62.5099992  56.2884990  73.0979997  60.7519992  54.8274990  73.1929997
  60.4672413  53.8888858  73.4338682  59.7049992  55.8104990  72.8509997
  60.0869992  56.4684990  72.0839997  58.4729992  55.0564990  72.3549997
  57.7129992  55.7594990  71.9519997  58.8119992  54.0524990  71.2689997
  59.5349992  53.3024990  71.6549997  59.2709992  54.5744990  70.4019997
  57.8909992  53.5234990  70.9419997  57.9559992  54.3824990  73.4979997
  57.1730464  53.8856517  73.2495485  59.3919992  56.6634990  74.0619997
  58.3319992  57.3244990  74.0619997  60.3139992  56.6894990  75.0279997
  61.1213645  56.0877027  74.9498850  60.1719992  57.5224990  76.2499997
  59.2779992  57.2074990  76.7669997  61.3749992  57.3684990  77.1429997
  62.2699992  57.7894990  76.6379997  61.1950984  57.9107246  78.0712922
  61.6169992  55.9994990  77.4339997  62.3864144  55.9245146  78.0031899
  59.9629992  58.9904990  75.8599997  58.8919992  59.5464990  76.1819997
  60.9599992  59.5874990  75.2009997  61.7490783  59.0385350  74.8910125
  60.9559992  61.0324990  74.9089997  60.9889992  61.1634990  73.8369997
  60.0446729  61.4869780  75.2976286  62.1539992  61.7134990  75.5389997
  62.1559992  62.9574990  75.6219997  63.1359992  60.9214990  75.9729997
  63.0493349  59.9250565  75.8326747  64.3359992  61.4304990  76.6839997
  64.2579992  62.5054990  76.7589997  64.4029992  60.7974990  78.0699997
  64.6639992  59.7264990  77.9449997  65.2176880  61.2789823  78.6108842
  63.1199992  60.8774990  78.9029997  62.2669992  60.4934990  78.3039997
  63.2579992  60.0544990  80.1689997  64.0895392  60.4355268  80.7618385
  62.3377222  60.1222905  80.7491680  63.4460812  59.0132148  79.9073647
  62.7899992  62.3214990  79.2369997  62.6480321  62.8849632  78.3147997
  61.8755237  62.3581776  79.8290219  63.6092139  62.7594098  79.8072806
  65.5839992  61.0924990  75.8589997  65.4649992  60.3044990  74.8969997
  66.7349992  61.6544990  76.2389997  66.7393913  62.3799076  76.9417531
  68.0289992  61.2964990  75.5819997  67.8069992  60.9834990  74.5729997
  69.0219992  62.4744990  75.5589997  70.0499992  62.0844990  75.7149997
  68.9709992  63.2304990  74.2369997  67.9671060  63.6260237  74.0825343
  69.6854914  64.0533261  74.2605996  69.2238651  62.5537117  73.4208382
  68.8119992  63.4174990  76.7379997  68.7749992  62.8394990  77.6869997
  67.8529992  63.9654990  76.6189997  69.6529992  64.1414990  76.7969997
  68.6199992  60.0724990  76.3009997  69.7599992  60.1654990  76.8049997
  67.8889992  58.9544990  76.2879997  66.9407548  58.9514513  75.9402605
  68.4409992  57.6904990  76.8389997  69.1939992  57.9444990  77.5699997
  67.3339992  56.8564990  77.4829997  67.7899992  56.2084990  78.2599997
  66.6461757  57.5591340  77.9534280  66.5659992  55.9694990  76.5069997
  67.1129992  55.9464990  75.5409997  66.5226114  54.9648508  76.9275964
  65.1539992  56.4444990  76.2429997  64.8619992  57.6454990  76.2659997
  64.2609992  55.5004990  75.9869997  64.5389992  54.5394990  75.9769997
  63.3099992  55.7484990  75.8039997  69.1179992  56.9564990  75.6679997
  68.8149992  57.3004990  74.5029997  70.0079992  56.0054990  75.9649997
  70.3415704  55.8620003  76.9074633  70.5909992  55.1764990  74.8769997
  70.7149992  55.8104990  74.0119997  71.9359992  54.5704990  75.2769997
  72.1359992  54.8234990  76.3399997  71.8468978  53.4892242  75.1720907
  73.1029992  55.0684990  74.4309997  73.9819992  54.4134990  74.6099997
  72.8069760  55.0125145  73.3834606  73.4989992  56.4944990  74.7459997
  73.1829992  57.0264990  75.8159997  74.2019992  57.1254990  73.8179997
  74.3659992  58.1084990  73.8959997  74.5699992  56.6184990  73.0379997
  69.5409992  54.1114990  74.5389997  69.1159992  53.3914990  75.4679997
  69.1349992  54.0224990  73.2719997  69.5068325  54.6287272  72.5548340
  68.0199992  53.1024990  72.9109997  67.2429992  53.1844990  73.6569997
  67.5079992  53.5264990  71.5319997  68.3689992  53.6324990  70.8369997
  66.8161383  52.7897026  71.1238825  66.7689992  54.8584990  71.5439997
  66.4819992  55.5074990  72.7399997  66.7915394  55.0480719  73.6787284
  65.8129992  56.7204990  72.7499997  65.6054545  57.2175796  73.6975949
  65.4109992  57.2964990  71.5699997  64.8869992  58.2404990  71.5779997
  65.6789992  56.6664990  70.3779997  65.3619992  57.1184990  69.4499997
  66.3539992  55.4564990  70.3609997  66.5639699  54.9628488  69.4121468
  68.4699992  51.6434990  72.9979997  68.7299992  51.0284990  71.9409997
  68.5519992  51.0954990  74.2159997  68.4577312  51.6474427  75.0565774
  68.8699992  49.6504990  74.3539997  69.8409992  49.4754990  73.9149997
  68.8709992  49.2564990  75.8299997  67.9769992  49.7014990  76.3149997
  68.8028909  48.1695087  75.8737432  70.1129992  49.7184990  76.5849997
  69.9169992  50.7234990  77.0159997  70.3054514  49.0105844  77.3911766
  71.3469992  49.8064990  75.7139997  71.9229992  48.7914990  75.3039997
  71.7709992  51.0294990  75.4249997  72.5819992  51.1554990  74.8529997
  71.2799992  51.8254990  75.7789997  67.8649992  48.8284990  73.5349997
  66.6799992  48.7734990  73.9249997  68.3309992  48.2214990  72.4409997
  69.2846333  48.3586734  72.1379081  67.4359992  47.3884990  71.5959997
  66.5129992  47.9284990  71.4459997  68.1159992  47.1014990  70.2549997
  69.1059992  46.6364990  70.4479997  67.4958727  46.4244247  69.6675360
  68.3259992  48.3194990  69.4209997  69.3969992  49.1674990  69.5959997
  69.3119992  50.1634990  68.7259997  70.0704284  50.9457427  68.6947135
  68.2249992  49.9874990  68.0089997  67.8964659  50.5893294  67.2674029
  67.5969992  48.8434990  68.4299997  66.6687348  48.5251982  67.9555411
  67.0809992  46.1084990  72.3549997  67.9289992  45.5964990  73.1149997
  65.8609992  45.6074990  72.1519997  65.1997168  46.1014707  71.5699372
  65.4189992  44.3594990  72.8119997  65.9239992  44.2834990  73.7639997
  63.9049992  44.3804990  73.0109997  63.3749992  44.2664990  72.0419997
  63.4239992  43.2854990  73.9459997  63.8949992  43.4014990  74.9459997
  63.7019992  42.2904990  73.5379997  62.3209992  43.3464990  74.0639997
  63.6229992  45.6564990  73.5769997  62.6786119  45.7373505  73.7293016
  65.8569992  43.1814990  71.9699997  67.0369992  42.7894990  72.0729997
  64.9489992  42.6344990  71.1579997  64.0027228  42.9867367  71.1337333
  65.2879992  41.4584990  70.3049997  65.5109992  40.6264990  70.9549997
  64.1139992  41.1104990  69.3749997  63.9199992  41.9694990  68.6979997
  64.4079992  39.8734990  68.5359997  64.5888270  39.0227785  69.1930209
  63.5550973  39.6596021  67.8918671  65.2907442  40.0517344  67.9219190
  62.8149992  40.9394990  70.1509997  62.4679992  41.9224990  70.5369997
  62.9759992  40.2574990  71.0129997  62.0289992  40.5224990  69.4859997
  66.5559992  41.7774990  69.4999997  67.5469992  41.0304990  69.6339997
  66.5149992  42.8454990  68.6989997  65.7134890  43.4593630  68.7281837
  67.5869992  43.1334990  67.7119997  67.7619992  42.2394990  67.1319997
  67.1649992  44.2864990  66.8039997  66.7709992  45.1014990  67.4459997
  68.0663742  44.6453737  66.3071776  66.1009992  43.9564990  65.7539997
  65.1249992  43.7894990  66.2559997  65.9719992  45.0984990  64.7649997
  66.9281811  45.2579804  64.2666217  65.2124802  44.8529707  64.0227413
  65.6824679  46.0066900  65.2936404  66.4579992  42.6694990  65.0369997
  66.5130357  41.8542803  65.7584489  65.6946270  42.4440538  64.2923262
  67.4234021  42.7834263  64.5439308  68.8979992  43.4514990  68.4449997
  68.8439992  43.9754990  69.5759997  70.0699992  43.1634990  67.8409997
  70.2489992  42.3944990  66.5699997  69.9391430  42.9376779  67.4627740
  69.9797126  42.9692710  65.6838728  71.6959992  42.0304990  66.5939997
  71.8539992  41.0804990  67.1479997  70.6304445  42.2260852  66.4738314
  72.3809992  43.1824990  67.3009997  72.5609992  44.0294990  66.6049997
  73.3531900  42.9624257  67.7420355  71.3929992  43.5694990  68.3899997
  71.5639992  43.0894990  69.3399997  71.4309992  45.0694990  68.6389997
  70.8329992  45.8384990  67.8559997  72.1439992  45.4824990  69.6889997
  72.4936215  44.8239561  70.3703108  72.3939992  46.8974990  69.9069997
  71.5109992  47.4434990  69.6089997  72.7149992  47.1674990  71.3759997
  73.2089992  46.2754990  71.8179997  73.3885202  48.0224355  71.4356081
  71.5359992  47.4434990  72.1109997  71.7626878  47.6094763  73.0289668
  73.5389992  47.3764990  69.0199997  74.4129992  46.6054990  68.6139997
  73.5269992  48.6724990  68.7189997  72.7773145  49.2484494  69.0744617
  74.5109992  49.2864990  67.8349997  75.2309992  48.5274990  67.5669997
  73.8569992  49.8674990  66.5649997  74.6439992  50.0764990  65.8079997
  72.8529992  48.8824990  65.9889997  72.0769257  48.6804210  66.7272241
  72.3998534  49.3068648  65.0930795  73.3611610  47.9527956  65.7330214
  73.1829992  51.1924990  66.8549997  73.9469992  51.9734990  67.0559997
  72.5299992  51.0964990  67.7479997  72.5759992  51.5074990  65.9799997
  75.2659992  50.3564990  68.6099997  74.6999992  51.0164990  69.4909997
  76.5499992  50.4924990  68.3129997  76.9241705  49.8382148  67.6406846
  77.4509992  51.4734990  68.8949997  76.9369992  51.9634990  69.7079997
  78.7149992  50.7824990  69.4019997  79.5539992  51.5094990  69.4399997
  78.4909992  50.2244990  70.7999997  77.6619992  49.4854990  70.7869997
  78.2219992  51.0474990  71.4959997  79.4129992  49.7184990  71.1569997
  79.0649992  49.7104990  68.5179997  79.8596610  49.2777736  68.8387204
  77.8109992  52.5334990  67.8639997  77.6709992  52.3114990  66.6579997
  78.2689992  53.7114990  68.3039997  78.3189992  54.2204990  69.6859997
  78.2305674  53.6829242  68.7419163  79.1442819  53.8049469  70.2642073
  78.4439992  55.7044990  69.4949997  77.4409992  56.1764990  69.4209997
  78.3457097  54.6499417  69.7525835  79.1979992  55.8724990  68.2239997
  80.2919992  55.7854990  68.3979997  79.0162225  56.8327950  67.7414146
  78.6919992  54.7334990  67.3299997  77.8729992  54.9984990  66.6809997
  79.7709992  54.2444990  66.3849997  79.8159992  54.6764990  65.2259997
  80.6449992  53.3534990  66.8499997  80.6664937  53.1222336  67.8329308
  81.6499992  52.7584990  65.9779997  82.1809992  53.5524990  65.4729997
  82.6059992  51.9234990  66.8339997  82.9349992  52.5964990  67.6479997
  81.9317895  51.1741109  67.2486788  83.8799992  51.2414990  66.3339997
  84.5889992  51.1254990  67.1819997  83.5799992  49.8814990  65.7479997
  82.8928432  49.9903868  64.9089175  84.5058528  49.4223253  65.4015093
  83.1245738  49.2492899  66.5102330  84.5809992  52.1234990  65.3119997
  84.8435185  53.0759363  65.7724844  85.4866751  51.6272092  64.9633610
  83.9158387  52.3002716  64.4667708  80.9999992  51.9394990  64.8639997
  81.4039992  52.0284990  63.6959997  79.9669992  51.1624990  65.2029997
  79.6888601  51.0552553  66.1680058  79.2529992  50.3934990  64.1869997
  79.9749992  49.8104990  63.6359997  78.2219992  49.4794990  64.8489997
  78.7252107  48.8054228  65.5421805  78.7299992  48.7804990  65.5479997
  77.6759992  48.9014990  64.0739997  78.5829992  51.3074990  63.1699997
  78.6109992  51.0334990  61.9639997  77.9679992  52.3984990  63.6349997
  77.8563994  52.5563170  64.6263312  77.3859992  53.3654990  62.7109997
  76.7189992  52.8364990  62.0469997  76.6249992  54.4454990  63.4799997
  76.0079992  55.0464990  62.7779997  75.7049992  53.8174990  64.5139997
  76.2849992  53.5324990  65.4179997  75.2319992  52.9034990  64.0949997
  74.9189992  54.5434990  64.8119997  77.5569992  55.3104990  64.1399997
  77.0780869  55.9882725  64.6225619  78.4589992  53.9954990  61.8349997
  78.2069992  54.3244990  60.6689997  79.6639992  54.1754990  62.3809997
  79.8303696  53.9898881  63.3597585  80.7589992  54.7174990  61.5839997
  80.4149992  55.6264990  61.1129997  81.9649992  55.0024990  62.4799997
  81.5909992  55.1504990  63.5139997  82.5850567  54.1060474  62.4781705
  82.8229992  56.2164990  62.1169997  82.1649992  57.0454990  61.7789997
  83.6329992  56.6734990  63.3189997  84.2853834  55.8642693  63.6470867
  84.2374002  57.5376398  63.0432082  82.9579766  56.9468165  64.1300128
  83.7389992  55.9144990  60.9399997  83.1384218  55.6428508  60.0718906
  84.3350627  56.7968573  60.7070762  84.4005781  55.0871577  61.1967461
  81.1349992  53.7724990  60.4509997  81.3149992  54.2084990  59.3069997
  81.2529992  52.4724990  60.7419997  81.2466806  52.1233545  61.6897114
  81.5169992  51.5254990  59.6539997  82.3539992  51.9064990  59.0889997
  81.8349992  50.1034990  60.1619997  81.0189992  49.7654990  60.8349997
  81.9669992  49.1264990  59.0049997  82.6559992  49.5364990  58.2359997
  80.9729992  48.9584990  58.5369997  82.3769992  48.1604990  59.3699997
  83.1069992  50.0724990  61.0039997  83.7561071  49.3049728  60.5824983
  83.5853417  51.0468748  60.9046034  82.8699992  49.7864990  62.4249997
  82.3920653  48.8120080  62.5252306  83.8204965  49.7810285  62.9585015
  82.2212976  50.5539093  62.8473353  80.3609992  51.5044990  58.6619997
  80.5749992  51.3994990  57.4499997  79.1209992  51.5894990  59.1489997
  78.9413612  51.6149000  60.1425712  77.9789992  51.5814990  58.2389997
  78.0359992  50.6894990  57.6339997  76.6739992  51.6044990  59.0349997
  76.7409992  52.4234990  59.7799997  75.8301851  51.7967879  58.3723514
  76.2959992  50.0604990  59.8919997  75.1527056  50.4761770  60.4295773
  78.0429992  52.7594990  57.2729997  77.8669992  52.5954990  56.0569997
  78.3169992  53.9554990  57.7969997  78.4062718  54.0758658  58.7958198
  78.4329992  55.1344990  56.9449997  77.5459992  55.1954990  56.3319997
  78.5749992  56.3924990  57.8019997  79.5549992  56.3844990  58.3259997
  78.4959992  57.6394990  56.9359997  77.6039992  57.5904990  56.2759997
  79.4039992  57.7164990  56.2999997  78.4119992  58.5414990  57.5789997
  77.5259992  56.4294990  58.7769997  77.6163541  57.2198481  59.3143865
  79.6089992  55.0104990  55.9849997  79.5059992  55.3944990  54.8139997
  80.7399992  54.4814990  56.4629997  80.8259380  54.2182361  57.4342908
  81.9089992  54.3374990  55.6009997  82.1139992  55.2954990  55.1479997
  83.1079992  53.8664990  56.4249997  83.1389992  54.4874990  57.3439997
  82.8911148  52.8448352  56.7368719  84.5039992  53.9224990  55.7949997
  85.2569992  54.0774990  56.5969997  84.8379992  52.6414990  55.0399997
  84.1100247  52.4883767  54.2433156  85.8358465  52.7228434  54.6089722
  84.8073517  51.7957651  55.7269460  84.6369992  55.1374990  54.8869997
  84.4767754  56.0454834  55.4683705  85.6354705  55.1577840  54.4502561
  83.8940975  55.0802495  54.0914379  81.6309992  53.3794990  54.4489997
  82.0139992  53.6474990  53.3049997  80.9689992  52.2564990  54.7319997
  80.7366109  52.0141849  55.6845640  80.6499992  51.2994990  53.6769997
  81.5369992  51.1514990  53.0789997  80.1819992  49.9614990  54.2809997
  79.3019992  50.1414990  54.9349997  79.8009992  48.9734990  53.1829997
  80.6109992  48.9134990  52.4259997  78.8679992  49.3084990  52.6799997
  79.6469992  47.9634990  53.6199997  81.2649992  49.3804990  55.1959997
  81.8732813  50.2169313  55.5402011  80.7544561  48.9289436  56.0466129
  82.1549992  48.3474990  54.5349997  82.6662676  48.7984761  53.6845150
  82.8924041  47.9894033  55.2534012  81.5474415  47.5104889  54.1909246
  79.6169992  51.8734990  52.7169997  79.6859992  51.6304990  51.5069997
  78.6449992  52.6374990  53.2249997  78.5303299  52.7644495  54.2204060
  77.6749992  53.2614990  52.3319997  77.2719992  52.4964990  51.6849997
  76.5589992  53.9164990  53.1439997  76.0723386  53.1650905  53.7658089
  76.0459992  53.1514990  53.7659997  75.8259992  54.3964990  52.4609997
  78.3289992  54.2854990  51.4139997  77.9919992  54.3564990  50.2269997
  79.2629992  55.0774990  51.9389997  79.4808662  55.0152028  52.9232519
  79.9319992  56.1034990  51.1459997  79.1969992  56.5744990  50.5109997
  80.5809992  57.1384990  52.0859997  80.8199992  56.6494990  53.0539997
  81.8579992  57.7194990  51.4939997  81.6369992  58.2244990  50.5299997
  82.5919992  56.9064990  51.3089997  82.2929992  58.4654990  52.1929997
  79.5889992  58.2574990  52.4079997  79.2926257  58.7118755  51.4625868
  78.7197563  57.7968942  52.8774244  80.1509992  59.3204990  53.3229997
  81.0200553  59.7819072  52.8540179  79.3917545  60.0805910  53.5071372
  80.4471882  58.8669251  54.2688552  80.9659992  55.5314990  50.1779997
  81.1199992  56.0654990  49.0699997  81.6439992  54.4444990  50.5489997
  81.3898041  53.9460107  51.3898288  82.8339992  54.0124990  49.8209997
  83.5599992  54.8114990  49.8449997  83.3939992  52.7474990  50.4919997
  83.2099992  52.8604990  51.5789997  82.7584889  51.9347645  50.1403046
  84.8679992  52.3464990  50.3399997  85.0779992  51.4984990  51.0249997
  85.2329992  51.9294990  48.9219997  85.0456192  52.7583566  48.2393705
  86.2880280  51.6584553  48.8826259  84.6270442  51.0727074  48.6273354
  85.7649992  53.4794990  50.8159997  85.5570140  53.6922174  51.8646142
  86.8093849  53.1878164  50.7051798  85.5721339  54.3713126  50.2197025
  82.6089992  53.7974990  48.3259997  83.4379992  54.2864990  47.5379997
  81.5639992  53.0994990  47.8639997  80.5999992  52.2584990  48.5949997
  81.3650983  52.9410723  48.2251114  79.7878381  52.8317489  49.0420765
  80.1159992  51.3084990  47.5389997  80.7989992  50.4374990  47.4459997
  80.3994997  51.9194622  48.3960019  80.1129992  52.1124990  46.2939997
  79.2029992  52.7474990  46.2329997  80.1617874  51.4980820  45.3949940
  81.3769992  52.9724990  46.4089997  82.2559992  52.5464990  45.9519997
  81.2189992  54.3034990  45.6959997  81.6709992  54.4374990  44.5529997
  80.5919992  55.2934990  46.3329997  80.1354151  55.1402456  47.2207742
  80.4979992  56.6174990  45.7259997  80.0849992  56.5054990  44.7339997
  79.6079992  57.5224990  46.5739997  78.5419992  57.2554990  46.4099997
  79.8601951  57.3780562  47.6245393  79.7939992  58.8824990  46.2269997
  79.2257655  59.4322588  46.7714942  81.8749992  57.2424990  45.5479997
  82.1619992  57.8434990  44.5049997  82.7369992  57.1164990  46.5569997
  82.4532562  56.6932522  47.4290383  84.0849992  57.6684990  46.4619997
  84.0059992  58.6954990  46.1349997  84.7859992  57.5914990  47.8299997
  84.5799992  56.6034990  48.2929997  86.2869992  57.7714990  47.6759997
  86.5019992  58.5574990  46.9219997  86.7489992  56.8194990  47.3379997
  86.7319992  58.0794990  48.6459997  84.2149992  58.6464990  48.7779997
  83.2195225  58.3126311  49.0706754  84.8606896  58.6751921  49.6557013
  84.1249992  60.0284990  48.1739997  83.4790557  60.0006935  47.2964555
  83.7107001  60.7199712  48.9077037  85.1202233  60.3632536  47.8814792
  84.8779992  56.9544990  45.3759997  85.5719992  57.5924990  44.5729997
  84.7879992  55.6224990  45.3269997  84.2907631  55.1038936  46.0368617
  85.4669992  54.8764990  44.2739997  86.5069992  55.1674990  44.2719997
  85.3359992  53.3724990  44.5179997  84.3619992  53.1654990  45.0119997
  85.3768064  52.8187407  43.5800303  86.4099992  52.8044990  45.3989997
  87.3289992  53.6334990  46.0199997  87.2630913  54.7104404  45.8652317
  88.3199992  53.1114990  46.8269997  89.0352128  53.7757691  47.3120930
  88.4049992  51.7474990  47.0189997  89.1789992  51.3364990  47.6499997
  87.4979992  50.9084990  46.4029997  87.5629992  49.8404990  46.5509997
  86.5089992  51.4364990  45.5979997  85.7930634  50.7754523  45.1095807
  84.9299992  55.2334990  42.8949997  85.6689992  55.1664990  41.9069997
  83.6509992  55.6004990  42.8029997  83.0304024  55.5331738  43.5969935
  83.0979992  56.0454990  41.5289997  83.4589992  55.3834990  40.7559997
  81.5709992  56.0214990  41.5809997  81.2609992  56.1344990  42.6409997
  81.1578836  56.8468547  41.0011519  80.8319992  54.5174990  40.9079997
  79.5692389  54.8731860  41.1266806  83.5999992  57.4354990  41.1619997
  83.7779992  57.7404990  39.9779997  83.8259992  58.2914990  42.1619997
  83.5545777  58.0756209  43.1105914  84.4169992  59.5974990  41.8919997
  83.8419992  60.0714990  41.1099997  84.4069992  60.4584990  43.1549997
  83.4889992  60.2114990  43.7269997  85.2590484  60.1598002  43.7656479
  84.4359992  61.9744990  42.9459997  85.4919992  62.3154990  42.8899997
  83.7159992  62.3634990  41.6649997  82.6768520  62.0388674  41.7187228
  83.7520512  63.4458990  41.5416658  84.2020757  61.8850631  40.8147472
  83.8359992  62.6934990  44.1409997  84.4082106  62.4510001  45.0364705
  83.8667658  63.7697467  43.9711600  82.8016407  62.3766877  44.2745359
  85.8349992  59.4614990  41.3539997  86.3189992  60.3494990  40.6449997
  86.5109992  58.3684990  41.6859997  86.1373359  57.7589759  42.3994117
  87.7969992  58.0334990  41.0979997  88.2379992  58.9434990  40.7179997
  88.7149992  57.3934990  42.1429997  88.4729992  57.8254990  43.1369997
  88.5553870  56.3159756  42.1825905  90.1789992  57.6014990  41.8899997
  90.9569992  56.9414990  40.9839997  90.4650783  56.1817592  40.3766208
  92.2479992  57.4024990  41.0409997  93.0152667  57.0769668  40.4705359
  92.3269992  58.3784990  41.9979997  93.4169992  59.1364990  42.4169997
  94.4009992  59.0184990  41.9889997  93.2009992  60.0544990  43.4069997
  94.0259992  60.6574990  43.7559997  91.9359992  60.2284990  43.9799997
  91.8029992  60.9644990  44.7589997  90.8529992  59.4774990  43.5639997
  89.8879992  59.6324990  44.0229997  91.0419992  58.5304990  42.5539997
  87.5909992  57.0924990  39.9139997  86.5119992  56.5254990  39.7249997
  88.6279992  56.9804990  39.0839997  89.4274172  57.5776833  39.2402081
  88.6439992  56.0904990  37.9249997  89.6229992  56.1524990  37.4719997
  88.3409992  54.6424990  38.3339997  87.2809992  54.5694990  38.6579997
  88.5058057  53.9644013  37.4966691  89.1869992  54.1384990  39.4679997
  90.5619992  54.0444990  39.3369997  91.0294897  54.3427654  38.3986023
  91.3409992  53.5784990  40.3799997  92.4226049  53.5078490  40.2649409
  90.7479992  53.2034990  41.5669997  91.3539992  52.8404990  42.3839997
  89.3789992  53.2914990  41.7109997  88.9119992  52.9974990  42.6389997
  88.6049992  53.7564990  40.6649997  87.5229861  53.8262872  40.7767006
  87.6589992  56.5434990  36.8519997  87.5989992  55.9484990  35.7699997
  86.8849992  57.5904990  37.1359997  86.9439178  58.0160780  38.0500622
  85.9139992  58.1214990  36.1879997  86.3999992  58.2124990  35.2279997
  84.6999992  57.1984990  36.0829997  85.0579992  56.1474990  36.0649997
  84.0984660  57.3626091  36.9770498  83.8459992  57.4364990  34.8469997
  83.1719992  58.2994990  35.0309997  84.5118109  57.6633411  34.0143295
  83.0079992  56.2134990  34.5069997  82.1608800  56.1636484  35.1911071
  82.6436010  56.3259223  33.4858854  83.8229992  54.9344990  34.6159997
  84.6949992  55.1014990  35.2829997  83.2562038  55.8573965  34.4931089
  84.3439992  54.4924990  33.2929997  84.6599992  55.3214990  32.7499997
  83.5909992  54.0024990  32.7699997  85.1449992  53.8454990  33.4349997
  85.4749992  59.5204990  36.6049997  84.3739992  59.6864990  37.1439997
  86.2979992  60.5464990  36.3839997  87.7189992  60.4894990  36.0049997
  86.6606210  60.3470494  36.2232747  87.8766631  60.4431599  34.9274590
  88.2669992  61.7464990  36.6089997  88.5589992  61.5784990  37.6679997
  87.9842859  60.8029903  36.1421315  87.1559992  62.7394990  36.5189997
  87.1529992  63.2374990  35.5259997  87.1952025  63.5475318  37.2495103
  85.8769992  61.9154990  36.7179997  85.4709992  61.9504990  37.7169997
  84.7639992  62.3734990  35.7889997  84.9899992  62.6174990  34.6009997
  83.5539992  62.4874990  36.3359997  83.4004952  62.2336548  37.3014524
  82.4099992  62.9224990  35.5459997  82.5239992  62.5334990  34.5449997
  81.1119992  62.4094990  36.1739997  81.3359992  61.4704990  36.7219997
  80.7807530  63.1724954  36.8784231  80.0029992  62.1274990  35.1749997
  79.0519992  62.5534990  35.5599997  80.2587807  62.6051015  34.2291806
  79.8049992  60.6454990  34.9309997  79.2489992  59.9374990  35.7689997
  80.2599992  60.1694990  33.7779997  80.1569992  59.1984990  33.5619997
  80.7049992  60.7824990  33.1249997  82.3419992  64.4344990  35.3959997
  81.5599992  64.9284990  34.5769997  83.1369992  65.1774990  36.1609997
  83.7852434  64.7330227  36.7952864  83.0989992  66.6184990  36.1209997
  84.1159992  66.9814990  36.0849997  82.5699246  66.9421959  35.2246740
  82.4039992  67.1914990  37.3369997  82.1659992  66.4964990  38.3279997
  82.0789992  68.4844990  37.2879997  82.4779992  69.4794990  36.2779997
  82.2570414  68.6179871  36.9081387  81.8926777  69.4176230  35.3605745
  82.2819992  70.7834990  36.9949997  83.2069992  71.0754990  37.5369997
  82.4652376  69.8980820  36.3862618  81.1649992  70.5484990  37.9529997
  80.1809992  70.6874990  37.4549997  81.2015482  71.2155631  38.8142715
  81.3449992  69.0944990  38.4089997  81.8919992  68.9734990  39.3289997
  80.0099992  68.4264990  38.6879997  79.5999992  68.3434990  39.8519997
  79.3169992  67.9514990  37.6489997  79.6321131  68.0991205  36.7008380
  78.0509992  67.2554990  37.8569997  77.4059992  67.8944990  38.4419997
  77.4069992  66.9344990  36.5089997  77.7669992  67.6734990  35.7629997
  77.7458508  65.9375775  36.2271713  75.8929992  66.9674990  36.5229997
  75.5059992  66.2904990  35.7319997  75.5525852  66.6209933  37.4987836
  75.3739992  68.3714990  36.2759997  76.0155041  69.0863554  36.7913158
  75.3915905  68.5744063  35.2051969  74.0089992  68.5354990  36.7599997
  73.8749992  69.0314990  37.6169997  72.9319992  68.0704990  36.1419997
  73.0209992  67.4144990  34.9969997  73.9149992  67.2584990  34.5779997
  72.1929992  67.0744990  34.5499997  71.7359992  68.2674990  36.6859997
  71.6089992  68.9904990  37.3649997  70.9639992  67.6924990  36.4169997
  78.2479992  65.9824990  38.6699997  77.4619992  65.6864990  39.5789997
  79.2919992  65.2134990  38.3529997  79.8840566  65.4254494  37.5626551
  79.5949992  64.0344990  39.1429997  78.7249992  63.3944990  39.1339997
  80.4340268  63.5115041  38.6840787  79.9479992  64.3694990  40.5769997
  79.5699992  63.6434990  41.4999997  80.6699992  65.4724990  40.7849997
  81.0492671  66.0013832  40.0126418  80.9739992  65.9144990  42.1409997
  81.4489992  65.0964990  42.6619997  81.8939992  67.1294990  42.1089997
  82.9459992  66.7904990  41.9949997  81.6406648  67.7878071  41.2780050
  81.8279992  67.9654990  43.3549997  82.2879992  67.4724990  44.5639997
  82.7022075  66.4650726  44.6042927  82.2269992  68.2394990  45.7089997
  82.5934434  67.8400769  46.6546642  81.7009992  69.5134990  45.6559997
  81.6519992  70.1154990  46.5509997  81.2379992  70.0174990  44.4579997
  80.8259992  71.0144990  44.4139997  81.3019992  69.2444990  43.3169997
  80.9359151  69.6399717  42.3695380  79.7029992  66.2444990  42.9089997
  79.5659992  65.8904990  44.0829997  78.7669992  66.9434990  42.2649997
  78.9166830  67.2855706  41.3265535  77.5189992  67.2904990  42.9369997
  77.7599992  67.7494990  43.8839997  76.7139992  68.2524990  42.0669997
  77.4319992  68.9384990  41.5729997  76.2372979  67.6335626  41.3068854
  75.6579992  69.1104990  42.7599997  74.7279992  68.5174990  42.8879997
  76.1509992  69.5724990  44.1189997  77.0589201  70.1628161  43.9952897
  75.3839362  70.1823514  44.5962784  76.3647178  68.7046081  44.7428508
  75.3289992  70.3014990  41.8849997  74.9446473  69.9534769  40.9262225
  74.5752359  70.9167726  42.3763046  76.2299229  70.8928955  41.7216423
  76.7089992  66.0414990  43.2629997  76.1249992  65.9324990  44.3519997
  76.6689992  65.0864990  42.3309997  77.0804083  65.2348212  41.4205918
  75.9919992  63.8194990  42.5859997  74.9609992  64.0314990  42.8309997
  76.0739992  62.9244990  41.3499997  75.7889992  63.5264990  40.4609997
  77.1128395  62.6080411  41.2563764  75.1769992  61.7024990  41.4109997
  75.7079992  60.8864990  41.9449997  74.2736350  61.9700360  41.9591411
  74.8019992  61.2274990  40.0199997  75.7053360  60.8987590  39.5061789
  74.1101327  60.3899604  40.1091581  74.1689992  62.2734990  39.2279997
  74.6089992  63.1704990  39.2039997  73.0489992  62.1144990  38.5369997
  72.3879992  60.9694990  38.5459997  71.4239992  60.9464990  38.2819997
  72.8519992  60.1254990  38.8159997  72.5839992  63.1294990  37.8149997
  73.2179992  63.7964990  37.4239997  71.5999992  63.2264990  37.6639997
  76.6019992  63.1084990  43.7859997  75.8879992  62.6454990  44.6829997
  77.9349992  63.0234990  43.8179997  78.4956496  63.3896053  43.0618670
  78.6129992  62.3394990  44.9129997  78.1619992  61.3654990  45.0329997
  80.1039992  62.2024990  44.6059997  80.2089992  61.7524990  43.5969997
  80.5860686  63.1800965  44.6094988  81.0089992  61.1934990  45.7999997
  82.1961530  61.3144049  45.2126787  78.4009992  63.0684990  46.2319997
  78.2699992  62.4384990  47.2829997  78.3719992  64.4014990  46.1959997
  78.5467484  64.8925012  45.3308529  78.1379992  65.1874990  47.4019997
  78.8509992  64.8804990  48.1519997  78.3019992  66.6724990  47.0779997
  79.2889992  66.8024990  46.5869997  77.5226405  66.9190656  46.3569554
  78.2369992  67.6464990  48.2489997  77.7439992  67.1574990  49.1169997
  79.6369992  68.0614990  48.6269997  80.1156006  68.5450488  47.7754017
  79.5964109  68.7582867  49.4642214  80.2121301  67.1814850  48.9149239
  77.3929992  68.8584990  47.8959997  76.3808330  68.5377464  47.6495514
  77.3608151  69.5396284  48.7463691  77.8306590  69.3693405  47.0383320
  76.7549992  64.9204990  47.9769997  76.5979992  64.6854990  49.1829997
  75.7349992  64.9504990  47.1159997  75.8706840  65.2114712  46.1497790
  74.3789992  64.6634990  47.5709997  74.1549992  65.3184990  48.3989997
  73.3839992  64.8844990  46.4329997  73.4379992  64.0394990  45.7139997
  71.9669992  64.9724990  46.9749997  71.8839992  65.8194990  47.6889997
  71.7069992  64.0334990  47.5079997  71.2529992  65.1404990  46.1409997
  73.7039992  66.1014990  45.7469997  73.0784421  66.2398118  45.0320534
  74.2769992  63.2414990  48.1039997  73.6279992  62.9894990  49.1259997
  74.9239992  62.2924990  47.4219997  75.4152868  62.5085797  46.5664034
  74.8789992  60.9034990  47.8609997  73.8449992  60.6304990  48.0119997
  75.5199992  60.0044990  46.8079997  75.0039992  60.1804990  45.8409997
  76.5605022  60.3103055  46.6987479  75.4589992  58.5144990  47.1189997
  76.0399992  58.3044990  48.0429997  74.0189992  58.0794990  47.3179997
  73.4501803  58.2777168  46.4095650  73.9884894  57.0127121  47.5396653
  73.5824377  58.6351441  48.1479231  76.1039992  57.7374990  45.9989997
  77.1450861  58.0435870  45.8962974  76.0595883  56.6716738  46.2229321
  75.5741912  57.9348242  45.0670849  75.5629992  60.7254990  49.2109997
  75.0729992  59.9904990  50.0729997  76.7089992  61.3834990  49.4089997
  77.1383044  61.9125155  48.6633872  77.4019992  61.3064990  50.6899997
  77.5349992  60.2634990  50.9369997  78.7559992  62.0114990  50.6079997
  78.5849992  63.0344990  50.2129997  79.2009914  62.0845683  51.6003418
  79.9799992  61.1824990  49.5699997  80.9506583  62.0710089  49.7630522
  76.5679992  61.9064990  51.8089997  76.4829992  61.3284990  52.8999997
  75.9419992  63.0574990  51.5609997  76.0932126  63.5613650  50.6988205
  75.0679992  63.6514990  52.5639997  75.6359992  63.7724990  53.4749997
  74.5459992  65.0044990  52.0779997  75.3872697  65.6654275  51.8693432
  75.3969992  65.6904990  51.8829997  73.8749992  65.4484990  52.8439997
  73.9019992  62.7354990  52.9149997  73.6099992  62.5334990  54.0999997
  73.2509992  62.1484990  51.9069997  73.4781548  62.3573533  50.9452931
  72.1429992  61.2364990  52.1739997  71.4389992  61.7414990  52.8189997
  71.4699992  60.8304990  50.8649997  72.2219992  60.9184990  50.0529997
  71.1952806  59.7795849  50.9556054  70.2419992  61.6444990  50.4579997
  70.5049992  62.7234990  50.4419997  69.7549992  61.2234990  49.0839997
  69.4886622  60.1666669  49.1004139  68.8802638  61.8139136  48.8113290
  70.5457299  61.3870527  48.3518141  69.1419992  61.4834990  51.4909997
  69.4980844  61.8347732  52.4594568  68.2722986  62.0678051  51.1904861
  68.8644109  60.4321150  51.5660692  72.6029992  60.0024990  52.9409997
  71.9379992  59.5754990  53.8919997  73.7339992  59.4134990  52.5429997
  74.2550480  59.7640383  51.7519689  74.2099992  58.2034990  53.2029997
  73.3949992  57.4954990  53.2379997  75.3929992  57.6144990  52.4369997
  75.9439992  56.9054990  53.0909997  75.0152980  57.0832639  51.5633687
  76.2839992  58.6324990  52.0209997  77.0178742  58.2396407  51.5427846
  74.5939992  58.4754990  54.6499997  74.3159992  57.6604990  55.5369997
  75.2359992  59.6164990  54.9119997  75.5400540  60.2373107  54.1756282
  75.5709992  59.9604990  56.2879997  76.0269992  59.0974990  56.7479997
  76.5289992  61.1474990  56.3189997  77.5779992  60.7834990  56.2969997
  76.3453967  61.7775924  55.4487282  76.3319992  61.9034990  57.4979997
  76.9394082  62.6468553  57.5066913  74.3159992  60.2654990  57.0939997
  74.2669992  60.0074990  58.3019997  73.2919992  60.8244990  56.4439997
  73.3932795  61.1563656  55.4954712  72.0119992  61.0254990  57.1139997
  72.1929992  61.5544990  58.0379997  71.0769992  61.8294990  56.2109997
  71.5119992  62.8374990  56.0399997  70.9470055  61.3247686  55.2536863
  69.7039992  62.0304990  56.7799997  69.4669992  63.0104990  57.7269997
  70.2926528  63.6387744  58.0611645  68.2029992  63.1974990  58.2479997
  68.0293548  63.9733640  58.9936415  67.1599992  62.4014990  57.8259997
  66.1699992  62.5464990  58.2329997  67.3819992  61.4224990  56.8839997
  66.5659992  60.7964990  56.5519997  68.6459992  61.2394990  56.3639997
  68.8210166  60.4658000  55.6164311  71.3759992  59.6954990  57.4969997
  70.7919992  59.5644990  58.5779997  71.4759992  58.6954990  56.6169997
  71.9804219  58.8181317  55.7506173  70.8039992  57.4214990  56.8519997
  69.7879992  57.6264990  57.1529997  70.8239992  56.5774990  55.5809997
  71.8749992  56.4914990  55.2339997  70.4539894  55.5881773  55.8501380
  69.9919992  57.1354990  54.4459997  70.0309992  58.2444990  54.4819997
  70.4118593  56.7945697  53.4996452  68.2869992  56.5784990  54.5709997
  68.5299992  54.8084990  54.4699997  67.9917629  54.4159853  53.6072519
  67.9919992  54.3964990  53.5899997  68.1499992  54.3154990  55.3899997
  71.4289992  56.6484990  58.0069997  70.7119992  56.1354990  58.8739997
  72.7559992  56.5444990  58.0399997  73.3122736  57.0313520  57.3517902
  73.4389992  55.6764990  58.9929997  72.6899992  55.1834990  59.5949997
  74.2929992  54.6454990  58.2569997  75.2239992  55.1324990  57.8959997
  74.5508743  53.8202163  58.9207082  73.6159992  54.0404990  57.0629997
  72.5949992  53.1204990  57.2229997  72.2877367  52.8388238  58.2301485
  71.9679992  52.5614990  56.1289997  71.1668142  51.8358873  56.2693240
  72.3569992  52.9214990  54.8559997  71.8669992  52.4864990  53.9969997
  73.3709992  53.8374990  54.6809997  73.6769992  54.1214990  53.6849997
  73.9949992  54.3924990  55.7799997  74.7974663  55.1172972  55.6428353
  74.2859992  56.4634990  59.9869997  75.2239992  55.9234990  60.5739997
  73.9699992  57.7384990  60.1879997  73.2292307  58.1804480  59.6626023
  74.6879992  58.5314990  61.1599997  75.7359992  58.2834990  61.0809997
  74.5471774  59.5865896  60.9253675  74.2229992  58.2754990  62.5809997
  73.1829992  57.6704990  62.8309997  75.0209992  58.7594990  63.5279997
  75.8838125  59.2096389  63.2577651  74.7269992  58.6264990  64.9479997
  74.0169992  57.8214990  65.0659997  75.9969992  58.3324990  65.7469997
  76.4219992  57.3664990  65.4009997  76.7250302  59.1292495  65.5944888
  75.7629992  58.2424990  67.2249997  75.7779992  59.2714990  68.1209997
  75.9881095  60.2651989  67.7253812  75.5119992  58.8034990  69.3839997
  75.4713292  59.3647700  70.2227012  75.3099992  57.4494990  69.3219997
  75.0119992  56.5404990  70.3319997  74.8999992  56.8404990  71.3629997
  74.8609992  55.2294990  69.9749997  74.6289992  54.4984990  70.7349997
  75.0009992  54.8134990  68.6459997  74.8759992  53.7684990  68.4009997
  75.2969992  55.7144990  67.6419997  75.3989992  55.3674990  66.6239997
  75.4569992  57.0624990  67.9759997  74.0649992  59.8994990  65.4569997
  74.5779992  61.0024990  65.2319997  72.9349992  59.7374990  66.1469997
  72.5584230  58.8061699  66.2514786  72.1679992  60.8604990  66.6869997
  71.2169992  60.4794990  67.0269997  72.9099992  61.5324990  67.8419997
  73.5169992  60.7664990  68.3679997  73.5727662  62.3129108  67.4681048
  72.0059992  62.1814990  68.8419997  70.9039992  61.5454990  69.3719997
  70.2979992  62.3534990  70.2219997  69.4008037  62.0310092  70.7503361
  70.9649992  63.4934990  70.2619997  70.7331130  64.2993541  70.8249616
  72.0379992  63.4114990  69.4069997  72.7146350  64.2591714  69.2987560
  71.8319992  61.8694990  65.5929997  71.9159992  63.0844990  65.7869997
  71.4479992  61.3544990  64.4259997  71.4322910  60.3538510  64.2897786
  71.1059992  62.2104990  63.2979997  71.8909992  62.9424990  63.1819997
  70.9619992  61.3734990  62.0189997  70.6109992  60.3534990  62.2839997
  69.9699992  62.0134990  61.0679997  70.3162130  63.0112542  60.7983304
  69.8832172  61.4041192  60.1684299  68.9962754  62.0859577  61.5524719
  72.3089992  61.2154990  61.3419997  73.0679992  60.8734990  62.0779997
  72.6369992  62.1904990  60.9209997  72.2379992  60.4624990  60.5289997
  69.8289992  62.9734990  63.6129997  68.8389992  62.3964990  64.0779997
  69.8519992  64.2814990  63.3789997  70.6939040  64.7476744  63.0724444
  68.6699992  65.0864990  63.6229997  68.1199992  64.6344990  64.4349997
  69.0509992  66.5234990  63.9769997  69.9439992  66.8114990  63.3829997
  68.2362966  67.2079776  63.7406766  69.3689992  66.7204990  65.4259997
  70.6489992  66.9354990  65.8879997  70.6229992  67.0724990  67.2009997
  71.5427043  67.2500744  67.7584119  69.3719992  66.9554990  67.6079997
  69.0492676  67.0174986  68.5630390  68.5669992  66.7334990  66.5169997
  67.4923502  66.6079465  66.6491636  67.7369992  65.0734990  62.4159997
  68.1569992  64.9474990  61.2629997  66.4569992  65.3544990  62.6739997
  66.1425277  65.5294442  63.6177164  65.4529992  65.3924990  61.5779997
  65.5019992  64.4544990  61.0449997  64.0519992  65.6094990  62.1439997
  63.3169992  65.5224990  61.3169997  63.8709652  64.8203720  62.8737978
  63.8759992  66.9694990  62.8119997  64.4659992  67.7244990  62.2499997
  62.8131713  67.2061577  62.7621144  64.3309992  66.9904990  64.2589997
  63.5969992  66.4514990  65.1129997  65.4199992  67.5384990  64.5309997
  65.7839992  66.5204990  60.5889997  65.4429992  66.3774990  59.3989997
  66.4099992  67.5964990  61.0669997  66.7777841  67.5923338  62.0076464
  66.5699992  68.8304990  60.2529997  65.6819992  68.9494990  59.6489997
  66.7669992  70.0504990  61.1549997  67.8569992  70.2414990  61.2439997
  66.2932164  70.8889890  60.6445447  66.1929992  69.9214990  62.5579997
  65.1339992  70.2554990  62.5409997  66.2433073  68.8663499  62.8267592
  66.9489992  70.7454990  63.5929997  66.7094752  71.7980153  63.4415516
  66.6060731  70.4336783  64.5795436  68.4279992  70.5524990  63.4959997
  68.8949992  70.7294990  64.4889997  67.3537880  70.7308719  63.5445028
  69.0349992  71.4854990  62.5439997  69.0009992  72.4494990  62.9329997
  68.5099992  71.4554990  61.6469997  70.0239992  71.2144990  62.3759997
  67.7789992  68.6874990  59.3199997  68.0389992  69.6234990  58.5409997
  68.4869992  67.5634990  59.4079997  68.2010608  66.8313874  60.0423113
  69.7319992  67.3724990  58.6319997  70.2299992  68.3274990  58.5509997
  70.6179992  66.3724990  59.3269997  70.8774545  66.7435282  60.3185239
  70.8699992  66.7344990  60.3469997  71.5509992  66.2224990  58.7419997
  69.3909992  66.9174990  57.2159997  70.2829992  66.9364990  56.3499997
  68.1479992  66.4894990  56.9929997  67.4900999  66.3482049  57.7461954
  67.7299992  66.1184990  55.6099997  68.3799992  65.3244990  55.2729997
  66.2619992  65.6554990  55.5609997  66.1239992  64.8104990  56.2699997
  65.2979992  66.7824990  55.9359997  65.2809992  67.5524990  55.1339997
  65.6269992  67.2624990  56.8819997  64.2709992  66.3764990  56.0589997
  65.9189992  65.0384990  54.2079997  64.9301491  64.5889307  54.2983576
  65.8834699  65.8502849  53.4814731  66.9119992  63.9874990  53.7439997
  66.9477385  63.1751098  54.4698415  66.6009878  63.5954455  52.7756685
  67.9010604  64.4364639  53.6529593  68.0019992  67.3394990  54.7229997
  68.3779992  67.1474990  53.5509997  67.8629992  68.5434990  55.2789997
  67.5849913  68.6749749  56.2410418  68.0629992  69.7264990  54.4489997
  67.4259992  69.6414990  53.5809997  67.7179992  70.9854990  55.2429997
  67.8959992  70.7654990  56.3159997  68.4271887  71.7531776  54.9334518
  66.2939992  71.5244990  55.1099997  65.6229992  70.9694990  55.7989997
  66.2559992  73.0034990  55.4499997  66.9079735  73.5503046  54.7688007
  65.2355295  73.3735236  55.3508832  66.5971720  73.1501385  56.4747915
  65.7569992  71.2854990  53.7099997  65.7488996  70.2157325  53.5011133
  64.7422884  71.6769651  53.6377676  66.3937663  71.7919842  52.9846726
  69.4849992  69.8244990  53.9169997  69.7119992  70.5044990  52.9109997
  70.4449992  69.1654990  54.5679997  70.2552991  68.6909743  55.4391710
  71.8149992  69.1714990  54.0679997  72.0979992  70.1944990  53.8669997
  72.7479992  68.5514990  55.1119997  72.2399992  68.6324990  56.0939997
  72.8206151  67.4968499  54.8464016  74.1539992  69.1324990  55.2819997
  74.1079992  70.2404990  55.2199997  74.7229992  68.7224990  56.6279997
  74.7742033  67.6352190  56.6854396  75.7236248  69.1393833  56.7422661
  74.0803866  69.0980270  57.4243212  75.0819992  68.6884990  54.1649997
  74.6850817  69.0244691  53.2070435  76.0705713  69.1207663  54.3198268
  75.1573986  67.6011104  54.1652190  71.9269992  68.4354990  52.7399997
  72.8479992  68.7014990  51.9609997  71.0009992  67.5144990  52.4589997
  70.2999857  67.2869598  53.1495830  70.9959992  66.7804990  51.2039997
  71.9119992  67.0054990  50.6789997  70.8879992  65.2714990  51.4669997
  71.5934336  64.9868161  52.2476520  71.6389992  64.9644990  52.2249997
  71.0579992  64.7094990  50.5229997  69.8799992  67.1894990  50.2549997
  70.0279992  67.0074990  49.0439997  68.7719992  67.7284990  50.7699997
  68.6494206  67.8048983  51.7696181  67.6769992  68.1544990  49.9039997
  67.4559992  67.3484990  49.2189997  66.4339992  68.5004990  50.7429997
  66.7509992  69.0124990  51.6769997  65.4959992  69.4104990  49.9629997
  65.1639992  68.9074990  49.0299997  66.0209992  70.3504990  49.6909997
  64.6009992  69.6464990  50.5769997  65.7099992  67.2274990  51.1799997
  65.6032221  66.5947307  50.2989187  66.3442799  66.7268478  51.9115295
  64.3479992  67.4824990  51.7849997  63.7129633  67.9827469  51.0538491
  63.8937411  66.5339796  52.0714605  64.4540211  68.1148663  52.6664591
  68.1099992  69.3364990  49.0469997  67.9039992  69.3554990  47.8279997
  68.7139992  70.3414990  49.6759997  68.8661902  70.3080760  50.6739076
  69.0559992  71.5704990  48.9639997  68.1899992  71.8964990  48.4079997
  69.4789992  72.6324990  49.9809997  70.3699992  72.2544990  50.5249997
  69.7828376  73.5230300  49.4307844  68.4159992  73.0094990  51.0129997
  67.8629992  72.0964990  51.3169997  69.0429992  73.6444990  52.2419997
  69.5799606  74.5473879  51.9512026  68.2618146  73.9014894  52.9574068
  69.7378401  72.9409851  52.7006550  67.3909992  73.9424990  50.3949997
  66.9090103  73.4466904  49.5524085  66.6398898  74.2030705  51.1406795
  67.8868438  74.8488167  50.0474003  70.1019992  71.3684990  47.8719997
  69.9039992  71.8954990  46.7629997  71.2179992  70.6634990  48.0939997
  71.8119992  70.2224990  49.3689997  71.2222887  70.5904121  48.5293678
  71.3623217  69.3076649  49.7549632  73.2599992  70.0454990  49.0219997
  73.8109992  71.0044990  49.1299997  72.2405460  70.1522734  49.3926958
  73.2649992  69.5964990  47.6129997  73.0909992  68.5014990  47.5459997
  74.2004768  69.8155072  47.0982019  72.1129992  70.3744990  46.9599997
  72.4069992  71.2884990  46.4699997  71.4419992  69.5674990  45.8649997
  71.8159992  69.6954990  44.6929997  70.4619992  68.7324990  46.2169997
  70.2449528  68.5750758  47.1907595  69.7249992  67.9754990  45.2139997
  70.4359992  67.4724990  44.5769997  68.8129992  66.9614990  45.9089997
  69.4449992  66.3214990  46.5599997  68.1288123  67.5362008  46.5332641
  68.0169992  66.0544990  44.9889997  67.0769992  65.7724990  45.5089997
  67.7796866  66.6347137  44.0972959  68.8939992  64.5564990  44.5049997
  69.5529992  65.0504990  42.9179997  68.7399098  65.1363438  42.1971562
  68.7329992  65.1484990  42.1759997  70.2829992  64.2954990  42.5549997
  68.9199992  68.8924990  44.2999997  68.6009992  68.5154990  43.1669997
  68.5919992  70.1004990  44.7689997  68.8359609  70.3771995  45.7092224
  67.8169992  71.0314990  43.9519997  66.9249992  70.5234990  43.6179997
  67.4519992  72.2724990  44.7679997  68.3689992  72.8674990  44.9669997
  66.7478767  72.8722866  44.1913142  66.8659992  71.9194990  46.0079997
  66.6479191  72.7162007  46.4971900  68.5679992  71.4374990  42.6919997
  67.9429992  71.7664990  41.6779997  69.9009992  71.4334990  42.7379997
  70.3937522  71.2213141  43.5937283  70.6829992  71.7984990  41.5619997
  70.3179992  72.7464990  41.1959997  72.1639992  71.9024990  41.9239997
  72.3739992  71.1054990  42.6659997  72.7059813  71.6626950  41.0092049
  72.7009992  73.2084990  42.5059997  73.6809992  73.0324990  42.9989997
  72.8629992  74.1864990  41.3649997  71.8969554  74.3527077  40.8883102
  73.2460609  75.1323300  41.7481032  73.5629725  73.7807383  40.6345915
  71.8189992  73.7914990  43.5999997  71.7367642  73.0780101  44.4199207
  72.2601313  74.7178255  43.9679983  70.8272972  73.9969433  43.1969878
  70.4889992  70.8034990  40.4269997  70.3249992  71.1974990  39.2659997
  70.5089992  69.5094990  40.7369997  70.6624205  69.2196269  41.6922669
  70.3799992  68.4804990  39.7159997  70.9039992  68.8134990  38.8329997
  70.9689992  67.1584990  40.2209997  70.2429992  66.7054990  40.9279997
  71.0621118  66.4853797  39.3687435  72.3179992  67.2674990  40.9339997
  72.2409992  68.0164990  41.7509997  72.7389992  65.9304990  41.5199997
  72.8267929  65.1944365  40.7208732  73.7012419  66.0393362  42.0203438
  71.9914362  65.5971337  42.2398035  73.3799992  67.7904990  39.9839997
  73.0902966  68.7769181  39.6218546  74.3333214  67.8618087  40.5076341
  73.4801079  67.1088816  39.1393252  68.9419992  68.2594990  39.2659997
  68.7239992  67.5544990  38.2749997  67.9649992  68.8474990  39.9549997
  68.1955858  69.4253842  40.7505987  66.5579992  68.6444990  39.6329997
  66.3619992  67.5824990  39.6359997  65.6719992  69.3524990  40.6569997
  64.6289992  69.3974990  40.2779997  65.6959047  68.7879555  41.5891044
  66.1229992  70.6734990  40.8939997  65.5512739  71.0958849  41.5392284
  66.2229992  69.1384990  38.2309997  65.4789992  68.4804990  37.4979997
  66.7649992  70.2944990  37.8509997  67.3691763  70.7944143  38.4875168
  66.4579992  70.9074990  36.5639997  65.4419992  70.6484990  36.3059997
  66.6159992  72.4374990  36.6319997  66.1269992  72.8994990  35.7479997
  65.9789992  72.9764990  37.8999997  66.4630385  72.5299381  38.7685561
  66.0980940  74.0594055  37.9350768  64.9177933  72.7277490  37.9081921
  68.0859992  72.8204990  36.5769997  68.4949992  72.6204990  35.5629997
  68.6609992  72.2224990  37.3159997  68.2029992  73.9034990  36.7989997
  67.3419992  70.3144990  35.4749997  67.2849992  70.7374990  34.3149997
  68.1559992  69.3264990  35.8349997  68.1414889  68.9654949  36.7781671
  69.0969992  68.7524990  34.8939997  69.3579992  69.5274990  34.1889997
  69.9804558  68.4586719  35.4608061  68.5859992  67.5544990  34.1219997
  68.6849992  67.5204990  32.8919997  68.0399992  66.5634990  34.8229997
  67.9413666  66.6539342  35.8240953  67.6119992  65.3214990  34.1969997
  67.4619992  65.5144990  33.1449997  68.6579992  64.2144990  34.3879997
  69.0259992  64.2574990  35.4349997  68.1500873  63.2643083  34.2228840
  69.8559992  64.3194990  33.4509997  69.5109992  64.1514990  32.4089997
  70.2558266  65.3287769  33.5489694  70.9529992  63.3024990  33.7769997
  71.5874284  63.2126064  32.8952299  71.5349768  63.7124597  34.6024291
  70.4209992  61.9214990  34.1649997  71.2499992  61.1844990  34.1069997
  70.7480760  62.8987861  33.8099929  69.3229992  61.4154990  33.2879997
  69.7059992  61.1834990  32.3489997  68.5899992  62.1474990  33.1919997
  68.9059992  60.5624990  33.7119997  66.2789992  64.8814990  34.7809997
  65.9419992  65.2344990  35.9139997  65.5239992  64.1084990  33.9949997
  65.8251900  63.8660629  33.0619358  64.2129992  63.6464990  34.4409997
  63.6449992  64.5054990  34.7669997  63.4919992  62.9324990  33.2969997
  63.3835356  63.6142773  32.4534868  63.3649992  63.6264990  32.4389997
  62.4979992  62.5754990  33.6409997  64.3239992  62.7294990  35.6529997
  63.5449992  62.8504990  36.6059997  65.2779992  61.8034990  35.6329997
  65.8719480  61.6940742  34.8234625  65.4889992  60.9224990  36.7639997
  64.5679992  60.3904990  36.9539997  66.2751341  60.2070430  36.5227236
  65.8869992  61.6914990  38.0049997  65.3639992  61.4494990  39.0989997
  66.8169992  62.6354990  37.8329997  67.2987081  62.7397698  36.9514196
  67.1979992  63.5084990  38.9359997  67.5209992  62.8884990  39.7589997
  68.3219992  64.4464990  38.5029997  68.1299992  64.7844990  37.4629997
  68.3105237  65.3020299  39.1783035  69.6799992  63.7874990  38.5489997
  69.8589992  62.8444990  39.3469997  70.5729992  64.2134990  37.7869997
  66.0109992  64.3134990  39.4349997  65.8779992  64.5354990  40.6419997
  65.1399992  64.7534990  38.5269997  65.3206469  64.6419590  37.5395663
  63.9329992  65.4634990  38.9329997  64.2239992  66.2994990  39.5499997
  63.1739992  65.9484990  37.6989997  63.7380811  66.7457279  37.2149153
  63.7429992  66.7624990  37.2009997  62.1699992  66.3194990  37.9949997
  63.0479992  64.5764990  39.7979997  62.5089992  65.0184990  40.8159997
  62.8889992  63.3114990  39.4049997  63.2970381  62.9792369  38.5429059
  62.0639992  62.3904990  40.1799997  61.0969992  62.8474990  40.3299997
  61.9179992  61.0634990  39.4359997  60.8789992  60.6874990  39.5459997
  62.1334594  61.2286544  38.3803479  62.8089992  60.0904990  39.9529997
  62.6990053  59.2676324  39.4709294  62.6459992  62.1644990  41.5709997
  61.9229992  62.2064990  42.5769997  63.9589992  61.9234990  41.6469997
  64.5266309  61.8231812  40.8176445  64.5889992  61.7034990  42.9499997
  64.0279992  60.9364990  43.4629997  66.0599992  61.2724990  42.7979997
  66.6229992  62.0664990  42.2629997  66.6899992  61.0394990  44.1609997
  66.0409992  60.3764990  44.7729997  66.8099992  62.0074990  44.6929997
  67.6809992  60.5524990  44.0409997  66.1929992  60.0224990  41.9289997
  66.3384260  59.1757369  42.5997796  65.2533255  59.9012506  41.3901013
  67.3369992  60.0844990  40.9399997  68.2771219  60.2052845  41.4782190
  67.3669144  59.1621300  40.3599654  67.1920222  60.9308002  40.2685417
  64.4629992  62.9494990  43.8169997  64.1629992  62.8634990  45.0139997
  64.6959992  64.1264990  43.2289997  64.9917869  64.1820204  42.2648802
  64.5819992  65.3644990  43.9889997  65.2169992  65.2844990  44.8579997
  65.0009992  66.5564990  43.1319997  66.1089992  66.5794990  43.0509997
  64.5772238  66.4875104  42.1301239  64.5669992  67.8814990  43.6919997
  65.2599992  68.4664990  44.7359997  66.1309167  67.9583003  45.1499282
  64.8589992  69.6814990  45.2539997  65.4140288  70.1329822  46.0763170
  63.7569992  70.3234990  44.7319997  63.4429992  71.2744990  45.1359997
  63.0569992  69.7504990  43.6939997  62.1929992  70.2514990  43.2829997
  63.4609992  68.5364990  43.1799997  62.9067497  68.0803442  42.3597374
  63.1669992  65.5654990  44.5059997  62.9739992  65.9474990  45.6639997
  62.1649992  65.3194990  43.6619997  62.3400001  65.0446428  42.7060038
  60.7829992  65.5034990  44.0859997  60.6789992  66.5074990  44.4699997
  59.8369992  65.2834990  42.9059997  60.3549992  64.6334990  42.1699997
  58.9703836  64.7415704  43.2846694  59.3709992  66.5414990  42.1749997
  58.7909992  66.2534990  41.2719997  58.5019992  67.3714990  43.0899997
  59.0732294  67.6583786  43.9728898  58.1720348  68.2675807  42.5643937
  57.6327128  66.7883721  43.3939808  60.5429992  67.3584990  41.6779997
  61.1380468  66.7592991  40.9888136  60.1754752  68.2460072  41.1628720
  61.1612137  67.6597529  42.5236686  60.4389992  64.5644990  45.2319997
  59.8679992  64.9864990  46.2439997  60.8049992  63.2874990  45.0989997
  61.2476743  62.9573532  44.2533390  60.5019992  62.3164990  46.1459997
  59.4399992  62.3524990  46.3409997  60.9179992  60.9034990  45.7019997
  61.9519992  60.9344990  45.2969997  60.8639992  59.9404990  46.8779997
  59.8319992  59.8944990  47.2869997  61.5489992  60.2854990  47.6809997
  61.1589992  58.9214990  46.5459997  60.0269992  60.4204990  44.5569997
  59.0135089  60.7618771  44.7677108  60.3867215  60.8938910  43.6434356
  60.0259992  58.9234990  44.3799997  59.6659315  58.4493974  45.2930598
  59.3721993  58.6556885  43.5499861  61.0391452  58.5814109  44.1687867
  61.1839992  62.7124990  47.4489997  60.5509992  62.7774990  48.5119997
  62.4869992  62.9984990  47.3799997  62.9793098  62.9598639  46.4989566
  63.2479992  63.3104990  48.5839997  63.0939992  62.5154990  49.2969997
  64.7319992  63.4414990  48.2409997  65.0479992  62.5024990  47.7409997
  64.8239298  64.2526770  47.5187539  65.6839992  63.6904990  49.4099997
  65.3619992  64.5994990  49.9599997  65.6839992  62.5044990  50.3559997
  66.0069176  61.6118139  49.8203357  66.3672746  62.6985567  51.1827869
  64.6778044  62.3497860  50.7455331  67.0859992  63.9724990  48.9009997
  67.0704422  64.8556749  48.2623623  67.7515809  64.1476446  49.7462371
  67.4441377  63.1169609  48.3283825  62.7389992  64.5794990  49.2509997
  62.5849992  64.6214990  50.4749997  62.4649992  65.6244990  48.4659997
  62.6087784  65.5781592  47.4673608  62.0139992  66.8844990  49.0409997
  62.6769992  67.1424990  49.8529997  62.0239992  67.9794990  47.9739997
  61.3169992  67.7194990  47.1579997  61.6129992  69.3114990  48.5769997
  62.2019992  69.5114990  49.4979997  60.5349992  69.2894990  48.8429997
  61.8019992  70.1294990  47.8499997  63.3429992  68.1004990  47.4289997
  63.3505054  68.7878355  46.7588411  60.6299992  66.7454990  49.6559997
  60.3869992  67.2214990  50.7699997  59.7059992  66.0834990  48.9509997
  59.8986590  65.7298598  48.0247594  58.3619992  65.9154990  49.4889997
  57.9859992  66.8884990  49.7689997  57.4519992  65.2724990  48.4439997
  57.7439992  64.2114990  48.2899997  56.0029992  65.3264990  48.8989997
  55.7409992  66.3584990  49.2169997  55.8509992  64.6404990  49.7599997
  55.3329992  65.0324990  48.0629997  57.5769992  65.9764990  47.2029997
  57.0049588  65.5720526  46.5466513  58.3799992  65.0854990  50.7669997
  57.6479992  65.3844990  51.7179997  59.2079992  64.0394990  50.8129997
  59.7773854  63.7769856  50.0211755  59.2489992  63.1974990  52.0039997
  58.2329992  63.0144990  52.3239997  59.9549992  61.8784990  51.6879997
  60.8489992  62.0704990  51.0559997  60.3909992  61.1904990  52.9649997
  59.5419992  61.1374990  53.6799997  61.2179992  61.7614990  53.4389997
  60.7309992  60.1564990  52.7409997  59.0579992  61.0164990  50.9789997
  59.5004630  60.1880698  50.7801750  59.9269992  63.9104990  53.1699997
  59.4069992  63.9194990  54.2919997  61.0879992  64.5234990  52.9259997
  61.4845182  64.5500019  51.9974688  61.8199992  65.1624990  54.0059997
  61.9259992  64.4424990  54.8039997  62.8061141  65.4414949  53.6347341
  61.1289992  66.3984990  54.5479997  61.1399992  66.6444990  55.7579997
  60.5279992  67.1994990  53.6639997  60.5655663  67.0092772  52.6727864
  59.8539992  68.4134990  54.1099997  60.5499992  68.9874990  54.7029997
  59.3869992  69.2224990  52.9019997  59.1159992  68.5194990  52.0859997
  58.5131245  69.8216796  53.1577838  60.4179992  70.1714990  52.3769997
  60.1259992  71.1514990  51.4529997  61.2239992  71.8324990  51.1759997
  61.2006253  72.6568072  50.4632104  62.2169992  71.3284990  51.8849997
  63.1749342  71.6485064  51.8775316  61.7399992  70.2884990  52.6439997
  62.4141264  69.7397719  53.3016869  58.6839992  68.0854990  55.0249997
  58.4159992  68.8104990  55.9899997  57.9699992  66.9944990  54.7369997
  58.0975504  66.5004923  53.8653418  56.9229992  66.5384990  55.6429997
  56.2999992  67.3844990  55.8909997  56.0919992  65.4384990  54.9759997
  55.6569992  65.8334990  54.0339997  56.7956755  64.6265598  54.7924392
  54.9399992  64.9274990  55.8169997  55.1579992  64.0494990  56.8709997
  56.1779077  63.7244256  57.0764587  54.1219992  63.5914990  57.6469997
  54.3109563  62.8961552  58.4648592  52.8429992  64.0144990  57.3879997
  51.8179992  63.5494990  58.1719997  51.3039992  64.3044990  58.4659997
  52.5919992  64.8934990  56.3549997  51.5829992  65.2224990  56.1539997
  53.6399992  65.3494990  55.5789997  53.4514817  66.0513154  54.7665866
  57.4999992  66.0624990  56.9699997  56.8709992  66.2484990  58.0159997
  58.6929992  65.4644990  56.9539997  59.1796319  65.2949262  56.0853610
  59.2969992  64.9824990  58.1899997  58.5839992  64.3384990  58.6839997
  60.5839992  64.2184990  57.8849997  60.7069992  63.3894990  58.6149997
  60.5159257  63.8071931  56.8778782  61.7129992  65.0684990  57.9719997
  62.5074649  64.5662680  57.7765816  59.5839992  66.1124990  59.1689997
  59.8199992  65.8464990  60.3509997  59.5729992  67.3604990  58.7029997
  59.4823561  67.5146386  57.7089553  59.7409992  68.5194990  59.5689997
  60.4019992  68.2444990  60.3779997  60.3289992  69.6834990  58.7689997
  59.9909992  69.5674990  57.7189997  59.8735190  70.5846744  59.1795124
  61.8499992  69.8484990  58.7409997  62.2009992  70.1554990  59.7489997
  62.5439992  68.5574990  58.3459997  62.2123384  68.2553171  57.3526286
  63.6228867  68.7124738  58.3367535  62.2958054  67.7763873  59.0645849
  62.2279992  70.9614990  57.7839997  61.7704479  71.8947362  58.1123508
  63.3119626  71.0749036  57.7677523  61.8737988  70.7163712  56.7827238
  58.4409992  68.9614990  60.2279997  58.4629992  69.9004990  61.0299997
  57.3159992  68.3254990  59.8999997  57.3090419  67.6182814  59.1789628
  56.0439992  68.7114990  60.5029997  55.9079992  69.7734990  60.3559997
  54.8989992  67.9284990  59.8489997  55.2869992  66.9574990  59.4739997
  54.1024005  67.7451552  60.5700514  54.2699992  68.6334990  58.6849997
  55.0469992  69.3524990  57.7939997  56.1250410  69.4019928  57.9472190
  54.4719992  70.0024990  56.7209997  55.0946784  70.5674008  56.0272726
  53.1089992  69.9354990  56.5259997  52.6569992  70.4424990  55.6859997
  52.3229992  69.2214990  57.4059997  51.2549992  69.1684990  57.2569997
  52.9039992  68.5754990  58.4779997  52.2848126  68.0098648  59.1742509
  56.0089992  68.5524990  62.0209997  55.5119992  69.4744990  62.6919997
  56.4829992  67.4544990  62.6229997  56.8909992  66.1704990  62.0199997
  56.5952679  67.1839427  62.2912468  57.9169398  66.1781733  61.6519154
  56.6929992  65.1944990  63.1389997  55.6469992  64.8204990  63.1559997
  56.8605200  65.8043250  62.2512213  56.9969992  65.9564990  64.3669997
  58.0919992  66.0014990  64.5459997  56.5185828  65.5279437  65.2476572
  56.4289992  67.3544990  64.0909997  55.4219992  67.5104990  64.4429997
  57.2249992  68.4274990  64.8169997  57.1089992  68.5324990  66.0439997
  58.0399992  69.2144990  64.1079997  58.2194841  69.0370377  63.1300467
  58.7269992  70.3344990  64.7459997  59.2879992  69.9504990  65.5849997
  59.6609992  71.0204990  63.7509997  59.4319992  70.6154990  62.7439997
  59.3931457  72.0769352  63.7682317  61.1629992  70.8734990  63.9719997
  61.4159992  71.1444990  65.0189997  61.5639992  69.4484990  63.7049997
  61.3184246  69.1882254  62.6754126  62.6369542  69.3370539  63.8613595
  61.0276045  68.7861616  64.3844776  61.9289992  71.8294990  63.0769997
  61.6369264  72.8545514  63.3051673  62.9987997  71.7103327  63.2485442
  61.7023916  71.6114347  62.0333542  57.7439992  71.3534990  65.2989997
  57.9969992  71.9564990  66.3489997  56.6309992  71.5684990  64.6049997
  56.4857995  71.0416540  63.7556171  55.6239992  72.5474990  64.9909997
  56.0409992  73.1644990  65.7729997  55.2149992  73.4134990  63.7959997
  54.7589992  72.7304990  63.0499997  54.4449004  74.0698754  64.2012375
  56.2559992  74.2504990  63.0459997  56.6519992  73.6704990  62.1859997
  55.6089992  75.5244990  62.5459997  55.2248403  76.0939077  63.3923414
  56.3475250  76.1222471  62.0117922  54.7881106  75.2759617  61.8733396
  57.4479992  74.5884990  63.9259997  57.9259541  73.6677827  64.2605743
  58.1632717  75.1826606  63.3572655  57.1109424  75.1578262  64.7922318
  54.4189992  71.8044990  65.5449997  53.8079992  70.9954990  64.8379997
  54.0759992  72.0804990  66.8019997  54.6346758  72.7241644  67.3439172
  52.9439992  71.4364990  67.4489997  52.4409992  70.8264990  66.7129997
  53.4159992  70.5714990  68.6279997  52.5409992  70.2984990  69.2549997
  53.8983105  69.6643440  68.2639314  54.4079992  71.2554990  69.5239997
  53.9819992  72.1144990  70.5219997  52.9140185  72.2900112  70.6512765
  54.8899992  72.7454990  71.3479997  54.5413260  73.4227781  72.1276282
  56.2409992  72.5184990  71.1849997  56.9539992  73.0094990  71.8309997
  56.6799992  71.6624990  70.1959997  57.7369992  71.4834990  70.0659997
  55.7659992  71.0354990  69.3719997  56.1112585  70.3577798  68.5912355
  51.8879992  72.4064990  67.9509997  50.7759992  71.9654990  68.2649997
  52.1949992  73.6974990  68.0449997  53.1278705  74.0226745  67.8349724
  51.2109992  74.6694990  68.4959997  50.7839992  74.3094990  69.4209997
  51.8649992  76.0344990  68.7079997  51.0829992  76.8214990  68.7759997
  52.6719992  76.0404990  69.9939997  53.4679992  75.2674990  69.9489997
  52.0089992  75.8164990  70.8579997  53.1489992  77.0334990  70.1369997
  52.7289992  76.3294990  67.6049997  53.1387725  77.1870936  67.7399722
  50.0749992  74.7854990  67.4889997  50.2819992  74.6794990  66.2759997
  48.8639992  74.9954990  68.0029997  48.7136892  74.9929139  69.0017487
  47.7029992  75.1284990  67.1289997  47.6569992  74.2574990  66.4909997
  46.4279992  75.2434990  67.9759997  46.3550382  74.3839366  68.6422799
  46.3119992  74.3384990  68.6099997  45.5429992  75.3514990  67.3139997
  47.8079992  76.2884990  66.1429997  47.4649992  76.0844990  64.9649997
  48.2359992  77.4994990  66.5269997  48.5179992  78.0044990  67.8829997
  48.3033955  77.4657260  66.9600862  49.5092873  77.7281845  68.2423007
  48.3569992  79.4844990  67.7349997  47.2979992  79.7814990  67.8879997
  48.4879121  78.4264480  67.9619167  48.7889992  79.7854990  66.3519997
  49.8929992  79.8984990  66.2989997  48.3231923  80.6955353  65.9739026
  48.3249992  78.5774990  65.5259997  47.3769992  78.7084990  65.0289997
  49.2789992  78.2864990  64.3789997  49.0319992  78.7414990  63.2559997
  50.3659992  77.5494990  64.6199997  50.5592249  77.2072249  65.5503822
  51.3369992  77.2754990  63.5669997  51.4199992  78.1574990  62.9489997
  52.7019992  76.9174990  64.1709997  52.5219992  76.2994990  65.0739997
  53.2108769  76.3185985  63.4157105  53.6019992  78.0994990  64.5809997
  54.5189992  77.6874990  65.0509997  53.8667106  78.6140782  63.6572923
  52.9849992  79.0964990  65.5599997  51.7979992  78.9804990  65.9249997
  53.7079992  80.0324990  65.9589997  50.9069992  76.1674990  62.6149997
  51.5399992  76.0004990  61.5669997  49.8679992  75.4034990  62.9489997
  49.4225326  75.4884400  63.8514651  49.4209992  74.3384990  62.0529997
  50.2709992  73.7174990  61.8109997  48.3309992  73.5124990  62.7459997
  48.7929992  73.0104990  63.6209997  47.5878703  74.2171802  63.1192071
  47.6379992  72.4384990  61.9059997  47.2129992  72.9044990  60.9909997
  48.6219992  71.3574990  61.5059997  49.0359907  70.8930656  62.4009921
  48.1103502  70.6025473  60.9090373  49.4283797  71.7982990  60.9198715
  46.4649992  71.8414990  62.6629997  45.7450371  72.6260428  62.8959050
  45.9852910  71.0795977  62.0485994  46.8213932  71.3896703  63.5887065
  48.9589992  74.8594990  60.6949997  49.4539992  74.3594990  59.6679997
  48.0419992  75.8324990  60.5999997  47.3269992  76.5594990  61.6649997
  47.8594988  75.8828027  60.9966984  47.9652829  76.8091204  62.5125739
  46.8129992  77.7734990  60.9619997  45.8859992  78.1454990  61.4479997
  47.2463316  76.9639129  61.5492771  46.5359992  77.3314990  59.5759997
  46.5889992  78.1884990  58.8709997  45.5538257  76.8679405  59.4835431
  47.6319992  76.3024990  59.2659997  47.3119992  75.4714990  58.6569997
  48.7599992  76.9154990  58.4599997  48.7959992  76.7324990  57.2369997
  49.6909992  77.6264990  59.0999997  49.6334541  77.7897436  60.0950570
  50.7759992  78.2624990  58.3549997  50.3409992  78.8174990  57.5379997
  51.5859992  79.2014990  59.2679997  52.1999992  78.5954990  59.9669997
  52.4959992  80.0924990  58.4379997  51.8919992  80.7094990  57.7389997
  53.1979992  79.4684990  57.8449997  53.0699992  80.7704990  59.1049997
  50.6529992  80.0444990  60.1379997  50.4724310  80.9802461  59.6089692
  49.7159768  79.4962731  60.2356560  51.2069992  80.3414990  61.5099997
  52.1438546  80.8901551  61.4131581  50.4904467  80.9429763  62.0693534
  51.3874026  79.4061813  62.0398443  51.6669992  77.2094990  57.7089997
  51.9919992  77.2904990  56.5179997  52.0739992  76.2024990  58.4859997
  51.8585663  76.1708033  59.4722468  52.9309992  75.1614990  57.9319997
  53.7369992  75.6404990  57.3959997  53.4879992  74.2744990  59.0489997
  54.3539992  73.7124990  58.6409997  53.8256903  74.9580475  59.8279902
  52.5159992  73.2694990  59.6439997  51.6299992  73.8084990  60.0409997
  52.2033884  72.5851767  58.8552795  53.1689992  72.4814990  60.7689997
  54.0796842  72.0163557  60.3916489  53.4216325  73.1771304  61.5692326
  52.2389992  71.4094990  61.3059997  51.3089992  71.8794990  61.6909997
  52.9360994  72.1731666  60.9610905  52.8549992  70.6444990  62.4229997
  52.9299992  71.2544990  63.2619997  53.8029992  70.3234990  62.1419997
  52.2619992  69.8194990  62.6459997  52.1899992  74.3384990  56.8859997
  52.7739992  73.9564990  55.8649997  50.8949992  74.0804990  57.1009997
  50.4441023  74.3397806  57.9667735  50.1199992  73.3344990  56.1129997
  50.6469992  72.4174990  55.8959997  48.7099992  73.0264990  56.6519997
  48.3419992  73.8964990  57.2369997  47.7469992  72.7464990  55.5089997
  48.0989992  71.8724990  54.9199997  47.6919992  73.6284990  54.8359997
  46.7379992  72.5194990  55.9119997  48.7529992  71.8404990  57.6139997
  49.2626118  71.0243381  57.1018696  49.3380695  72.1460689  58.4814207
  47.3869992  71.3764990  58.0659997  46.8014693  71.0703079  57.1991077
  47.4963245  70.5321349  58.7465851  46.8769260  72.1920402  58.5786571
  50.0599992  74.1004990  54.7959997  50.2829992  73.5364990  53.7189997
  49.7709992  75.4034990  54.8669997  49.5750272  75.8443558  55.7543212
  49.6699992  76.2104990  53.6569997  48.9989992  75.7134990  52.9719997
  49.1429992  77.6034990  54.0069997  48.1859992  77.4634990  54.5489997
  49.8582704  78.0299732  54.7102826  48.8789992  78.6034990  52.8789997
  49.8269992  79.1224990  52.6239997  48.3389992  77.9134990  51.6319997
  47.4021563  77.4103912  51.8713878  48.1636802  78.6552582  50.8527967
  49.0644027  77.1806543  51.2786883  47.9279992  79.6944990  53.3449997
  48.3675233  80.2235153  54.1906117  47.7519313  80.3963062  52.5297893
  46.9818186  79.2469063  53.6491409  51.0129992  76.3084990  52.9429997
  51.0749992  76.1984990  51.7119997  52.0979992  76.5194990  53.6939997
  52.0299474  76.6652900  54.6911021  53.4139992  76.6134990  53.0689997
  53.3619992  77.3534990  52.2839997  54.4619992  77.0114990  54.1089997
  54.0849992  76.6944990  55.1029997  55.3588889  76.4289306  53.8985168
  54.8279992  78.4944990  54.2039997  55.5969992  78.6334990  54.9929997
  55.3729992  78.9934990  52.8759997  54.6175263  78.8641940  52.1009902
  55.6282280  80.0497617  52.9612528  56.2646890  78.4249459  52.6119217
  53.6399992  79.3304990  54.6449997  53.3022865  78.9942115  55.6252855
  53.9338631  80.3785713  54.7023552  52.8296645  79.2198055  53.9244418
  53.7979992  75.3054990  52.3909997  54.2889992  75.3074990  51.2519997
  53.5729992  74.1744990  53.0669997  53.2401266  74.1954770  54.0203386
  53.8589992  72.8784990  52.4629997  54.8939992  72.8704990  52.1559997
  53.5909992  71.7614990  53.4719997  54.3469992  71.8294990  54.2819997
  52.6033226  71.9330932  53.8999603  53.6479992  70.3674990  52.8749997
  53.5799992  69.6324990  53.7029997  52.7800872  70.2624129  52.2240099
  55.1429992  70.0494990  51.9239997  55.8519992  68.7184990  52.8809997
  56.2072301  69.1060147  53.8358513  56.2119992  69.1004990  53.8599997
  56.7049992  68.2644990  52.3329997  53.0339992  72.6664990  51.2039997
  53.5579992  72.2264990  50.1729997  51.7379992  72.9794990  51.2649997
  51.3212920  73.3167122  52.1210030  50.8749992  72.7794990  50.1089997
  50.9529992  71.7464990  49.8039997  49.4309992  73.1214990  50.4699997
  49.3079992  72.9674990  51.5619997  49.2873321  74.1828866  50.2677226
  48.3449992  72.3164990  49.7589997  48.3779992  72.5344990  48.6699997
  48.5559992  70.8274990  49.9799997  48.5171445  70.6089512  51.0471576
  47.7733846  70.2689561  49.4665359  49.5289916  70.5353200  49.5850088
  46.9659992  72.7434990  50.2329997  46.8187523  73.8018056  50.0175821
  46.2059409  72.1586256  49.7149883  46.8826339  72.5768222  51.3069494
  51.3469992  73.6124990  48.9259997  51.4739992  73.1054990  47.8059997
  51.6399992  74.8934990  49.1639997  51.5273472  75.2925708  50.0849506
  52.0709992  75.7684990  48.0789997  51.3349992  75.7154990  47.2909997
  52.2099992  77.2034990  48.5849997  52.8469992  77.1804990  49.4939997
  52.7447554  77.7606549  47.8157708  50.9189992  77.9394990  48.9419997
  50.4929992  77.5064990  49.8719997  51.1919992  79.4194990  49.1529997
  51.6024508  79.8477645  48.2385507  50.2620674  79.9285073  49.4064519
  51.9075694  79.5452693  49.9655522  49.8709992  77.7344990  47.8609997
  49.6548996  76.6708477  47.7607676  48.9590180  78.2659655  48.1329093
  50.2462390  78.1194192  46.9127747  53.3809992  75.2874990  47.4699997
  53.5009992  75.1604990  46.2429997  54.3789992  75.0054990  48.3149997
  54.2714301  75.1021650  49.3145915  55.6829992  74.6124990  47.7949997
  55.9969992  75.3574990  47.0789997  56.6989992  74.5054990  48.9319997
  56.7849992  75.4884990  49.4409997  56.3920826  73.7572059  49.6627251
  58.0759992  74.1184990  48.4729997  58.9099992  75.0524990  47.8809997
  58.5564242  76.0756368  47.7534318  60.1739992  74.7014990  47.4549997
  60.8211151  75.4469584  46.9927962  60.6189992  73.4064990  47.6149997
  61.6089992  73.1304990  47.2819997  59.7989992  72.4664990  48.1989997
  60.1449992  71.4504990  48.3239997  58.5349992  72.8224990  48.6239997
  57.8855174  72.0786186  49.0854271  55.5939992  73.2994990  47.0299997
  56.1369992  73.1764990  45.9259997  54.9009992  72.3064990  47.5949997
  54.4851765  72.4098021  48.5096139  54.7829992  71.0184990  46.9239997
  55.7769992  70.6764990  46.6759997  54.0849992  70.0124990  47.8379997
  52.9939992  70.2204990  47.8669997  54.2959992  68.5964990  47.3289997
  55.3809992  68.3584990  47.3019997  53.8859992  68.4984990  46.3009997
  53.7909992  67.8724990  48.0029997  54.6149992  70.1214990  49.1649997
  54.1755661  69.4889350  49.7380281  54.0349992  71.1454990  45.6049997
  54.4599992  70.5834990  44.5879997  52.9209992  71.8844990  45.5969997
  52.5740647  72.3135489  46.4429618  52.1329992  72.0234990  44.3779997
  51.8969992  71.0344990  44.0159997  50.8429992  72.8134990  44.6619997
  51.0419992  73.5714990  45.4499997  50.3489992  73.5134990  43.4059997
  50.1359992  72.7664990  42.6119997  51.1249992  74.2154990  43.0339997
  49.4139992  74.0714990  43.6269997  49.7609992  71.8834990  45.2089997
  49.5944518  71.1054335  44.4640320  50.1505033  71.4338843  46.1223631
  48.4539992  72.5814990  45.5089997  48.0636212  73.0309965  44.5959516
  47.7350055  71.8580336  45.8933759  48.6196735  73.3594494  46.2542815
  52.9649992  72.6844990  43.2879997  53.0069992  72.2154990  42.1419997
  53.6599992  73.7744990  43.6329997  53.6222595  74.1734801  44.5600860
  54.4459992  74.4604990  42.6179997  53.8109992  74.6204990  41.7589997
  54.9769992  75.7954990  43.1369997  54.1389992  76.5194990  43.2309997
  55.4186078  75.6444292  44.1220173  56.0079992  76.4074990  42.2099997
  55.6079992  77.1994990  41.1439997  54.5433686  77.3830603  40.9992023
  56.5249992  77.7494990  40.2779997  56.1923916  78.3775347  39.4515343
  57.8649992  77.5034990  40.4579997  58.7689992  78.0584990  39.5839997
  58.2789992  78.4354990  38.8499997  58.2949992  76.7104990  41.5029997
  59.3479992  76.5184990  41.6419997  57.3669992  76.1624990  42.3699997
  57.6977591  75.5294568  43.1933803  55.5929992  73.5844990  42.1349997
  55.9229992  73.5914990  40.9449997  56.2159992  72.8254990  43.0409997
  55.9690631  72.8641148  44.0195857  57.3249992  71.9664990  42.6409997
  58.0479992  72.5714990  42.1149997  57.9589992  71.3264990  43.8749997
  58.3279992  72.1224990  44.5579997  57.2038420  70.7292931  44.3860601
  59.0499992  70.4994990  43.5149997  59.4306088  70.1097981  44.3054865
  56.8649992  70.9014990  41.6519997  57.4699992  70.7294990  40.5849997
  55.7849992  70.1844990  41.9829997  55.3494212  70.2771389  42.8895254
  55.2589992  69.1774990  41.0599997  56.0509992  68.4724990  40.8529997
  54.0419992  68.4474990  41.6589997  53.1769992  69.1424990  41.6979997
  53.6799992  67.2374990  40.8069997  54.5839992  66.6214990  40.6159997
  53.2659992  67.5714990  39.8319997  52.9299992  66.6124990  41.3379997
  54.2779992  68.0344990  43.1109997  54.8161399  68.8510103  43.5924710
  53.2981156  67.9223371  43.5750548  55.0579992  66.7564990  43.2709997
  56.0382449  66.8680590  42.8075640  55.1809702  66.5356016  44.3312740
  54.5202211  65.9393859  42.7901455  54.9109992  69.8144990  39.7219997
  55.3019992  69.3164990  38.6599997  54.1779992  70.9324990  39.7499997
  53.8898465  71.3517530  40.6225209  53.7159992  71.5394990  38.5039997
  53.1869992  70.7864990  37.9379997  52.7969992  72.7214990  38.8099997
  51.7409992  72.3774990  38.8229997  53.0588081  73.1247578  39.7882320
  52.9319992  73.7344990  37.8309997  52.3465643  74.4650217  38.0436081
  54.8869992  71.9784990  37.6329997  54.9389992  71.6624990  36.4379997
  55.8429992  72.7024990  38.2179997  55.7830103  72.9452818  39.1965482
  56.9639992  73.2194990  37.4459997  56.5689992  73.7264990  36.5769997
  57.7869992  74.1834990  38.2979997  57.3649992  75.2074990  38.2159997
  57.7477712  73.8570746  39.3372341  59.1339992  74.2114990  37.8629997
  59.6341829  74.8218521  38.4097035  57.8429992  72.0994990  36.9119997
  58.2719992  72.1384990  35.7519997  58.1299992  71.0874990  37.7359997
  57.7887264  71.0508309  38.6858879  59.0359992  70.0374990  37.2859997
  59.8449992  70.5024990  36.7419997  59.5759992  69.2564990  38.4809997
  58.8459992  69.3454990  39.3119997  59.6284994  68.2005511  38.2158244
  60.9429992  69.7224990  38.9949997  61.1519992  69.2404990  39.9739997
  62.0359992  69.3534990  38.0099997  61.8375864  69.8311841  37.0505477
  62.9992093  69.6921737  38.3916103  62.0577081  68.2716113  37.8790488
  60.9639992  71.2144990  39.2819997  60.2170981  71.4497155  40.0402287
  61.9512811  71.5015411  39.6439148  60.7387035  71.7640372  38.3680257
  58.3569992  69.1104990  36.2849997  59.0309992  68.4784990  35.4649997
  57.0259992  69.0094990  36.3349997  56.4910172  69.4000621  37.0974654
  56.3159992  68.2624990  35.3039997  56.8739992  67.3614990  35.0969997
  54.9059992  67.9204990  35.7829997  54.5489992  68.7414990  36.4399997
  54.2746575  67.8632048  34.8963063  54.8159992  66.6134990  36.5539997
  55.2739992  65.8014990  35.9499997  55.3675763  66.7315413  37.4867004
  53.3719992  66.2504990  36.8619997  52.9566848  66.9936848  37.5426521
  52.8106252  66.2603210  35.9277287  53.2749992  64.8714990  37.4969997
  53.6889992  64.1104990  36.8009997  53.2921559  65.8591312  37.0361446
  51.8679992  64.4894990  37.7989997  51.3139992  64.4794990  36.9189997
  51.4559992  65.1794990  38.4599997  51.8499992  63.5434990  38.2309997
  56.2679992  69.0454990  33.9979997  56.3889992  68.4634990  32.9139997
  56.0849992  70.3664990  34.0809997  55.9002832  70.8140453  34.9673865
  56.0819992  71.1894990  32.8769997  55.3959992  70.7484990  32.1689997
  55.6549992  72.6174990  33.2169997  56.4789992  73.1424990  33.7469997
  55.3239992  73.3894990  31.9499997  54.4939992  72.8914990  31.4049997
  56.2129992  73.4254990  31.2859997  55.0079992  74.4224990  32.2089997
  54.5019992  72.5834990  34.0659997  54.2347801  73.4806584  34.2788356
  57.4459992  71.1874990  32.1989997  57.5359992  71.1204990  30.9679997
  58.5229992  71.2644990  32.9869997  58.4324003  71.3315001  33.9906938
  59.8619992  71.3164990  32.4079997  59.8779992  72.1024990  31.6679997
  60.8979992  71.5884990  33.4989997  60.5099992  72.4064990  34.1399997
  60.9707764  70.6966329  34.1213970  62.2929992  71.9884990  33.0169997
  62.6509992  71.2494990  32.2689997  62.2599992  73.3704990  32.3839997
  61.9164505  74.0989819  33.1184285  63.2607104  73.6400142  32.0463024
  61.5791440  73.3646707  31.5328225  63.2989992  71.9364990  34.1529997
  63.3453566  70.9231574  34.5518596  64.2822217  72.2256452  33.7818267
  62.9926618  72.6233095  34.9420165  60.1999992  70.0294990  31.6679997
  60.7929992  70.0664990  30.5829997  59.8319992  68.8804990  32.2359997
  59.3495744  68.9061143  33.1229661  60.1679992  67.5794990  31.6689997
  60.8579992  67.7354990  30.8529997  60.7959992  66.6874990  32.7369997
  60.1589992  66.7004990  33.6469997  60.8887238  65.6634094  32.3754161
  62.1689992  67.1224990  33.1489997  63.2039992  67.1344990  32.2319997
  63.0086651  66.8198821  31.2068359  64.4699992  67.5374990  32.5999997
  65.2762474  67.5439610  31.8664993  64.7149992  67.9334990  33.8959997
  65.7069992  68.2474990  34.1869997  63.6919992  67.9274990  34.8229997
  63.8809992  68.2374990  35.8399997  62.4269992  67.5234990  34.4479997
  61.6176222  67.5186856  35.1780583  58.9609992  66.8954990  31.0389997
  58.8099992  65.6734990  31.1499997  58.0909992  67.6694990  30.3849997
  58.2104475  68.6720906  30.3596708  56.9109992  67.0974990  29.7469997
  56.3969992  66.4834990  30.4729997  55.9979992  68.2184990  29.2519997
  55.9019992  68.9724990  30.0609997  56.4958743  68.6715867  28.3947179
  54.5989992  67.7704990  28.8479997  54.6269992  67.4374990  27.7889997
  54.3414020  66.9314284  29.4943017  53.5259992  68.8764990  28.9869997
  52.7021966  68.5547822  28.3498603  53.2132208  68.8400262  30.0305220
  53.8699992  70.2634990  28.6469997  53.5139992  70.9704990  29.2539997
  54.6049992  70.6814990  27.6179997  55.1029992  69.8424990  26.7229997
  54.9309992  68.8604990  26.8079997  55.6509992  70.1894990  25.9619997
  54.8129992  71.9854990  27.4619997  54.4209992  72.6364990  28.1119997
  55.3629992  72.3154990  26.6939997  57.2849992  66.1664990  28.6009997
  56.6179992  65.1464990  28.3889997  58.3369992  66.5044990  27.8499997
  58.8579485  67.3479829  28.0429919  58.7269992  65.6984990  26.6959997
  57.8459992  65.5174990  26.0989997  59.7869992  66.4334990  25.8749997
  60.7809992  66.2304990  26.3259997  59.7502752  66.0136293  24.8697828
  59.5939992  67.9404990  25.8019997  59.5359992  68.3494990  26.8329997
  60.4555764  68.3657254  25.2872480  58.3249992  68.3054990  25.0509997
  57.5031087  67.7220344  25.4659261  58.1344465  69.3665043  25.2124210
  58.4379992  68.0314990  23.5549997  58.0539992  67.0124990  23.3379997
  58.4335634  68.2206176  24.6284584  59.8369992  68.0974990  23.0449997
  60.4189992  67.3894990  23.5359997  60.2249992  69.0464990  23.2179997
  59.8429992  67.9014990  22.0229997  59.2449992  64.3304990  27.1199997
  59.0689992  63.3434990  26.3969997  59.8979992  64.2564990  28.2749997
  59.9857355  65.0799293  28.8532420  60.5709992  63.0384990  28.7019997
  61.0099992  62.5724990  27.8319997  61.6489992  63.3704990  29.7319997
  61.3279992  64.2694990  30.2989997  61.7131216  62.5176121  30.4077011
  63.0209992  63.6444990  29.1289997  63.7919992  63.5134990  29.9179997
  63.1934326  62.9137283  28.3388477  63.1519992  65.0464990  28.5589997
  64.2599992  65.6174990  28.6419997  62.1519992  65.5914990  28.0479997
  59.5619992  62.0254990  29.2459997  58.3589992  62.2854990  29.3409997
  60.1059992  60.8484990  29.5909997  61.0861828  60.6635286  29.4324895
  59.2739992  59.7724990  30.1839997  58.4389992  59.5944990  29.5229997
  60.0889992  58.4884990  30.3659997  60.9359992  58.7084990  31.0489997
  59.4250083  57.7621034  30.8345780  60.6549992  57.9024990  29.0799997
  60.4319992  56.8144990  29.0579997  60.1492159  58.4005382  28.2528104
  62.1599992  58.0944990  28.9439997  62.3472457  58.7705204  28.1097139
  62.5178834  58.5499191  29.8673689  62.8819992  56.8044990  28.7119997
  63.9309992  56.8934990  29.0659997  62.3574113  57.7517725  28.8368180
  62.9189992  56.4504990  27.2899997  63.4079992  57.1984990  26.7589997
  61.9479992  56.3494990  26.9329997  63.4269992  55.5514990  27.1699997
  58.7619992  60.3004990  31.5179997  59.5819992  60.7934990  32.3199997
  57.4489992  60.2294990  31.7869997  56.4089992  59.7484990  30.8609997
  57.2957113  60.0457822  31.4208788  56.3722730  58.6614326  30.7900290
  55.1429992  60.3294990  31.4319997  54.9259992  61.3174990  30.9729997
  55.9941262  59.8609649  30.9378741  55.3919992  60.4754990  32.9019997
  55.1979992  59.5214990  33.4369997  54.7813408  61.2408050  33.3810640
  56.8719992  60.8614990  32.9829997  57.0629992  61.9224990  32.9769997
  57.5209992  60.3674990  34.2689997  57.9279992  59.2104990  34.3809997
  57.6369992  61.2824990  35.2339997  57.1486628  62.1639931  35.1662134
  58.5219992  61.0674990  36.3749997  59.5019992  60.8124990  36.0009997
  58.5839992  62.3374990  37.2219997  57.6609992  62.3894990  37.8379997
  59.4318841  62.2505101  37.9014290  58.6999992  63.6374990  36.4269997
  57.9849992  63.6154990  35.5769997  58.3929992  64.8304990  37.3109997
  59.0988829  64.8595188  38.1410508  58.4804995  65.7473759  36.7280922
  57.3786021  64.7434553  37.7002582  60.0849992  63.7664990  35.8149997
  60.2668380  62.9255663  35.1457715  60.1490036  64.6980837  35.2527233
  60.8339728  63.7685043  36.6069173  58.0879992  59.8794990  37.2259997
  58.9209992  59.0544990  37.6189997  56.7969992  59.7644990  37.5129997
  56.1291842  60.4000119  37.1003912  56.3119992  58.7764990  38.4649997
  57.1309992  58.5064990  39.1149997  55.1479992  59.3444990  39.2829997
  54.3599992  59.7114990  38.5919997  54.7267697  58.5780379  39.9335403
  55.5349992  60.4984990  40.1709997  56.8679992  60.8024990  40.4019997
  57.6401919  60.1938874  39.9314571  57.2229992  61.8604990  41.2159997
  58.2751731  62.0873642  41.3879388  56.2459992  62.6294990  41.8109997
  56.5219992  63.4574990  42.4479997  54.9159992  62.3404990  41.5919997
  54.1479992  62.9404990  42.0579997  54.5649992  61.2814990  40.7749997
  53.5136102  61.0538660  40.5993172  55.8869992  57.4944990  37.7559997
  55.5029992  57.4974990  36.5849997  55.9609992  56.3874990  38.4939997
  56.2415132  56.4757219  39.4602439  55.7519992  55.0484990  37.9539997
  55.4809992  55.1444990  36.9129997  57.0229992  54.2074990  38.0959997
  56.8849992  53.2544990  37.5429997  57.8509486  54.7658619  37.6591580
  57.3689992  53.8764990  39.5469997  56.6009992  54.1404990  40.4719997
  58.5439992  53.2904990  39.7429997  58.8327425  53.0454942  40.6793221
  59.1437745  53.0923774  38.9548891  54.5559992  54.3524990  38.5969997
  54.5219992  53.1254990  38.7209997  53.5679992  55.1364990  39.0279997
  53.7580633  56.1281458  39.0032719  52.2979992  54.6884990  39.5949997
  51.7039992  55.5664990  39.7969997  51.5319992  53.7444990  38.6559997
  51.9949992  53.7914990  37.6479997  51.5824830  52.7176376  39.0180870
  50.0739992  54.0814990  38.5209997  49.0209992  53.2404990  38.7269997
  49.2581602  52.2172567  39.0182551  47.8369992  53.9024990  38.5109997
  46.9146371  53.5003923  38.5985081  48.1099992  55.1974990  38.1569997
  47.2459992  56.2434990  37.8419997  46.1719992  56.1254990  37.8459997
  47.8049992  57.4484990  37.5199997  47.1619992  58.2794990  37.2699997
  49.1929992  57.6304990  37.5069997  49.5979992  58.5974990  37.2499997
  50.0529992  56.5934990  37.8179997  51.1199992  56.7604990  37.7989997
  49.5099992  55.3484990  38.1519997  52.4449992  54.0134990  40.9539997
  51.4319992  53.6274990  41.5439997  53.6619992  53.8514990  41.4679997
  54.4718666  54.0065387  40.8847528  53.8729992  53.3974990  42.8369997
  52.9339992  53.0204990  43.2139997  54.9419992  52.2994990  42.8769997
  54.5529992  51.4094990  42.3399997  55.8175595  52.6757776  42.3479358
  55.3419992  51.8774990  44.2829997  55.0899992  52.7034990  44.9809997
  54.7568555  50.9948555  44.5411653  57.0959992  51.4884990  44.4269997
  57.3869992  50.6374990  42.8789997  56.5406574  49.9877201  42.6563074
  56.5269992  49.9764990  42.6369997  58.3089992  50.0224990  42.9469997
  54.2689992  54.5464990  43.7509997  53.7369992  54.6824990  44.8589997
  55.1969992  55.3894990  43.2929997  55.7109112  55.1882138  42.4471403
  55.5359992  56.5964990  44.0369997  55.7769992  56.3114990  45.0509997
  56.7259992  57.2914990  43.3789997  56.3939992  57.7174990  42.4089997
  57.0349936  58.0980666  44.0438841  57.9039992  56.3674990  43.1229997
  58.6219992  56.4554990  43.9649997  57.5132519  55.3512383  43.0717164
  58.6309992  56.6944990  41.8339997  58.0379992  57.3714990  40.9699997
  59.7969992  56.2744990  41.6869997  54.3429992  57.5354990  44.1219997
  54.1999992  58.2864990  45.0939997  53.4749992  57.5134990  43.1069997
  53.6600241  56.9724995  42.2744225  52.2619992  58.3214990  43.1509997
  52.5459992  59.3424990  43.3569997  51.5189992  58.2344990  41.8169997
  51.1009992  57.2134990  41.6839997  50.3759992  59.2354990  41.7809997
  50.7689992  60.2684990  41.9019997  49.6639992  59.0284990  42.6079997
  49.8469992  59.1704990  40.8059997  52.4229992  58.5114990  40.7429997
  51.9536828  58.4561019  39.9073720  51.3569992  57.8834990  44.2939997
  50.9019992  58.7114990  45.0899997  51.0989992  56.5794990  44.4039997
  51.4189901  55.9169302  43.7121125  50.2769992  56.0874990  45.5049997
  49.3679992  56.6684990  45.5289997  49.9549992  54.6054990  45.3159997
  50.8439992  54.0874990  44.8969997  49.6931409  54.1342644  46.2633476
  48.8109992  54.3504990  44.3789997  47.5809992  54.9494990  44.5939997
  47.4547768  55.6113463  45.4508112  46.5229992  54.7174990  43.7399997
  45.5611842  55.1983853  43.9182158  46.6829992  53.8744990  42.6599997
  45.8559992  53.6904990  41.9899997  47.9019992  53.2674990  42.4359997
  48.0309992  52.6074990  41.5909997  48.9569992  53.5044990  43.2959997
  49.9194541  53.0227692  43.1236134  50.9569992  56.3174990  46.8469997
  50.2849992  56.5944990  47.8469997  52.2849992  56.1984990  46.8939997
  52.8210167  55.8954565  46.0934062  52.9919992  56.4504990  48.1439997
  52.5099992  55.8784990  48.9229997  54.4589992  56.0454990  48.0189997
  54.5439992  54.9384990  48.0539997  54.8387270  56.4005679  47.0609637
  55.3079992  56.6034990  49.1339997  55.1079992  56.1974990  50.4449997
  54.3316675  55.4617081  50.6548098  55.8689992  56.7064990  51.4719997
  55.7082804  56.3676580  52.4954537  56.8349992  57.6464990  51.2029997
  57.5869992  58.1554990  52.2339997  57.4079992  57.6314990  53.0179997
  57.0489992  58.0754990  49.9109997  57.8109992  58.8124990  49.7019997
  56.2839992  57.5574990  48.8849997  56.4424570  57.8977644  47.8616666
  52.8819992  57.9144990  48.5529997  52.6279992  58.2294990  49.7209997
  53.0749992  58.8284990  47.5969997  53.2621405  58.5531830  46.6434387
  53.0929992  60.2524990  47.9229997  53.7659992  60.3994990  48.7539997
  53.5519992  61.0644990  46.7139997  53.1379992  60.5884990  45.7999997
  53.1192055  62.0623713  46.7849953  55.0689992  61.1774990  46.5469997
  55.5059992  60.1594990  46.4699997  55.4199992  61.9694990  45.2999997
  55.0007452  62.9727566  45.3761509  56.5037502  62.0354962  45.2039316
  55.0078323  61.4696067  44.4234573  55.6959992  61.8064990  47.7789997
  55.4817440  61.1894537  48.6516103  56.7749090  61.8785567  47.6416585
  55.2819800  62.8035595  47.9291906  51.7299992  60.7334990  48.4069997
  51.6429992  61.5114990  49.3649997  50.6509992  60.2884990  47.7589997
  50.7346384  59.7324625  46.9199959  49.3159992  60.6594990  48.2119997
  49.3069992  61.7254990  48.3859997  48.2649992  60.2824990  47.1659997
  48.1129992  59.1854990  47.2239997  47.3328670  60.7618193  47.4651343
  48.5719992  60.6304990  45.7089997  49.6039992  60.3024990  45.4629997
  47.5899992  59.9424990  44.7749997  46.5763588  60.2679386  45.0089249
  47.8256847  60.2030671  43.7431773  47.6626971  58.8623798  44.9021139
  48.5509992  62.1344990  45.4989997  49.3009232  62.6015281  46.1374331
  48.7719510  62.3593075  44.4555713  47.5650304  62.5236212  45.7530633
  48.9539992  60.0324990  49.5499997  47.9459992  60.4294990  50.1429997
  49.7369992  59.0684990  50.0349997  50.5088973  58.7025990  49.4961213
  49.4889992  58.5074990  51.3499997  48.4329992  58.2954990  51.4219997
  50.0536517  57.5786601  51.4307793  49.8809992  59.4224990  52.4889997
  49.5199992  59.1524990  53.6399997  50.6139992  60.5004990  52.1949997
  50.9536775  60.6627029  51.2577655  50.9979992  61.4404990  53.2419997
  51.3789992  60.8754990  54.0799997  52.0649992  62.4014990  52.7169997
  51.6989992  62.8234990  51.7579997  52.1447342  63.2235989  53.4282620
  53.4509992  61.8074990  52.4679997  53.3439992  60.8094990  51.9919997
  54.2669992  62.7124990  51.5599997  54.3815956  63.6900503  52.0283583
  55.2501550  62.2716516  51.3951995  53.7553703  62.8258476  50.6042339
  54.1799992  61.5634990  53.7789997  53.6056696  60.8677113  54.3906569
  55.1637115  61.1406189  53.5750783  54.2942089  62.5069173  54.3128694
  49.7899992  62.2114990  53.7619997  49.7489992  62.5944990  54.9359997
  48.8039992  62.4524990  52.9009997  48.8932525  62.1405212  51.9445463
  47.6039992  63.1614990  53.2809997  47.8959992  64.1394990  53.6309997
  46.9732813  63.2650401  52.3980650  46.8149992  62.4634990  54.3719997
  46.5249992  63.0444990  55.4239997  46.4269992  61.2054990  54.1339997
  46.3149992  60.5224990  52.8339997  46.4750561  61.1592063  53.7041064
  47.2779382  60.1957788  52.4414420  45.3939992  59.3714990  53.1229997
  44.3419992  59.6514990  52.8989997  46.0725816  60.1681770  52.8181531
  45.5509992  59.0654990  54.5659997  46.4069992  58.3764990  54.7329997
  44.6656849  58.6053189  55.0048076  45.8109992  60.4284990  55.2199997
  44.9299992  60.9274990  55.5889997  46.7019992  60.3104990  56.4409997
  46.2049992  60.3434990  57.5729997  48.0159992  60.1774990  56.2389997
  48.3942859  60.0405072  55.3125916  48.9369992  60.1704990  57.3699997
  48.6119992  59.4104990  58.0639997  50.3579992  59.8834990  56.8909997
  50.3469992  58.9214990  56.3359997  50.6467099  60.6589071  56.1814305
  51.4139992  59.7824990  57.9929997  51.4119992  60.7184990  58.5909997
  51.1249992  58.6024990  58.9049997  51.1343969  57.6813989  58.3222603
  51.8873840  58.5479806  59.6821084  50.1455544  58.7302272  59.3659484
  52.8099992  59.6844990  57.4039997  53.0152089  60.5716192  56.8048285
  53.5407184  59.6138595  58.2097048  52.8776725  58.7975650  56.7740255
  48.8879992  61.4934990  58.1199997  48.8759992  61.5144990  59.3559997
  48.8529992  62.6094990  57.3869997  48.9342855  62.5740087  56.3809021
  48.7599992  63.9174990  58.0279997  49.5769992  64.0104990  58.7279997
  48.8309992  65.0214990  56.9709997  49.8479992  65.0094990  56.5279997
  48.0980667  64.7596612  56.2078804  48.5529992  66.4354990  57.4799997
  48.6349992  67.1414990  56.6279997  47.5336279  66.4243173  57.8658187
  49.5039992  66.8984990  58.5739997  50.5489992  66.2504990  58.7949997
  49.2019992  67.9264990  59.2139997  47.4839992  64.0394990  58.8459997
  47.5139992  64.5014990  59.9929997  46.3539992  63.6154990  58.2769997
  46.3404431  63.2932449  57.3198853  45.0889992  63.6914990  58.9989997
  44.9569992  64.7074990  59.3399997  43.9239992  63.2784990  58.0789997
  44.2789992  62.5064990  57.3629997  42.7669992  62.7164990  58.8899997
  42.4106867  63.4735987  59.5885283  41.9566047  62.4319489  58.2188868
  43.1031614  61.8405197  59.4447582  43.4699992  64.4594990  57.2379997
  44.3089992  64.8244990  56.6079997  43.1359992  65.2874990  57.8989997
  42.6349992  64.1514990  56.5729997  45.1459992  62.8364990  60.2589997
  44.8669992  63.3164990  61.3639997  45.5649992  61.5744990  60.1209997
  45.8333539  61.2175852  59.2150760  45.5829992  60.6614990  61.2559997
  44.6019992  60.6644990  61.7089997  45.9499992  59.2534990  60.7849997
  45.0869992  58.8484990  60.2159997  46.8196121  59.2936860  60.1290588
  46.3719992  58.0954990  62.1059997  46.6110158  57.0573580  61.3097380
  46.5429992  61.1224990  62.3449997  46.2749992  60.9134990  63.5339997
  47.6559992  61.7534990  61.9699997  47.8553388  61.9115096  60.9925562
  48.6449992  62.1734990  62.9529997  48.6359992  61.4614990  63.7659997
  50.0299992  62.2314990  62.3079997  49.9289992  62.7294990  61.3209997
  50.7124237  62.8117335  62.9290672  50.8119992  60.6204990  62.0749997
  51.9281169  61.0864521  61.5217661  48.3139992  63.5184990  63.5869997
  48.7629992  63.7954990  64.7039997  47.5439992  64.3684990  62.9069997
  47.1342637  64.1370925  62.0133179  47.3419992  65.7114990  63.4319997
  47.9949992  65.8454990  64.2809997  47.6539992  66.7444990  62.3469997
  48.2209992  66.2424990  61.5349997  46.6976985  67.0972730  61.9608141
  48.4669992  67.9274990  62.8419997  48.2249992  68.8174990  62.2219997
  48.1825113  68.1067975  63.8788303  49.9609992  67.6774990  62.7639997
  50.6449992  67.8284990  63.7989997  50.4519992  67.3284990  61.6719997
  45.9389992  65.9464990  63.9809997  45.7959992  66.5434990  65.0529997
  44.8929992  65.5084990  63.2779997  45.0342788  64.9902660  62.4226787
  43.5259992  65.8164990  63.6819997  43.5619992  66.6334990  64.3859997
  42.6639992  66.1994990  62.4659997  42.4529992  65.2854990  61.8709997
  41.6900219  66.6040056  62.7413950  43.2999992  67.2034990  61.5219997
  44.3829992  67.9814990  61.9029997  44.7976630  67.8581490  62.9034689
  44.9359992  68.9024990  61.0349997  45.8053877  69.4853526  61.3392133
  44.3879992  69.0844990  59.7839997  44.8159992  69.8084990  59.1059997
  43.2939992  68.3414990  59.3999997  42.8659992  68.4784990  58.4179997
  42.7439992  67.4204990  60.2719997  41.8605712  66.8529999  59.9794254
  42.8599992  64.6654990  64.4289997  42.2559992  64.8794990  65.4839997
  42.9549992  63.4454990  63.8989997  43.4839701  63.2871355  63.0532986
  42.2219992  62.3234990  64.4769997  41.2169992  62.6534990  64.6939997
  42.1979992  61.1404990  63.4919997  43.2409992  60.8424990  63.2489997
  41.4639992  59.9574990  64.1009997  40.4388438  60.2458383  64.3334168
  41.4561809  59.1298565  63.3917414  41.9697232  59.6470248  65.0153031
  41.5489992  61.5574990  62.1839997  42.1189992  62.3934990  61.7239997
  40.5079992  61.8984990  62.3699997  41.5419992  60.7024990  61.4749997
  42.8119992  61.9174990  65.8239997  42.0769992  61.6784990  66.7889997
  44.1389992  61.8284990  65.9099997  44.7301072  62.0696159  65.1273418
  44.7669992  61.2694990  67.1069997  44.3119992  60.3104990  67.3099997
  46.2729992  61.1114990  66.8819997  46.4509992  60.7004990  65.8649997
  46.7853651  62.0693483  66.9720322  46.9269992  60.1814990  67.8599997
  46.7919992  58.8104990  67.7249997  46.2049196  58.4136320  66.8967884
  47.3889992  57.9494990  68.6219997  47.2756262  56.8717227  68.5051850
  48.1309992  58.4554990  69.6689997  48.6009992  57.7834990  70.3719997
  48.2719992  59.8194990  69.8169997  48.8509992  60.2164990  70.6379997
  47.6729992  60.6754990  68.9159997  47.7847610  61.7535912  69.0314391
  44.4899992  62.0634990  68.3799997  44.1699992  61.4394990  69.4059997
  44.6039992  63.4074990  68.4099997  45.0509992  64.3314990  67.3539997
  44.8169281  63.5203052  68.0434021  44.5961843  64.1266021  66.3848455
  44.6659992  65.6704990  67.8919997  45.3419992  66.4584990  67.4989997
  44.8792734  64.7165740  67.4096691  44.7929992  65.5594990  69.3579997
  44.1199992  66.2814990  69.8679997  45.8113338  65.7442384  69.7000022
  44.3849992  64.1144990  69.6829997  44.9559992  63.6524990  70.4719997
  42.9489992  64.0484990  70.1769997  42.6399992  64.5554990  71.2609997
  42.0599992  63.4284990  69.3989997  42.3483100  63.0637485  68.5023764
  40.6589992  63.3114990  69.7729997  40.4849992  63.9504990  70.6259997
  39.7559992  63.7244990  68.6009997  40.2279992  63.4084990  67.6469997
  38.7754145  63.2555850  68.6826899  39.5179992  65.2064990  68.5109997
  40.4759992  66.1044990  68.9519997  41.4099825  65.7253830  69.3667843
  40.2589992  67.4644990  68.8709997  41.0217131  68.1606837  69.2198479
  39.0739992  67.9434990  68.3489997  38.9019992  69.0074990  68.2849997
  38.1109992  67.0584990  67.9079997  37.1829992  67.4304990  67.4979997
  38.3339992  65.6984990  67.9909997  37.5728758  64.9992864  67.6447443
  40.2569992  61.9194990  70.2369997  39.2169992  61.7854990  70.8879997
  41.0379992  60.8914990  69.9209997  41.8453412  61.0258635  69.3291852
  40.7229992  59.5424990  70.3609997  39.6589992  59.4874990  70.5339997
  41.1429992  58.5134990  69.3099997  40.4409992  58.5444990  68.4489997
  42.5409992  58.8044990  68.8009997  43.2359992  58.9464990  69.6559997
  42.5359992  59.7334990  68.1909997  42.9039992  57.9544990  68.1859997
  41.1159992  57.2014990  69.8869997  41.3796641  56.5561779  69.2269679
  41.3969992  59.2444990  71.6989997  42.2589992  59.9864990  72.1749997
  40.9869992  58.1304990  72.3079997  40.2929438  57.5394369  71.8732215
  41.4749992  57.7644990  73.6319997  41.5409992  58.6624990  74.2279997
  40.5179992  56.7604990  74.2809997  40.9299992  56.4324990  75.2589997
  39.5545981  57.2456710  74.4377363  40.3439992  55.6204990  73.4569997
  39.7415755  55.0065116  73.8832684  42.8819992  57.1854990  73.6119997
  43.5029992  57.0694990  74.6749997  43.4009992  56.8174990  72.4379997
  42.8626969  56.8931312  71.5867595  44.7369992  56.2374990  72.3619997
  44.8059992  55.4544990  73.1029997  44.9889992  55.6714990  70.9639997
  44.8089992  56.4744990  70.2179997  46.0195948  55.3302944  70.8662634
  44.1169992  54.5054990  70.6159997  43.1869992  53.9094990  71.4159997
  43.0610701  54.3224397  72.4168601  42.5859992  52.8694990  70.7489997
  41.8632358  52.2709652  71.1224562  43.1269992  52.7754990  69.4939997
  42.8459992  51.8864990  68.4599997  42.1019992  51.1084990  68.5539997
  43.5529992  52.0274990  67.2969997  43.3589992  51.3534990  66.4759997
  44.5219992  53.0274990  67.1479997  45.0609992  53.1104990  66.2159997
  44.8019992  53.9114990  68.1739997  45.5539992  54.6734990  68.0329997
  44.0959992  53.7904990  69.3749997  45.8299992  57.2364990  72.7149997
  46.9529992  56.8224990  73.0189997  45.5319992  58.5374990  72.6739997
  44.6146599  58.8537568  72.3936981  46.5509992  59.5414990  72.9659997
  47.4229992  59.3214990  72.3689997  46.0169992  60.9364990  72.6389997
  45.5579992  60.9064990  71.6279997  45.2499310  61.1582577  73.3809764
  47.0699992  62.0374990  72.6529997  48.0709992  61.5834990  72.4919997
  46.8439031  62.7256882  71.8385194  47.0769992  62.7964990  73.9699997
  47.3175150  62.1048638  74.7773980  47.8439674  63.5689345  73.9134082
  45.7279992  63.4414990  74.2409997  45.5419992  64.2454990  73.4979997
  46.7124887  63.0000040  74.0862033  45.6669992  64.0544990  75.5959997
  46.3999992  64.7864990  75.6789997  45.8259992  63.3204990  76.3159997
  44.7299992  64.4824990  75.7399997  47.0089992  59.4644990  74.4179997
  48.1989992  59.6294990  74.7099997  46.0789992  59.2174990  75.3429997
  45.1066868  59.1117980  75.0909379  46.4339992  59.1894990  76.7589997
  47.0549992  60.0484990  76.9659997  45.1629992  59.2234990  77.6289997
  45.4369992  59.5004990  78.6699997  44.1719992  60.2384990  77.0809997
  43.8970981  59.9652152  76.0622523  43.2796438  60.2502715  77.7068300
  44.6279345  61.2285618  77.0805702  44.5289992  57.8434990  77.7129997
  45.1669992  57.1664990  78.3189997  44.4239992  57.4134990  76.6939997
  43.5299992  57.9144990  78.1929997  47.3039992  57.9814990  77.0849997
  48.0159992  57.9784990  78.0969997  47.2719992  56.9444990  76.2499997
  46.6656815  56.9592105  75.4423724  48.0509992  55.7404990  76.5069997
  48.3299992  55.7364990  77.5499997  47.2239992  54.4954990  76.1689997
  46.4079992  54.7924990  75.4769997  47.8926927  53.7979536  75.6646391
  46.6049992  53.8174990  77.3799997  47.3719992  53.1844990  77.8749997
  46.2701087  54.5921852  78.0697906  45.4229992  52.9494990  76.9809997
  44.6316573  53.0647927  77.7216644  45.0630695  53.2887837  76.0096934
  45.8219992  51.4854990  76.8899997  46.7659992  51.3894990  76.3129997
  45.5021070  52.5269682  76.9233148  44.7839992  50.6694990  76.2009997
  44.6449992  51.0294990  75.2349997  43.8889992  50.7314990  76.7259997
  45.0939992  49.6774990  76.1599997  49.3639992  55.7254990  75.7289997
  50.4249992  55.4694990  76.3059997  49.3099992  55.9984990  74.4239997
  48.4138459  56.2330706  74.0215263  50.4709992  55.9324990  73.5389997
  51.3429992  55.7594990  74.1519997  50.3299992  54.8174990  72.5029997
  49.5449992  55.1084990  71.7729997  51.2817446  54.7426578  71.9769963
  49.9399992  53.4524990  73.0389997  50.2979992  53.0474990  74.3169997
  50.8637114  53.7355766  74.9451863  49.9509992  51.7984990  74.7979997
  50.2228276  51.5015316  75.8109269  49.2569992  50.9264990  73.9869997
  48.9129992  49.6804990  74.4589997  48.8869992  49.0764990  73.7129997
  48.9059992  51.2964990  72.7069997  48.3589992  50.6124990  72.0749997
  49.2579992  52.5474990  72.2359997  49.0001765  52.8388971  71.2178078
  50.6449992  57.2794990  72.8439997  50.3009992  57.4304990  71.6629997
  51.1789992  58.2814990  73.5469997  51.6259992  58.2694990  74.9479997
  51.2915441  58.0850323  73.9271118  52.6347345  57.8768101  75.0758575
  51.5219992  59.7064990  75.3339997  50.4979992  59.9394990  75.6969997
  51.6244143  58.6357602  75.1575596  51.8289992  60.4874990  74.0869997
  52.9189992  60.6884990  74.0109997  51.2990219  61.4397843  74.0676025
  51.3599992  59.6024990  72.9209997  50.4439992  59.9244990  72.4519997
  52.3689992  59.6114990  71.7859997  52.3689992  60.5594990  70.9909997
  53.2269992  58.5974990  71.6849997  53.1690352  57.8268052  72.3352078
  54.2969992  58.5874990  70.6949997  54.5619992  59.6104990  70.4719997
  55.5049992  57.8284990  71.2489997  55.5569992  57.9774990  72.3489997
  55.4197849  56.7628459  71.0363446  56.8199992  58.2764990  70.6789997
  57.3149992  59.5394990  70.9519997  56.7393901  60.2116900  71.5883433
  58.5239992  59.9514990  70.4279997  58.9043874  60.9482616  70.6513150
  59.2509992  59.1004990  69.6219997  60.1959992  59.4214990  69.2099997
  58.7689992  57.8384990  69.3419997  59.3369992  57.1704990  68.7119997
  57.5589992  57.4324990  69.8679997  57.1753194  56.4365003  69.6469194
  53.8819992  57.9784990  69.3609997  54.7289992  57.8594990  68.4689997
  52.6159992  57.5844990  69.2059997  51.9571675  57.6371362  69.9697204
  52.1909992  56.9304990  67.9659997  52.8689992  56.1134990  67.7659997
  50.7469992  56.4094990  68.1129997  50.1519992  57.1384990  68.7029997
  50.1029992  56.2214990  66.7499997  50.7739992  55.6324990  66.0879997
  49.9189992  57.2104990  66.2779997  49.1419992  55.6744990  66.8579997
  50.7299992  55.0954990  68.8949997  50.9002418  55.3418291  69.9430644
  49.7351926  54.6649921  68.7804435  51.7669992  54.0954990  68.4379997
  52.7621589  54.5251507  68.5527011  51.6906804  53.1908029  69.0411578
  51.5971109  53.8483155  67.3900788  52.3719992  57.8224990  66.7419997
  52.9459992  57.3514990  65.7449997  51.9079992  59.0834990  66.7249997
  51.1049992  59.8084990  67.7259997  51.7165639  59.1416918  67.1181698
  51.6997479  60.1908621  68.5555607  50.4769992  60.9014990  66.9239997
  49.5269992  60.5534990  66.4649997  50.8704589  60.1412097  67.5987227
  51.4619992  61.2404990  65.8819997  52.2089992  61.9674990  66.2679997
  50.9997693  61.6731472  64.9947237  52.1349992  59.9084990  65.5249997
  51.7339992  59.4204990  64.6509997  53.6039992  60.0994990  65.1979997
  53.9849992  60.0814990  64.0189997  54.4429992  60.2684990  66.2209997
  54.1032047  60.2889782  67.1719043  55.8679992  60.4804990  65.9909997
  55.9819992  61.3054990  65.3039997  56.5629992  60.7864990  67.3189997
  56.0569992  60.1744990  68.0929997  57.5768092  60.3993068  67.2171583
  56.6159992  62.2234990  67.8569997  56.7349992  62.1944990  68.9609997
  57.7679992  62.9984990  67.2529997  57.6508877  63.0394559  66.1700840
  57.7759232  64.0113750  67.6556410  58.7076834  62.5033753  67.4978399
  55.3059992  62.9694990  67.6429997  54.5007757  62.4459983  68.1584233
  55.3940292  63.9806919  68.0402916  55.0840753  63.0166011  66.5768711
  56.4899992  59.2594990  65.3259997  57.2179992  59.3794990  64.3319997
  56.1849992  58.0704990  65.8479997  55.6204744  58.0064111  66.6830468
  56.7189992  56.8384990  65.2779997  57.7879992  56.9464990  65.1749997
  56.3809992  55.6624990  66.1999997  56.6979992  55.9754990  67.2139997
  55.2927628  55.6452121  66.1404793  56.9259992  54.2384990  66.0169997
  58.0259992  54.2744990  65.8629997  56.6079992  53.4254990  67.2589997
  55.5282875  53.3901776  67.4041678  56.9912307  52.4122205  67.1385790
  57.0758310  53.8895368  68.1272754  56.3589992  53.5264990  64.7979997
  56.6081954  54.0900164  63.8988618  56.7864635  52.5261666  64.7293651
  55.2755132  53.4524507  64.8911327  56.1899992  56.6114990  63.8669997
  56.9419992  56.1964990  62.9769997  54.8989992  56.8704990  63.6429997
  54.2874390  57.1630056  64.3916874  54.3239992  56.6774990  62.3149997
  54.5259992  55.6634990  62.0039997  52.8179992  56.9334990  62.3579997
  52.5939992  57.4724990  63.3019997  52.5867143  57.6007211  61.5276853
  51.9089992  55.7074990  62.2939997  52.1289992  55.1324990  61.3699997
  52.1319992  54.8184990  63.5059997  51.9085845  55.3785186  64.4140540
  51.4768884  53.9494523  63.4452670  53.1707166  54.4889186  63.5293114
  50.4529992  56.1304990  62.1979997  50.3061705  56.7276501  61.2980267
  49.8190262  55.2449597  62.1532817  50.1876856  56.7228072  63.0737157
  54.9919992  57.5844990  61.2909997  55.3799992  57.1364990  60.2009997
  55.1379992  58.8684990  61.6279997  54.7630026  59.2276799  62.4942940
  55.7969992  59.8004990  60.7209997  55.2949992  59.7544990  59.7659997
  55.7349992  61.2194990  61.2889997  56.4179992  61.3084990  62.1609997
  56.1589992  62.2324990  60.2399997  55.7479992  61.9494990  59.2469997
  57.2679992  62.2614990  60.1689997  55.7749992  63.2394990  60.5089997
  54.3959992  61.5064990  61.7129997  54.3571663  62.3970269  62.0694436
  57.2409992  59.3924990  60.4719997  57.7139992  59.4254990  59.3279997
  57.9539992  58.9924990  61.5279997  57.5606905  59.0034916  62.4582076
  59.3459992  58.5894990  61.3709997  59.8819992  59.4044990  60.9079997
  59.9519992  58.2564990  62.7339997  59.7129992  57.2044990  62.9999997
  61.0334950  58.3786331  62.6744166  59.4359992  59.1064990  63.7429997
  59.8313496  58.8775326  64.5873173  59.4689992  57.4054990  60.4249997
  60.2889992  57.4204990  59.5029997  58.6349992  56.3794990  60.6129997
  57.9720596  56.3772496  61.3749743  58.7289992  55.1874990  59.7729997
  59.7629992  54.8784990  59.7449997  57.8479992  54.0604990  60.3409997
  56.8089992  54.4324990  60.4679997  57.8459992  52.8694990  59.4009997
  58.8640290  52.4989095  59.2810836  57.2189486  52.0800331  59.8153083
  57.4535819  53.1727238  58.4303479  58.3509992  53.6444990  61.7089997
  58.3199992  54.5084990  62.4069997  59.3999992  53.2854990  61.6339997
  57.7079992  52.8354990  62.1179997  58.3679992  55.5074990  58.3269997
  59.0629992  55.0844990  57.3939997  57.2809992  56.2534990  58.1109997
  56.7166477  56.5943649  58.8761252  56.8449992  56.5414990  56.7469997
  56.7619992  55.6074990  56.2109997  55.4979992  57.2614990  56.7869997
  54.9429992  56.9374990  57.6929997  55.7503269  58.3213628  56.8204583
  54.5999992  56.9954990  55.6029997  53.9679992  55.7694990  55.4499997
  54.1366219  54.9946374  56.1978335  53.1389992  55.5224990  54.3759997
  52.6602547  54.5500064  54.2612669  52.9219992  56.5114990  53.4419997
  52.0939992  56.2704990  52.3709997  52.1859992  57.0014990  51.7549997
  53.5259992  57.7424990  53.5789997  53.3499992  58.5174990  52.8479997
  54.3579992  57.9784990  54.6549997  54.8366641  58.9509011  54.7708190
  57.8879992  57.3714990  56.0009997  58.2909992  57.0354990  54.8729997
  58.3519992  58.4584990  56.6249997  57.9782451  58.7570313  57.5145421
  59.3639992  59.2874990  55.9889997  59.0349992  59.5114990  54.9849997
  59.5579992  60.5744990  56.7879997  59.7419992  60.2984990  57.8469997
  60.4176328  61.1294173  56.4122394  58.1559992  61.7104990  56.7109997
  58.6925968  62.6464912  57.4887399  60.6809992  58.5394990  55.8309997
  61.4179992  58.7904990  54.8749997  60.9889992  57.6064990  56.7369997
  60.4215959  57.4680287  57.5610013  62.1969992  56.8064990  56.5879997
  63.0219992  57.4744990  56.3949997  62.4509992  55.9954990  57.8579997
  62.5552834  56.6715336  58.7066469  62.5709992  56.6794990  58.7249997
  63.3689992  55.3814990  57.7369997  62.1049992  55.8894990  55.3769997
  63.0859992  55.7234990  54.6469997  60.9369992  55.2804990  55.1539997
  60.1813900  55.3318114  55.8222220  60.7539992  54.4524990  53.9629997
  61.5399992  53.7134990  53.9449997  59.3749992  53.7664990  53.9859997
  58.5809992  54.5364990  54.0889997  59.1559992  52.9834990  52.7039997
  59.9304185  52.2227978  52.6054628  58.1777332  52.5036696  52.7333214
  59.2023794  53.6610276  51.8514121  59.2619992  52.8434990  55.1839997
  59.5629992  53.3794990  56.1089997  59.9299992  51.9654990  55.0489997
  58.2119992  52.5004990  55.2979997  60.9349992  55.2924990  52.7049997
  61.6389992  54.8974990  51.7629997  60.3159992  56.4734990  52.6779997
  59.7210486  56.7873734  53.4314026  60.4879992  57.3464990  51.5239997
  60.1289992  56.8184990  50.6519997  59.8919713  58.2467479  51.6736724
  61.9369992  57.7444990  51.2999997  62.4369992  57.7164990  50.1679997
  62.6349992  58.0984990  52.3779997  62.1968260  58.1041788  53.2879839
  64.0079992  58.5764990  52.2689997  64.0479992  59.3104990  51.4779997
  64.4539992  59.1974990  53.6039997  64.0399992  58.5984990  54.4439997
  65.9699992  59.2264990  53.7079997  66.3979992  59.8304990  52.8789997
  66.3739992  58.1934990  53.6399997  66.2739992  59.6844990  54.6739997
  63.8829992  60.6104990  53.7369997  64.0497653  61.1152051  52.7853897
  62.8117780  60.5089788  53.9110061  64.4969992  61.4194990  54.8479997
  65.5682126  61.5218477  54.6744294  64.0378072  62.4076808  54.8751763
  64.3302271  60.9156198  55.8000462  64.9359992  57.4554990  51.8209997
  65.8309992  57.6724990  50.9989997  64.7449992  56.2394990  52.3459997
  64.0666369  56.0614475  53.0727881  65.6039992  55.1414990  51.9179997
  66.6229992  55.4994990  51.9169997  65.4719992  53.9314990  52.8499997
  65.7329992  54.2224990  53.8899997  64.0679992  53.3724990  52.8439997
  63.8549992  52.8854990  51.8679997  63.3339992  54.1914990  52.9999997
  63.9599992  52.6144990  53.6499997  66.3659992  52.9004990  52.4139997
  66.2861782  52.1407844  52.9954313  65.3149992  54.7384990  50.4789997
  66.2379992  54.3514990  49.7549997  64.0579992  54.8404990  50.0319997
  63.2830872  55.0438441  50.6470293  63.7749992  54.5874990  48.6229997
  64.1889992  53.6254990  48.3629997  62.2669992  54.6034990  48.3809997
  61.8029992  53.7534990  48.9249997  61.9080272  55.5569927  48.7684126
  61.8739992  54.4704990  46.9279997  62.2819992  53.3784990  46.1769997
  62.8970084  52.6135725  46.6510785  61.9219992  53.2504990  44.8499997
  62.2518732  52.3888167  44.2696646  61.1429992  54.2204990  44.2599997
  60.7789992  54.0994990  42.9389997  60.3809992  54.9284990  42.6639997
  60.7229992  55.3134990  44.9859997  60.1129992  56.0734990  44.5209997
  61.0869992  55.4334990  46.3119997  60.7549962  56.2942129  46.8925560
  64.4769992  55.6094990  47.7359997  65.0779992  55.2504990  46.7129997
  64.4289992  56.8874990  48.1229997  63.8808656  57.1749717  48.9211277
  65.1219992  57.9164990  47.3519997  64.8079992  57.8354990  46.3219997
  64.7869992  59.3014990  47.9049997  63.7097821  59.4612051  47.8581260
  63.6919992  59.4764990  47.8479997  65.3219992  60.0814990  47.3209997
  66.6299992  57.6904990  47.3519997  67.2949992  57.8674990  46.3219997
  67.1889992  57.3084990  48.5029997  66.6354246  57.2348163  49.3445609
  68.6219992  57.0504990  48.5929997  69.1459992  57.9114990  48.2049997
  69.0149992  56.7954990  50.0479997  68.8499992  57.7274990  50.6289997
  68.4024804  55.9978684  50.4683640  70.4429992  56.3794990  50.2279997
  71.5339992  57.1944990  50.2669997  71.3543717  58.2634879  50.1525607
  72.6739992  56.4504990  50.4509997  73.6125714  56.8184802  50.5124129
  72.3309992  55.1264990  50.5379997  73.1299992  54.0024990  50.7229997
  74.2029992  54.0684990  50.8259997  72.5059992  52.7874990  50.7719997
  73.0979992  51.8954990  50.9149997  71.1189992  52.6724990  50.6409997
  70.6609992  51.6954990  50.6849997  70.3229992  53.7884990  50.4579997
  69.2539992  53.6714990  50.3599997  70.9309992  55.0444990  50.4029997
  69.0289992  55.8754990  47.7129997  70.0689992  55.9254990  47.0469997
  68.2269992  54.8084990  47.7009997  67.4286958  54.7449673  48.3164463
  68.5279992  53.6714990  46.8399997  69.5519992  53.3774990  47.0159997
  67.5799992  52.5134990  47.1489997  67.6599992  52.2524990  48.2259997
  66.5534571  52.7957259  46.9152066  67.8709992  51.2644990  46.3669997
  68.7869992  50.3374990  46.8349997  69.2975416  50.5259430  47.7794229
  69.0569992  49.1864990  46.1219997  69.7837952  48.4674395  46.4999175
  68.4059992  48.9474990  44.9279997  68.6139992  48.0484990  44.3689997
  67.4869992  49.8614990  44.4519997  66.9759992  49.6784990  43.5179997
  67.2219992  51.0104990  45.1699997  66.4937870  51.7305904  44.7968037
  68.4449992  54.0594990  45.3699997  69.2649992  53.6144990  44.5569997
  67.4609992  54.8864990  45.0069997  66.7377734  55.1674467  45.6536155
  67.3739992  55.3524990  43.6259997  67.3779992  54.4884990  42.9789997
  66.0999992  56.1674990  43.4169997  65.2619992  55.6544990  43.9349997
  66.2617051  57.1449286  43.8715131  65.7299992  56.3444990  41.9549997
  66.2529992  57.2384990  41.5539997  66.0583923  55.4554570  41.4166091
  64.2349992  56.5224990  41.7719997  63.8430337  57.1324400  42.5859001
  64.0608561  57.0290000  40.8226681  63.5319992  55.1784990  41.7639997
  63.5079992  54.7614990  42.7939997  64.0730915  56.1246098  41.7501177
  64.2299992  54.1954990  40.8919997  65.2009992  54.0534990  41.2369997
  64.2579992  54.5554990  39.9159997  63.7189992  53.2894990  40.9119997
  68.6009992  56.1724990  43.2399997  69.1419992  56.0104990  42.1399997
  69.0519992  57.0574990  44.1309997  68.5564976  57.2342966  44.9931598
  70.2469992  57.8464990  43.8449997  70.1199992  58.3134990  42.8789997
  70.4479992  58.9074990  44.9279997  69.4799992  59.4294990  45.0729997
  70.6804986  58.3825563  45.8545412  71.5159992  59.9714990  44.6629997
  72.5149992  59.5594990  44.9189997  71.5089992  60.3974990  43.2039997
  70.5329602  60.8112002  42.9504294  72.2768704  61.1539903  43.0421493
  71.7121394  59.5332397  42.5716308  71.3149992  61.1704990  45.5729997
  71.3842308  60.8532307  46.6135030  72.0842599  61.9152492  45.3688275
  70.3320290  61.6048508  45.3907716  71.4789992  56.9574990  43.7269997
  72.3429992  57.1844990  42.8689997  71.5789992  55.9414990  44.5859997
  70.8977980  55.8265600  45.3227854  72.6899992  54.9984990  44.5179997
  73.6129992  55.5544990  44.5879997  72.5759992  53.9974990  45.6679997
  71.8999992  54.4164990  46.4439997  72.1590646  53.0968490  45.2173389
  73.8749992  53.6604990  46.3539997  74.7549992  54.6594990  46.7389997
  74.4946977  55.6970704  46.5297437  75.9399992  54.3614990  47.3749997
  76.6266443  55.1560390  47.6671066  76.2549992  53.0484990  47.6389997
  77.4349992  52.7504990  48.2749997  77.5759992  53.4074990  48.9619997
  75.3969992  52.0354990  47.2729997  75.6489992  51.0064990  47.4819997
  74.2139992  52.3454990  46.6369997  73.5261576  51.5508914  46.3479102
  72.7039992  54.2724990  43.1789997  73.7519992  54.1474990  42.5309997
  71.5369992  53.7944990  42.7449997  70.7106340  53.8576705  43.3222598
  71.4379992  53.0914990  41.4689997  72.1829992  52.3094990  41.4569997
  70.0279992  52.4934990  41.3009997  69.2789992  53.1974990  41.7219997
  69.7159992  52.2474990  39.8329997  70.4441982  51.5506036  39.4180731
  68.7154874  51.8252101  39.7394653  69.7643788  53.1901208  39.2878161
  69.9009992  51.2084990  42.0999997  70.0759992  51.4114990  43.1789997
  70.6539992  50.4704990  41.7509997  68.8799992  50.7874990  41.9799997
  71.7979992  54.0224990  40.3209997  72.4899992  53.6264990  39.3749997
  71.3359992  55.2744990  40.3819997  70.7256527  55.5700087  41.1304985
  71.6509992  56.2324990  39.3269997  71.3709992  55.7944990  38.3799997
  70.8889992  57.5354990  39.5579997  69.8199992  57.3934990  39.2909997
  70.9671039  57.8037964  40.6115727  71.4179992  58.5824990  38.7639997
  70.9232304  59.3888981  38.9268617  73.1479992  56.4974990  39.2449997
  73.7219992  56.5264990  38.1479997  73.8029992  56.6874990  40.3929997
  73.3227681  56.7050482  41.2813517  75.2329992  56.9834990  40.3729997
  75.4119992  57.7154990  39.5999997  75.6979992  57.5264990  41.7399997
  74.8979992  58.1654990  42.1709997  76.0049992  56.3944990  42.7019997
  76.7964945  55.7697804  42.2880396  76.3303305  56.8068275  43.6571150
  75.1090802  55.7923299  42.8530729  76.9149992  58.4204990  41.5649997
  76.7249992  59.1734990  40.7709997  77.7939992  57.8084990  41.2709997
  77.1309992  58.9544990  42.5149997  76.0339992  55.7604990  39.9469997
  77.1159992  55.8954990  39.3609997  75.5339992  54.5524990  40.2259997
  74.6997657  54.4345596  40.7829952  76.2419992  53.3574990  39.7789997
  77.2989992  53.5144990  39.9349997  75.7629992  52.1364990  40.5619997
  74.7739992  52.3784990  41.0039997  75.6169932  51.3221949  39.8522876
  76.6829992  51.6694990  41.6909997  76.2679992  50.7454990  42.1459997
  78.0769992  51.3864990  41.1569997  78.4892299  52.2944160  40.7167140
  78.7189938  51.0552460  41.9732198  78.0242567  50.6065209  40.3974256
  76.7349992  52.6974990  42.8069997  75.7336063  52.8474444  43.2105190
  77.3955589  52.3426259  43.5980921  77.1132186  53.6415328  42.4147635
  76.0679992  53.1374990  38.2809997  77.0109992  52.7284990  37.5939997
  74.8689992  53.4014990  37.7589997  74.0977212  53.6753303  38.3508154
  74.6139992  53.2094990  36.3339997  75.0369992  52.2594990  36.0409997
  73.0979992  53.2304990  36.0609997  72.5969992  53.8554990  36.8309997
  72.7959992  53.7994990  34.6809997  73.4219992  53.2954990  33.9149997
  73.0209992  54.8874990  34.6629997  71.7259992  53.6354990  34.4299997
  72.5139992  51.8234990  36.1999997  72.8501866  51.2466237  35.3384350
  72.9271518  51.3897575  37.1106438  71.0039992  51.7934990  36.2679997
  70.5900961  52.2266857  35.3574321  70.6646093  50.7623321  36.3660235
  70.6670612  52.3698219  37.1296403  75.3569992  54.2534990  35.5099997
  75.9159992  53.9424990  34.4499997  75.3839992  55.5034990  35.9819997
  74.9025213  55.7508452  36.8347002  76.0599992  56.5614990  35.2369997
  75.6599992  56.5754990  34.2339997  75.8379992  57.9104990  35.9189997
  75.0899992  57.7864990  36.7309997  76.7923471  58.2241729  36.3419995
  75.3369992  58.9724990  34.9609997  75.3429992  58.7224990  33.7369997
  74.9399992  60.0594990  35.4299997  77.5499992  56.2814990  35.0909997
  78.1279992  56.5414990  34.0299997  78.1859992  55.7544990  36.1369997
  77.6911231  55.6359409  37.0094336  79.6049992  55.4014990  36.0909997
  80.0939992  56.0684990  35.3959997  80.2299992  55.5274990  37.4729997
  79.7079992  56.3244990  38.0449997  80.1192331  54.5759766  37.9930343
  81.6039992  55.8604990  37.3859997  81.9721310  55.9334659  38.2696029
  79.7539992  53.9854990  35.5299997  80.1909992  53.0474990  36.1999997
  79.3699992  53.8444990  34.2629997  78.9892365  54.6255288  33.7481100
  79.4409992  52.5484990  33.5999997  78.9749992  51.8164990  34.2429997
  78.7259992  52.6044990  32.2499997  77.6805435  52.8724015  32.4028086
  77.6599992  52.8814990  32.3979997  78.7889992  51.6154990  31.7469997
  80.8899992  52.1204990  33.4129997  81.7599992  52.9324990  33.0869997
  81.1459992  50.8284990  33.6139997  80.3944722  50.2162320  33.8976112
  82.4849992  50.2704990  33.5009997  83.1579992  51.0814990  33.2659997
  82.9389992  49.5694990  34.7999997  84.0459992  49.4834990  34.8039997
  82.4899992  50.3624990  36.0169997  81.3869992  50.2974990  36.1299997
  82.7719992  51.4304990  35.8989997  82.9649992  49.9494990  36.9329997
  82.3949992  48.1404990  34.8589997  81.3367323  48.2066059  35.1115896
  82.5041869  47.7106341  33.8633121  83.0999992  47.2604990  35.8679997
  82.9908456  47.6895060  36.8640611  82.6594364  46.2636294  35.8520412
  84.1583013  47.1935361  35.6157845  82.5159992  49.3004990  32.3269997
  81.4839992  48.8284990  31.8459997  83.7289992  49.0114990  31.8649997
  84.5445558  49.4344684  32.2845991  83.9219992  48.1014990  30.7509997
  84.8399992  47.5594990  30.9239997  83.0855619  47.4029078  30.7299675
  84.0119992  48.8034990  29.4109997  85.1009992  49.1424990  28.9479997
  84.1909992  48.0194990  28.3329997  84.2582643  47.0177293  28.4426915
  84.2928356  48.5680062  26.9956996  84.2022783  49.6533457  27.0397255
  85.2583783  48.3016347  26.5657297  83.4945633  48.1622375  26.3742392
  53.8769992  53.7644990  75.7859997  54.3899992  54.8954990  74.8999997
  55.1149992  54.3344990  73.7849997  55.3019992  55.7804990  75.7299997
  55.7149992  56.8534990  74.8939997  54.6129992  56.2604990  77.0059997
  55.6429992  56.8984990  77.7169997  54.0379992  55.0734990  77.7619997
  53.1609992  54.3874990  76.8499997  53.2129992  55.4704990  78.9609997
  52.3979992  56.6034990  78.6719997  55.1559992  54.9144990  72.5889997
  54.8529992  56.0924990  72.4229997  55.5879992  54.0364990  71.4539997
  55.2989992  58.2284990  77.5669997  56.3099992  58.7604990  78.5819997
  56.0829992  58.1934990  79.8939997  56.2589992  60.2824990  78.6399997
  57.2999992  60.7504990  79.4869997  56.3779992  60.8714990  77.2429997
  56.2599992  62.2924990  77.3059997  55.2649992  60.2994990  76.3729997
  55.4199992  58.8684990  76.3049997  55.3029992  60.8084990  74.9519997
  56.6329992  60.7914990  74.4409997  56.8549992  57.2254990  80.3919997
  56.8579992  56.0934990  79.9209997  57.7159992  57.6074990  81.5559997
  57.3189992  63.1114990  76.9019997  56.8929992  64.3424990  76.1049997
  55.8569992  65.0344990  76.7949997  58.0699992  65.2704990  75.8089997
  57.6129992  66.5224990  75.2839997  58.8699992  65.5304990  77.0739997
  60.0589992  66.2494990  76.7629997  59.2429992  64.2194990  77.7509997
  58.0449992  63.5074990  78.0589997  59.9449992  64.4164990  79.0659997
  59.1039992  65.1444990  79.9749997  57.7429992  66.7604990  73.9139997
  57.5689992  68.2304990  73.6269997  58.0479992  68.5414990  72.3229997
  56.1189992  68.6234990  73.7779997  55.9609992  70.0014990  73.4449997
  55.2529992  67.7604990  72.8829997  53.8789992  68.0644990  73.0959997
  55.4879992  66.2894990  73.1929997  56.8899992  65.9824990  73.0629997
  54.7519992  65.3614990  72.2559997  55.0629992  63.9984990  72.5379997
  59.6039992  65.3634990  81.2709997  58.5709992  66.1744990  82.0219997
  58.9389992  66.2904990  83.3929997  58.4139992  67.5324990  81.3779997
  57.4479992  68.2984990  82.0919997  59.7549992  68.2504990  81.3569997
  59.6619992  69.5014990  80.6829997  60.7579992  67.3824990  80.6199997
  60.8399992  66.0944990  81.2599997  62.1589992  67.9324990  80.6079997
  62.9929992  66.9844990  79.9509997  59.3899992  68.7764990  72.0049997
  59.4789992  69.2384990  70.5769997  60.8149992  69.6534990  70.3189997
  59.1079992  68.1244990  69.6359997  59.2129992  68.5734990  68.2859997
  60.0279992  66.9444990  69.8719997  59.6389992  65.8514990  69.0489997
  59.9319992  66.5224990  71.3289997  60.2599992  67.6454990  72.1759997
  60.8849992  65.4084990  71.6909997  60.8829992  65.1764990  73.0999997
  63.4639992  67.3304990  78.6669997  63.7009992  66.0504990  77.8689997
  64.1889992  66.2924990  76.5439997  64.7199992  65.1964990  78.5749997
  64.9689992  64.0174990  77.8109997  66.0019992  65.9924990  78.7489997
  66.9649992  65.2264990  79.4619997  65.7079992  67.2724990  79.5229997
  64.7029992  68.0314990  78.8259997  66.9149992  68.1694990  79.6539997
  66.5769992  69.4054990  80.2779997  56.4559992  68.8824990  81.3029997
  55.8829992  70.1874990  81.7909997  55.5109992  71.0064990  80.6839997
  54.6999992  69.9284990  82.6899997  54.0939992  71.1694990  83.0469997
  53.6879992  69.0374990  81.9889997  52.6319992  68.7014990  82.8829997
  54.3389992  67.7494990  81.4919997  55.4749992  68.0574990  80.6669997
  53.4099992  66.9254990  80.6339997  52.9599992  67.6804990  79.5119997
  63.4729992  66.8334990  75.4709997  64.2069992  66.6124990  74.1709997
  63.4019992  67.0434990  73.0799997  65.5279992  67.3474990  74.1839997
  66.2029992  67.1504990  72.9429997  65.2809992  68.8244990  74.4259997
  66.5169992  69.5224990  74.5129997  64.5169992  68.9924990  75.7299997
  63.2839992  68.2404990  75.6669997  64.1469992  70.4224990  76.0419997
  63.3399992  70.5054990  77.2129997  56.4899992  71.6144990  79.8969997
  55.7859992  72.6464990  79.0459997  56.7439992  73.5084990  78.4379997
  54.9179992  71.9764990  78.0049997  54.3159992  72.9684990  77.1749997
  55.7519992  71.0294990  77.1649997  54.9089992  70.3194990  76.2669997
  56.4629992  70.0284990  78.0639997  57.2439992  70.7294990  79.0559997
  57.4209992  69.1334990  77.3179997  58.3909992  69.8964990  76.6069997
  61.0919992  70.9814990  70.0119997  62.5879992  71.0474990  69.8299997
  62.9569992  72.2944990  69.2509997  63.2979992  70.8264990  71.1509997
  64.7069992  70.9614990  70.9909997  62.8029992  71.8244990  72.1779997
  63.3879992  71.5484990  73.4449997  61.2909992  71.7394990  72.3059997
  60.6759992  71.9214990  71.0119997  60.7219992  72.8044990  73.2109997
  61.1109992  74.1024990  72.7679997  65.3969992  69.7714990  70.7679997
  66.8629992  70.0334990  71.0049997  66.9959992  70.7294990  72.2209997
  67.4379992  70.8924990  69.9019997  68.8409992  71.0534990  70.1049997
  67.1729992  70.2524990  68.5519997  67.6139992  71.1184990  67.5109997
  65.6829992  69.9854990  68.3759997  65.1889992  69.1904990  69.4749997
  65.3699992  69.2184990  67.1139997  65.7359992  69.9614990  65.9549997
  56.5209992  50.3034990  74.2539997  55.4319992  51.5324990  76.7219997
  54.5399992  49.2324990  72.9739997  56.7579992  51.4644990  73.3599997
  54.5199992  50.2124990  71.8249997  55.0049992  49.8274990  74.1319997
  53.7659992  49.7754990  70.5909997  56.5409992  50.8524990  75.7559997
  52.2649992  49.7284990  70.8319997  54.9469992  52.7764990  76.0079997
  54.1229992  50.6754990  69.4179997  54.3369992  50.5004990  76.9069997
  53.6129992  50.2154990  68.0539997  56.1509992  51.8514990  78.0169997
  54.1439992  51.0774990  66.9459997  57.4089992  49.1174990  74.1509997
  53.9299992  50.9694990  65.6349997  54.8419992  51.5634990  64.5939997
  52.7049992  50.2674990  65.0969997  53.0079992  49.0034990  64.2919997
  53.4019992  49.3024990  62.8789997  53.7719992  48.4444990  61.9289997
  53.4429992  46.9734990  61.9819997  54.5689992  48.9354990  60.7409997
  55.0249992  47.9234990  59.6869997  55.8789992  48.5654990  58.6399997
  56.4559992  47.9914990  57.5849997  56.1329992  46.6024990  57.1049997
  57.5169992  48.7144990  56.7909997  58.7449992  49.0734990  57.6269997
  59.8949992  49.5414990  56.7859997  60.5759992  48.8604990  55.8739997
  60.5109992  47.3694990  55.7549997  61.4709992  49.5294990  54.8799997
  53.1439992  53.1024990  75.3729997  53.5749992  55.4754990  74.5219997
  55.5989992  53.4874990  73.9149997  56.1579992  55.2334990  76.0679997
  54.9349992  57.3464990  74.5899997  53.7869992  56.9174990  76.8319997
  54.8539992  54.4784990  78.1149997  53.8679992  55.7084990  79.7719997
  52.5749992  54.6504990  79.2199997  52.9629992  57.3564990  78.4349997
  55.8019992  53.0564990  71.8229997  56.4659992  54.4464990  71.0009997
  54.8029992  53.9814990  70.7279997  54.2499992  58.4014990  77.6879997
  57.2869992  58.4624990  78.2609997  55.3359992  58.5324990  80.4379997
  55.3189992  60.5974990  79.0419997  58.1569992  60.4704990  79.1309997
  57.3309992  60.6234990  76.8229997  54.3409992  60.6004990  76.8199997
  54.9319992  61.8124990  74.9289997  54.6959992  60.1714990  74.3439997
  57.1959992  61.3664990  74.9839997  57.5529992  58.6364990  81.7979997
  58.7449992  57.4594990  81.3009997  57.4669992  56.9984990  82.3999997
  57.9249992  62.5364990  76.2339997  56.5179992  64.0074990  75.1609997
  56.1889992  65.3404990  77.6529997  58.6899992  64.7894990  75.0829997
  58.2639992  66.1094990  77.7389997  60.6059992  65.7214990  76.1599997
  59.8899992  63.7014990  77.0749997  60.8489992  64.9644990  78.9049997
  60.1699992  63.4594990  79.4889997  58.7339992  66.4364990  73.6719997
  58.1429992  68.7914990  74.3339997  55.8139992  68.4724990  74.7929997
  56.2359992  70.1454990  72.5259997  55.5099992  67.9594990  71.8629997
  53.6469992  67.8834990  74.0209997  55.1279992  66.1394990  74.1899997
  55.0359992  65.5834990  71.2489997  53.7009992  65.5054990  72.3899997
  56.0159992  63.8534990  72.4209997  59.7929992  64.4164990  81.7329997
  57.6259992  65.6734990  81.9769997  59.7949992  66.7434990  83.4609997
  58.0749992  67.4104990  80.3699997  60.0589992  68.4274990  82.3669997
  59.3859992  69.3534990  79.7649997  60.4009992  67.3354990  79.6119997
  62.4999992  68.0824990  81.6109997  62.1879992  68.8724990  80.0969997
  59.7289992  69.5194990  72.6969997  58.7979992  70.0494990  70.4229997
  58.0969992  67.8234990  69.8149997  60.1239992  68.8504990  68.1069997
  61.0319992  67.2284990  69.6349997  58.7289992  65.5934990  69.2629997
  58.9289992  66.1764990  71.4719997  61.8729992  65.6774990  71.3819997
  60.5699992  64.5144990  71.1959997  61.1679992  65.9804990  73.5609997
  62.7549992  67.9454990  78.1519997  62.7509992  65.5644990  77.7969997
  64.3509992  64.9084990  79.5369997  65.3039992  64.2644990  76.9339997
  66.3899992  66.2334990  77.7819997  66.6169992  65.0064990  80.3399997
  65.3899992  66.9684990  80.4989997  67.3089992  68.3684990  78.6789997
  67.6409992  67.6724990  80.2619997  65.9179992  69.8704990  79.7389997
  57.1069992  69.1204990  80.4869997  56.6289992  70.7074990  82.3549997
  55.0349992  69.4294990  83.5749997  53.7899992  71.6234990  82.2449997
  53.3029992  69.5784990  81.1509997  52.9919992  68.2104990  83.6389997
  54.6089992  67.1994990  82.3689997  52.5649992  66.6254990  81.2189997
  53.9389992  66.0654990  80.2809997  52.4779992  68.4624990  79.8219997
  62.5239992  66.3414990  75.4239997  64.4059992  65.5684990  74.0549997
  63.2119992  67.9904990  73.1709997  66.1439992  66.9654990  74.9709997
  65.6539992  67.4924990  72.2189997  64.7139992  69.2234990  73.6099997
  67.0379992  69.1674990  75.2489997  65.1739992  68.6414990  76.4979997
  63.6049992  70.8304990  75.2149997  65.0479992  70.9744990  76.2119997
  62.5179992  70.0094990  77.0749997  57.2169992  72.0344990  80.5599997
  55.1489992  73.2354990  79.6709997  57.3299992  72.9874990  77.8669997
  54.1489992  71.4144990  78.4949997  55.0089992  73.4804990  76.7289997
  56.4739992  71.5984990  76.6169997  54.2569992  69.8074990  76.7719997
  55.6899992  69.4294990  78.4989997  56.8699992  68.5344990  76.6229997
  57.9289992  68.5154990  78.0279997  57.9449992  70.4634990  75.9589997
  60.5419992  71.2634990  69.1389997  62.8879992  70.2654990  69.1639997
  62.6919992  73.0164990  69.8419997  63.0829992  69.8334990  71.4889997
  63.0809992  72.8064990  71.8559997  63.1329992  70.6574990  73.7309997
  61.0819992  70.7754990  72.7199997  61.0829992  72.6484990  74.2059997
  59.6539992  72.7404990  73.1889997  62.0779992  74.1734990  72.7839997
  65.0089992  69.0454990  71.4509997  67.3859992  69.0994990  71.0279997
  66.5129992  71.5694990  72.1669997  66.9679992  71.8534990  69.9219997
  69.2719992  70.1844990  70.0869997  67.7079992  69.3274990  68.5049997
  67.1249992  71.9554990  67.5589997  65.2169992  70.9474990  68.3319997
  64.3209992  69.0144990  67.0809997  65.9319992  68.3084990  67.1229997
  65.2339992  70.7914990  65.9319997  55.1799992  48.4124990  72.7219997
  53.5399992  48.8924990  73.1459997  55.5329992  50.4014990  71.5389997
  53.9979992  51.0734990  72.1899997  54.0639992  48.7764990  70.3499997
  51.9119992  50.7084990  71.0769997  52.0539992  49.0604990  71.6409997
  51.7719992  49.3834990  69.9469997  55.1899992  50.7404990  69.3649997
  53.6409992  51.6114990  69.6109997  52.5439992  50.2634990  68.0489997
  53.9509992  49.2144990  67.8899997  54.7559992  51.8554990  67.2379997
  55.6729992  52.0334990  65.0749997  54.3039992  52.2884990  64.0209997
  55.1959992  50.7884990  63.9469997  52.1789992  50.9504990  64.4629997
  52.1299992  49.9604990  65.9459997  52.1339992  48.3864990  64.2809997
  53.8329992  48.5084990  64.7609997  53.3849992  50.2974990  62.6069997
  52.8799992  46.7654990  62.8679997  54.3489992  46.4054990  61.9939997
  52.8659992  46.7054990  61.1219997  55.4499992  49.4064990  61.1259997
  53.8849992  49.5674990  60.2139997  54.1629992  47.4974990  59.2189997
  55.6049992  47.1684990  60.1759997  56.0419992  49.5784990  58.7489997
  55.3749992  46.1764990  57.7289997  57.0139992  45.9954990  57.1489997
  55.7809992  46.6464990  56.0949997  57.0939992  49.6164990  56.3999997
  57.8399992  48.0554990  56.0129997  59.0509992  48.2084990  58.1759997
  58.4719992  49.8774990  58.2779997  60.1949992  50.5164990  56.9359997
  59.8499992  46.9794990  56.5019997  61.4879992  46.9564990  55.8929997
  60.1469992  47.1044990  54.7839997  61.4549992  50.5874990  55.0409997
  61.1279992  49.3134990  53.8899997  62.4709992  49.1664990  54.9999997
  71.4939992  71.2894990  65.5399997  81.8219992  63.1454990  57.1409997
  72.4859992  70.0424990  65.6659997  82.1919992  61.6984990  57.0329997
  70.6629992  71.0524990  64.3389997  83.3079992  61.4184990  56.0779997
  70.5319992  71.1634990  66.8149997  81.5949992  60.7274990  57.7119997
  71.9549992  70.1024990  69.0689997  80.6409992  60.8384990  58.8609997
  73.4399992  72.2574990  70.4739997  81.2709992  61.5394990  60.0659997
  71.3109992  74.2274990  71.2209997  80.3349992  61.6584990  61.2439997
  71.3459992  75.9314990  67.9219997  79.8309992  60.3484990  61.7919997
  70.5999992  73.2394990  67.8049997  80.0019992  62.8494990  61.7389997
  72.2579992  72.5564990  65.5809997  79.0069992  63.1484990  62.8169997
  78.8809992  64.6414990  63.1319997  77.8649992  64.9894990  64.1959997
  77.7639992  66.4594990  64.5019997  77.1309992  64.0484990  64.7979997
  76.3209992  64.1384990  66.0539997  77.1729992  64.5124990  67.2619997
  76.4349992  64.3584990  68.5699997  77.0659992  63.3774990  69.5219997
  75.3019992  65.0094990  68.8479997  74.8509992  66.4004990  68.4989997
  75.8549992  67.2004990  67.6689997  75.4649992  68.6554990  67.4409997
  75.4179992  69.4274990  68.7509997  74.1579992  68.7524990  66.6839997
  73.6599992  70.1414990  66.3749997  70.6419992  71.8364990  68.0399997
  71.9409992  71.4944990  68.7669997  72.0779992  72.3034990  70.0519997
  71.6519992  73.7584990  69.9179997  70.4329992  73.9744990  69.0259997
  70.2279992  75.4214990  68.6379997  82.4499992  63.7224990  56.4949997
  81.9509992  63.4724990  58.1509997  80.7999992  63.2734990  56.8519997
  83.6429992  62.3364990  55.6419997  82.9609992  60.7634990  55.3069997
  84.1179992  60.9564990  56.6019997  81.8189992  59.7664990  57.4079997
  71.8679992  69.5934990  68.2489997  80.3369992  59.8554990  59.1539997
  79.8049992  61.4244990  58.5389997  73.7199992  71.3334990  70.5609997
  81.5689992  62.5234990  59.7689997  82.1019992  60.9434990  60.3799997
  72.0669992  74.1044990  71.8169997  71.1839992  76.8594990  67.6869997
  80.2429992  59.5414990  61.2239997  78.7629992  60.3224990  61.7279997
  80.1289992  60.2524990  62.8149997  80.4869992  63.6634990  61.3299997
  79.3099992  62.6384990  63.7079997  78.0509992  62.8174990  62.4659997
  78.6039992  65.1474990  62.2309997  79.8319992  64.9454990  63.5169997
  78.4539992  67.0004990  63.8879997  77.9979992  66.6264990  65.5329997
  76.7689992  66.7974990  64.3029997  77.1209992  63.1284990  64.3309997
  75.8619992  63.1904990  66.2369997  75.5889992  64.9064990  65.9179997
  77.4799992  65.5334990  67.1609997  78.0099992  63.8464990  67.2849997
  77.9609992  62.9834990  69.0869997  76.3819992  62.5784990  69.7159997
  77.3039992  63.8734990  70.4389997  74.6189992  64.4644990  69.3969997
  74.6709992  66.9314990  69.4099997  73.9729992  66.2944990  67.8969997
  75.9529992  66.7264990  66.7149997  76.7689992  67.2134990  68.2249997
  76.2219992  69.1084990  66.8349997  74.6709992  69.0024990  69.3879997
  75.1789992  70.4514990  68.5539997  76.3709992  69.3694990  69.2329997
  73.4079992  68.2614990  67.2679997  74.3479992  68.3024990  65.7319997
  74.3889992  70.6634990  65.7909997  73.4919992  70.6784990  67.2849997
  69.8259992  71.5264990  68.6589997  72.7659992  71.7384990  68.1319997
  71.4179992  71.8594990  70.7679997  72.4699992  74.2814990  69.4689997
  69.5869992  73.6454990  69.5929997  70.0879992  76.0034990  69.5249997
  69.3679992  75.4814990  68.0039997  59.7979992  97.9074990  55.1019997
  59.0959992  98.7504990  54.9249997  59.6159992  97.1264990  54.3329997
  60.7799992  98.4074990  54.9639997  59.6359992  97.4614990  56.5029997
  58.6229992  97.0184990  56.6109997  60.2779992  96.5914990  56.7579997
  59.8389992  98.6354990  57.4489997  58.9439992  99.2904990  57.4969997
  59.8719992  98.1264990  58.4369997  61.0449992  99.4484990  57.3619997
  61.9139992  98.8274990  57.0539997  60.9229992 100.3014990  56.6589997
  61.4769992  99.9244990  58.6989997  60.8159992 100.7454990  59.0509997
  61.7359992  99.1464990  59.4479997  62.8759992 100.6034990  58.5119997
  63.4489992  99.9234990  57.8459997  62.8059992 101.5584990  57.9499997
  63.7709992 100.6994990  59.7759997  63.8259992  99.6914990  60.2399997
  64.8189992 100.7954990  59.4189997  63.3719992 101.8234990  60.6879997
  63.3699992 102.7894990  60.1399997  62.3679992 101.6784990  61.1399997
  64.5239992 101.9834990  61.7559997  65.5029992 102.1854990  61.2709997
  64.2919992 102.8744990  62.3789997  64.7319992 100.7704990  62.6609997
  63.7249992 100.3214990  62.7969997  65.3959992 100.0214990  62.1789997
  65.1569992 101.2124990  64.1309997  65.4099992 100.2754990  64.6709997
  65.9729992 101.9644990  64.1959997  63.9359992 101.7954990  64.8439997
  63.6169992 102.8044990  64.5039997  63.1289992 101.0324990  64.8649997
  64.3039992 102.1694990  66.3199997  65.0749992 101.4174990  66.5919997
  64.7379992 103.1904990  66.3899997  63.1179992 102.3314990  67.2209997
  62.5289992 103.1174990  66.7009997  62.4129992 101.4754990  67.2959997
  63.4889992 102.6794990  68.7049997  63.7339992 101.7934990  69.3289997
  64.4489992 103.2394990  68.7009997  62.3289992 103.4314990  69.3349997
  61.3449992 103.8064990  68.7349997  62.6029992 103.7964990  70.5889997
  61.6469992 104.5514990  71.3649997  62.2319992 105.3064990  71.9319997
  60.8629992 105.0154990  70.7289997  61.0769992 103.6664990  72.4849997
  60.3039992 104.1594990  73.1109997  62.1439992 103.2354990  73.4539997
  62.9999992 102.7614990  72.9289997  62.5819992 104.1724990  73.8599997
  61.5319992 102.5234990  74.4769997  61.6049992 100.9354990  74.4729997
  60.2289992 100.4484990  74.0059997  59.0989992 101.0394990  74.6079997
  59.3259992 102.0534990  75.0019997  58.3639992 101.2354990  73.7989997
  58.5549992 100.2124990  75.7619997  59.1879992 100.3674990  76.6229997
  57.5929992 100.6104990  76.0489997  58.4869992  98.7044990  75.4909997
  59.8309992  98.0274990  75.4079997  59.5259992  97.0304990  75.1269997
  60.4109992  98.3434990  74.5539997  60.3489992  98.0834990  76.3539997
  57.7269992  98.1084990  76.6469997  56.6939992  98.3734990  76.4699997
  57.8279992  97.0354990  76.7139997  58.0919992  98.5094990  77.5819997
  57.7599992  98.4154990  74.1929997  56.7459992  98.7214990  74.4029997
  57.9099992  97.3864990  73.9009997  58.1799992  99.0714990  73.4449997
  62.6739992 100.5064990  73.5119997  61.8409992 100.4784990  75.8939997
  60.5199992 102.4454990  71.8909997  59.3099992 102.7154990  71.1509997
  58.5179992 103.6114990  71.3679997  59.1569992 101.6054990  70.2029997
  59.8059992 100.7804990  70.5689997  59.5179992 102.0154990  69.2359997
  57.7599992 101.1654990  69.8599997  57.4079992 101.5684990  68.8869997
  57.0679992 101.5624990  70.6339997  57.5399992  99.6344990  69.6939997
  56.4719992  99.4224990  69.4739997  57.7599992  99.1504990  70.6699997
  58.4369992  98.9624990  68.6349997  58.0849992  97.9164990  68.5049997
  59.4929992  99.0034990  68.9779997  58.3739992  99.6294990  67.3249997
  58.7899992 100.6504990  67.4619997  57.2829992  99.6344990  67.1169997
  59.1519992  98.9264990  66.1379997  58.5079992  98.1094990  65.7469997
  60.1329992  98.5844990  66.5309997  59.5339992  99.8954990  65.0169997
  60.2779992 100.6234990  65.4039997  58.6829992 100.5384990  64.7069997
  60.1909992  99.2254990  63.8609997  60.6429992  98.2524990  64.1059997
  60.1339992  99.5064990  62.5059997  60.6029992  98.8724990  61.7389997
  59.3149992 100.6874990  61.9319997  60.0249992 101.2224990  61.2649997
  58.9909992 101.4644990  62.6559997  58.1169992 100.3084990  61.1169997
  57.2069992 100.3064990  61.7539997  58.2429992  99.3264990  60.6129997
  57.8709992 101.2864990  59.9579997  56.9419992 101.1384990  59.3669997
  58.6409992 101.1454990  59.1689997  57.8739992 102.7744990  60.3099997
  58.7359992 103.1934990  60.8709997  57.1189992 102.8644990  61.1189997
  57.4579992 103.7124990  59.1769997  57.2779992 104.6554990  59.7369997
  56.5029992 103.3364990  58.7509997  58.5769992 103.8034990  58.0239997
  58.3369992 104.6914990  57.4009997  58.5279992 102.8404990  57.4719997
  60.0139992 103.8844990  58.5159997  60.1659992 102.9414990  59.0819997
  60.0889992 104.6494990  59.3179997  61.0139992 104.0804990  57.4259997
  61.9369992 104.2234990  58.0269997  60.8679992 104.9874990  56.8009997
  61.1829992 103.1804990  56.7959997  94.3469992  53.0144990  56.8219997
  94.7489992  53.6434990  55.9989997  94.4029992  51.9494990  56.5109997
  95.0749992  53.1024990  57.6569997  92.9269992  53.3964990  57.1059997
  92.4349992  53.2034990  56.1279997  92.6209992  52.6884990  57.9059997
  92.6439992  54.8594990  57.4659997  93.2499992  55.2774990  58.2989997
  92.9239992  55.5104990  56.6099997  91.2079992  55.3184990  57.7949997
  91.3009992  56.4184990  57.9239997  90.6719992  55.0194990  56.8699997
  90.6649992  54.7314990  59.0999997  89.5859992  54.9874990  59.1699997
  90.7899992  53.6284990  59.1549997  91.4629992  55.4574990  60.2999997
  92.4179992  54.9184990  60.4739997  91.8029992  56.4694990  59.9919997
  90.7029992  55.4554990  61.6609997  91.1239992  56.1644990  62.4059997
  89.6889992  55.8944990  61.5389997  90.3499992  54.0664990  62.2729997
  89.5819992  53.9644990  63.0699997  89.8329992  53.4324990  61.5209997
  91.4889992  53.2444990  62.8629997  92.2689992  53.2654990  62.0719997
  91.8799992  53.7384990  63.7779997  91.2099992  51.7744990  63.1079997
  90.3269992  51.6744990  63.7749997  90.9149992  51.3644990  62.1189997
  92.4939992  51.0084990  63.7209997  92.1909992  49.9464990  63.8449997
  93.2449992  51.0544990  62.9029997  93.1119992  51.7284990  64.9019997
  94.0609992  51.2524990  65.2279997  93.3269992  52.7304990  64.4719997
  92.1909992  51.7424990  66.1269997  91.1559992  51.9504990  65.7799997
  92.1209992  50.7134990  66.5389997  92.5489992  52.7304990  67.1889997
  92.7539992  53.7084990  66.7039997  91.7229992  52.7914990  67.9299997
  93.8569992  52.2404990  67.9799997  93.6379992  51.2404990  68.4129997
  94.7159992  52.2874990  67.2769997  94.1079992  53.1454990  69.1549997
  94.0109992  54.3634990  69.0869997  94.2789992  52.3324990  70.1559997
  93.9709992  52.8604990  71.4639997  94.7059992  52.3174990  72.0969997
  94.2509992  53.9214990  71.6349997  92.4769992  52.6274990  71.8829997
  91.9269992  53.1854990  71.0939997  92.2029992  53.2174990  73.3339997
  92.4579992  52.4794990  74.1239997  92.9079992  54.0434990  73.5709997
  90.7829992  53.5704990  73.3439997  90.3229992  54.6384990  74.3569997
  88.8769992  54.2214990  74.6469997  88.1699992  53.1794990  73.9429997
  87.1079992  53.2684990  74.2569997  88.1519992  53.3914990  72.8529997
  88.7499992  51.7594990  74.3179997  88.3029992  50.9724990  73.7279997
  89.7999992  51.7814990  74.0659997  88.6009992  51.2804990  75.7769997
  87.2219992  51.6304990  76.2449997  87.0499992  51.2394990  77.2379997
  86.9699992  52.6764990  76.3389997  86.5539992  51.1364990  75.5549997
  88.8379992  49.7924990  75.8259997  88.1239992  49.3364990  75.1559997
  89.8589992  49.5904990  75.5379997  88.7779992  49.4024990  76.8319997
  89.5939992  51.9764990  76.6909997  90.5919992  51.7604990  76.3389997
  89.5019992  51.5354990  77.6729997  89.3749992  53.0344990  76.6979997
  90.9919992  54.4034990  75.6629997  90.2629992  55.9724990  73.6599997
  92.1919992  51.1974990  71.8109997  90.9889992  50.8434990  71.3529997
  90.0869992  51.6344990  71.1009997  90.9439992  49.4074990  71.1249997
  90.6309992  48.8694990  72.0449997  91.9339992  48.9934990  70.8379997
  89.8669992  48.9804990  70.0199997  88.8809992  49.4834990  70.1179997
  89.6669992  47.9004990  70.1869997  90.2989992  49.0594990  68.5779997
  91.3269992  48.6624990  68.4409997  90.3279992  50.1164990  68.2399997
  89.3539992  48.4714990  67.5899997  88.3559992  48.8154990  67.9369997
  89.4509992  47.3644990  67.5959997  89.5909992  48.8784990  66.1489997
  90.5659992  48.5034990  65.7709997  89.5949992  49.9804990  66.2939997
  88.4049992  48.6814990  65.1999997  88.4779992  47.6394990  64.8219997
  88.5579992  49.3754990  64.3459997  86.9909992  48.9894990  65.6779997
  86.8159992  48.3554990  66.5729997  86.3169992  48.4864990  64.9529997
  86.6879992  50.4644990  65.9909997  86.9869992  50.8504990  66.9759997
  85.9669992  51.3534990  65.2879997  85.9989992  52.3894990  65.6569997
  85.2489992  51.2034990  64.0099997  84.2699992  51.7284990  64.0009997
  85.0429992  50.1124990  63.9689997  85.9229992  51.5514990  62.7039997
  86.3839992  52.5614990  62.6489997  85.2109992  51.4294990  61.8599997
  87.0709992  50.5734990  62.2809997  86.8999992  49.5544990  62.6889997
  88.0089992  50.9874990  62.7069997  87.2709992  50.4844990  60.7399997
  86.3589992  49.9504990  60.3989997  88.2539992  49.9894990  60.5909997
  87.2829992  51.9134990  60.0559997  87.9119992  52.5844990  60.6789997
  86.2399992  52.2964990  60.0269997  87.7129992  51.7694990  58.6649997
  88.0659992  52.6984990  58.1669997  86.8859992  51.4834990  57.9819997
  88.9229992  50.7714990  58.4109997  89.5839992  50.7094990  59.3019997
  89.5199992  51.1484990  57.5539997  88.5179992  49.3044990  58.0299997
  89.4419992  48.6914990  57.9639997  87.9219992  49.3104990  57.0919997
  87.8449992  48.8564990  58.7909997  61.5859992  33.6864990  56.0459997
  62.5319992  33.9574990  55.5319997  60.7579992  33.7104990  55.3059997
  61.8299992  32.7284990  56.5529997  61.2409992  34.8334990  57.0659997
  61.4179992  35.8334990  56.6139997  60.1819992  34.8144990  57.3999997
  62.1279992  34.8374990  58.3749997  61.8209992  33.8884990  58.8629997
  63.1809992  34.7224990  58.0399997  61.9409992  36.0974990  59.2589997
  62.3219992  36.9564990  58.6659997  60.8359992  36.1354990  59.3709997
  62.7019992  36.1424990  60.5789997  63.8069992  36.0914990  60.4789997
  62.5139992  37.0914990  61.1249997  62.2189992  35.1054990  61.5609997
  61.1139992  35.1374990  61.4439997  62.6159992  34.1504990  61.1569997
  62.6009992  35.3854990  63.0049997  62.2469992  36.4244990  63.1769997
  62.1299992  34.6694990  63.7119997  64.0839992  35.3354990  63.3639997
  64.4739992  36.0444990  62.6029997  64.3519992  35.6224990  64.4029997
  64.7129992  33.9194990  63.1399997  64.7069992  33.6624990  62.0589997
  65.7589992  33.8134990  63.4989997  63.9519992  32.8094990  63.9579997
  63.6929992  33.2924990  64.9239997  63.0429992  32.4974990  63.3999997
  64.8069992  31.5424990  64.1819997  64.9189992  30.9674990  63.2369997
  65.7919992  31.8894990  64.5599997  64.2229992  30.5074990  65.1089997
  63.5979992  31.0564990  65.8459997  63.4289992  29.9564990  64.5609997
  65.2999992  29.6314990  65.7019997  65.9299992  29.2864990  64.8549997
  65.9999992  30.3264990  66.2139997  64.9019992  28.5234990  66.6309997
  64.3119992  27.8804990  65.9429997  65.7199992  27.9394990  67.1049997
  63.9289992  28.7524990  67.8329997  62.9969992  29.3004990  67.5779997
  63.8349992  27.7584990  68.3199997  64.6309992  29.5914990  69.0139997
  65.7939992  29.9964990  68.9749997  63.7079992  29.7494990  69.8629997
  63.9539992  30.5564990  71.0429997  63.3789992  30.0264990  71.8319997
  64.9539992  30.8364990  71.4359997  63.1899992  31.9094990  70.8969997
  63.7269992  32.4854990  70.1129997  63.1989992  32.6894990  72.1799997
  64.2199992  32.5744990  72.6029997  63.0889992  33.7704990  71.9489997
  62.1829992  32.2114990  73.0159997  62.5319992  32.3224990  74.5519997
  62.7529992  33.8704990  74.7769997  62.9339992  34.3304990  76.1039997
  61.9779992  34.7494990  76.4839997  63.1749992  33.4914990  76.7909997
  64.0779992  35.2934990  76.1759997  63.9649992  35.7894990  77.1289997
  65.0329992  34.7914990  76.2239997  64.1709992  36.4854990  75.1419997
  62.8879992  37.2244990  75.1909997  62.0689992  36.6454990  74.7919997
  62.6909992  37.5414990  76.2049997  62.9849992  38.1044990  74.5729997
  65.2679992  37.3594990  75.5639997  66.2579992  36.9664990  75.3829997
  65.1919992  38.3144990  75.0649997  65.1979992  37.5454990  76.6249997
  64.3699992  35.9784990  73.7459997  65.0319992  35.1284990  73.6709997
  64.4899992  36.8194990  73.0779997  63.4519992  35.4974990  73.4449997
  61.4019992  31.9454990  75.4049997  63.8969992  31.7744990  74.7989997
  61.8379992  31.6044990  70.6079997  61.3659992  32.3844990  69.6209997
  61.9859992  33.2664990  69.0879997  59.9939992  32.0544990  69.3579997
  59.3269992  32.1324990  70.2429997  59.8909992  31.0014990  69.0199997
  59.4009992  32.9954990  68.2399997  59.7759992  34.0334990  68.3709997
  58.3019992  32.8764990  68.3459997  59.8729992  32.5144990  66.8899997
  59.6049992  31.4404990  66.7919997  60.9819992  32.4444990  66.8889997
  59.2229992  33.3854990  65.8679997  59.7309992  34.3534990  66.0659997
  58.1419992  33.2814990  66.1009997  59.4099992  32.9904990  64.4549997
  59.2429992  31.8934990  64.4069997  60.4739992  33.1124990  64.1599997
  58.4259992  33.7434990  63.6189997  58.5999992  34.8284990  63.7819997
  57.3739992  33.5924990  63.9409997  58.5209992  33.3574990  62.0999997
  59.6099992  33.3284990  61.8789997  57.9869992  34.0924990  61.4589997
  58.1699992  31.8664990  61.9379997  57.2689992  31.4674990  62.4269997
  58.8649992  30.9464990  61.2299997  58.5489992  29.8944990  61.1939997
  60.1229992  31.1924990  60.4239997  60.2889992  32.2524990  60.1359997
  60.0219992  30.5814990  59.5009997  61.2969992  30.5804990  61.0939997
  61.1589992  29.4934990  61.2759997  61.4909992  31.1244990  62.0439997
  62.5959992  30.9044990  60.2589997  63.5319992  30.4264990  60.6189997
  62.6989992  32.0094990  60.2979997  62.5349992  30.4554990  58.6999997
  61.8109992  31.1124990  58.1709997  62.1449992  29.4284990  58.5349997
  63.9089992  30.5924990  58.0279997  64.6179992  29.8344990  58.4259997
  64.3059992  31.6144990  58.2049997  63.7669992  30.3634990  56.4989997
  62.7629992  30.5614990  56.0649997  63.9679992  29.2994990  56.2469997
  64.7199992  31.2044990  55.5189997  65.7809992  31.0024990  55.7809997
  64.4999992  32.2764990  55.7129997  64.7859992  30.9414990  54.0239997
  64.5389992  29.8694990  53.8709997  65.8199992  31.0404990  53.6299997
  64.0759992  31.6204990  53.5049997  72.5579992 103.9224990  56.6119997
  72.3379992 103.1104990  57.3379997  73.4109992 104.5814990  56.8799997
  72.9509992 103.4644990  55.6789997  71.3929992 104.7344990  56.1589997
  71.5489992 105.4294990  55.3069997  70.5959992 104.0364990  55.8259997
  70.9509992 105.7724990  57.2029997  71.8399992 106.4264990  57.3359997
  70.1319992 106.4594990  56.8989997  70.5329992 105.0554990  58.4809997
  69.5639992 104.5964990  58.1879997  71.3189992 104.4084990  58.9269997
  70.2079992 106.0454990  59.6439997  70.9689992 106.8374990  59.8179997
  69.2179992 106.4654990  59.3669997  70.1059992 105.2094990  60.9359997
  69.4159992 104.3464990  60.8109997  71.1439992 104.9284990  61.2159997
  69.5769992 106.1674990  62.0089997  70.4789992 106.7374990  62.3159997
  68.8429992 106.8574990  61.5409997  68.9519992 105.3574990  63.1679997
  68.2179992 105.9964990  63.7049997  68.3069992 104.5254990  62.8149997
  69.9659992 104.8234990  64.2959997  70.9479992 104.4434990  63.9399997
  70.3529992 105.7134990  64.8369997  69.3009992 103.9334990  65.3569997
  68.3089992 104.2924990  65.7049997  69.1379992 102.9444990  64.8799997
  70.1339992 103.8044990  66.6589997  69.6629992 102.9354990  67.1659997
  71.1229992 103.4094990  66.3429997  70.1429992 105.0174990  67.6059997
  70.8129992 105.7484990  67.1039997  69.1459992 105.5054990  67.5729997
  70.6419992 104.7664990  69.0839997  70.1709992 103.9064990  69.6069997
  71.7499992 104.6924990  69.1139997  70.1429992 105.9754990  69.9859997
  70.1349992 106.8504990  69.3009997  69.0989992 105.8424990  70.3399997
  71.0339992 106.3334990  71.2609997  71.0039992 105.5504990  72.0479997
  72.0339992 106.4794990  70.7979997  70.6909992 107.6374990  72.0079997
  70.5539992 108.7634990  71.4939997  70.4639992 107.2584990  73.1909997
  70.1879992 108.2284990  74.2279997  71.1379992 108.2134990  74.8059997
  70.0109992 109.2614990  73.8599997  68.9229992 107.7464990  75.0189997
  68.8709992 108.4484990  75.8789997  69.1069992 106.2784990  75.5139997
  68.8919992 105.6804990  74.6029997  70.1339992 105.9944990  75.8289997
  68.1239992 105.7344990  76.4479997  68.4099992 104.3114990  76.9979997
  68.3939992 103.4094990  75.7439997  67.1759992 102.9454990  75.1109997
  66.6379992 102.3674990  75.8929997  66.5729992 103.8354990  74.8319997
  67.4619992 101.9154990  73.9729997  67.7579992 101.0084990  74.4799997
  66.5199992 101.7524990  73.4709997  68.5429992 102.1534990  72.9839997
  69.8909992 101.9794990  73.5079997  70.6639992 102.2494990  72.8039997
  70.0259992 102.5204990  74.4329997  69.9539992 100.9084990  73.6329997
  68.2899992 101.3684990  71.7539997  67.4559992 101.7814990  71.2049997
  69.1509992 101.4744990  71.1119997  68.2329992 100.3394990  72.0779997
  68.3619992 103.5624990  72.5329997  68.4079992 104.2074990  73.3979997
  67.3549992 103.7244990  72.1779997  69.0939992 103.9134990  71.8189997
  69.7659992 104.3344990  77.5159997  67.3149992 103.8764990  77.9029997
  67.7789992 107.7184990  74.2469997  66.6129992 107.7584990  74.7759997
  66.3429992 107.8744990  75.9679997  65.5119992 107.8624990  73.7189997
  65.1319992 108.9064990  73.7379997  64.7289992 107.1344990  74.0219997
  66.0969992 107.5704990  72.3089997  66.5109992 106.5424990  72.2359997
  66.9839992 108.2304990  72.2019997  65.0789992 107.7194990  71.1789997
  64.7209992 108.7664990  71.0769997  64.2149992 107.0324990  71.3099997
  65.7749992 107.3484990  69.8379997  66.2009992 106.3224990  69.8259997
  66.5609992 108.0804990  69.5539997  64.7859992 107.3434990  68.6669997
  64.2259992 108.3014990  68.7319997  64.0819992 106.4844990  68.6379997
  65.4119992 107.4164990  67.2309997  65.8689992 108.4244990  67.1329997
  64.5499992 107.3974990  66.5299997  66.3869992 106.2704990  66.8739997
  67.0979992 106.1994990  67.7249997  66.8879992 106.5614990  65.9259997
  65.5679992 105.0454990  66.7069997  65.7159992 104.2034990  67.3989997
  64.8739992 104.7314990  65.5909997  64.4029992 103.7374990  65.5599997
  64.6599992 105.4624990  64.3259997  65.4009992 106.2904990  64.3299997
  63.6689992 105.9574990  64.2409997  64.9709992 104.5534990  63.1369997
  64.0599992 103.9474990  62.9419997  65.7519992 103.7834990  63.3139997
  65.2999992 105.3014990  61.8649997  66.3889992 105.4684990  62.0079997
  64.7679992 106.2764990  61.8829997  65.0569992 104.4394990  60.5829997
  63.9969992 104.1064990  60.5469997  65.6949992 103.5314990  60.6299997
  65.3039992 105.1114990  59.1689997  64.5979992 105.9374990  58.9359997
  65.2249992 104.3034990  58.4109997  66.6899992 105.7044990  58.8839997
  67.4159992 104.8664990  58.9459997  66.8059992 106.3734990  59.7639997
  66.8449992 106.4364990  57.5019997  67.7909992 107.0134990  57.4259997
  66.0369992 107.1924990  57.6039997  66.7929992 105.4514990  56.3189997
  65.8299992 104.9024990  56.2429997  67.6479992 104.7414990  56.3329997
  66.9909992 106.0144990  55.3809997  78.5859992  43.0694990  54.0419997
  78.0689992  44.0424990  53.8989997  78.0339992  42.3434990  53.4079997
  79.6729992  43.1344990  53.8209997  78.5389992  42.7604990  55.6119997
  77.5159992  42.5494990  55.9889997  79.2169992  41.9054990  55.8189997
  79.0569992  43.9724990  56.4379997  80.1139992  44.1914990  56.1739997
  78.4949992  44.9014990  56.2009997  79.0859992  43.6844990  57.9939997
  78.0489992  43.4154990  58.2899997  79.7039992  42.7734990  58.1429997
  79.6889992  44.7884990  58.9299997  79.8379992  44.2384990  59.8839997
  80.6669992  45.1054990  58.5069997  78.7009992  46.0204990  59.2079997
  78.1879992  46.2584990  58.2519997  78.0619992  45.5974990  60.0129997
  79.4339992  47.2694990  59.7599997  80.0199992  47.6864990  58.9129997
  78.7409992  48.0864990  60.0539997  80.1319992  47.0434990  61.0729997
  80.6649992  46.0864990  61.2529997  80.9419992  47.7874990  61.2299997
  79.0429992  47.1814990  62.2529997  78.5189992  48.1414990  62.0559997
  78.3509992  46.3154990  62.1869997  79.6189992  47.1574990  63.7099997
  80.6729992  46.8534990  63.5339997  79.6209992  48.2124990  64.0599997
  78.9499992  46.2874990  64.7769997  78.8159992  45.2574990  64.3839997
  79.5799992  46.3804990  65.6879997  77.5449992  46.7304990  65.1829997
  77.4619992  47.8354990  65.0989997  76.7719992  46.2134990  64.5749997
  77.1869992  46.2644990  66.6369997  77.9879992  46.7194990  67.2579997
  76.2669992  46.8194990  66.9179997  77.0859992  44.7654990  66.8509997
  76.1779992  44.4244990  66.3099997  78.0559992  44.3114990  66.5569997
  76.7849992  44.3744990  68.3329997  77.4079992  45.1184990  68.8729997
  75.7079992  44.5624990  68.5289997  77.1359992  42.8874990  68.6349997
  76.9019992  42.0544990  67.8219997  77.5069992  42.6984990  69.9189997
  77.5679992  41.2454990  70.2069997  76.5599992  40.9684990  70.5819997
  77.7589992  40.6034990  69.3209997  78.5969992  40.9194990  71.3829997
  78.4759992  39.8184990  71.4629997  78.1669992  41.6414990  72.6569997
  77.1319992  42.0424990  72.6059997  78.0819992  40.8294990  73.4109997
  79.0189992  42.6554990  73.0649997  78.9339992  44.1724990  72.8599997
  79.4089992  44.7874990  74.1749997  80.6139992  44.2714990  74.7769997
  81.3929992  44.0884990  74.0059997  81.0259992  45.0794990  75.4199997
  80.2539992  43.1334990  75.7699997  79.7629992  42.3744990  75.1779997
  81.1569992  42.6334990  76.0879997  79.4609992  43.4354990  77.0519997
  80.0749992  44.4944990  77.9199997  80.2539992  45.3894990  77.3419997
  79.5169992  44.6834990  78.8249997  81.0089992  44.0754990  78.2629997
  78.0939992  43.9854990  76.6599997  77.5459992  43.2444990  76.0959997
  77.7069992  44.2094990  77.6429997  78.1039992  44.8394990  75.9999997
  79.3959992  42.1024990  77.7669997  78.6479992  42.1464990  78.5449997
  80.3669992  41.8744990  78.1809997  78.9599992  41.3564990  77.1179997
  79.9059992  44.5604990  71.8279997  77.5669992  44.6534990  72.5979997
  79.9779992  41.3064990  70.9709997  80.5819992  40.5434990  70.1609997
  80.0979992  39.6414990  69.4649997  82.1019992  41.0054990  70.0099997
  82.6789992  40.3424990  70.6889997  82.2099992  42.0424990  70.3939997
  82.4909992  40.8364990  68.5659997  82.2359992  39.8074990  68.2349997
  83.5959992  40.8944990  68.4619997  81.9049992  41.8534990  67.6509997
  80.8389992  42.1524990  67.7469997  81.9509992  41.5054990  66.5969997
  82.7809992  43.0714990  67.5729997  83.7239992  42.7424990  67.0869997
  83.1619992  43.2944990  68.5929997  82.1159992  44.3004990  66.8869997
  82.8839992  45.1034990  66.9059997  81.2949992  44.7544990  67.4819997
  81.6609992  44.1214990  65.4639997  81.4819992  45.0754990  64.9229997
  80.6999992  43.5644990  65.4999997  82.6309992  43.3054990  64.4959997
  82.5379992  42.2404990  64.7989997  83.6739992  43.6614990  64.6359997
  82.2699992  43.5674990  63.0229997  82.5929992  44.5744990  62.7229997
  81.6079992  42.6924990  62.2499997  81.4499992  42.9354990  61.1889997
  81.1259992  41.3034990  62.6819997  81.8719992  40.6864990  63.2269997
  80.9529992  40.6674990  61.7869997  79.7949992  41.2844990  63.4699997
  79.8629992  41.8504990  64.4229997  79.6449992  40.2044990  63.6809997
  78.5389992  41.9214990  62.7989997  78.9109992  42.9364990  62.5409997
  77.6769992  41.7474990  63.4769997  78.1599992  41.4374990  61.4119997
  78.9339992  41.6144990  60.6359997  77.2699992  41.9804990  61.0279997
  77.6609992  39.9564990  61.4689997  76.8509992  39.8144990  62.2169997
  78.5899992  39.4164990  61.7509997  77.1559992  39.2764990  60.1389997
  76.3769992  39.9964990  59.8089997  76.5389992  38.3914990  60.4079997
  78.1619992  38.9264990  59.0369997  78.8919992  38.1984990  59.4519997
  78.6349992  39.8584990  58.6599997  77.3349992  38.2674990  57.9379997
  76.6709992  38.9434990  57.3569997  76.7029992  37.5004990  58.4349997
  78.0169992  37.8364990  57.1739997  38.8329992  73.3814990  56.9439997
  38.7759992  74.4534990  57.2269997  37.9439992  73.2134990  56.2989997
  39.7809992  73.1294990  56.4209997  38.6999992  72.4364990  58.0729997
  37.6869992  72.4524990  58.5289997  38.6319992  71.3814990  57.7289997
  39.7529992  72.7174990  59.2399997  39.6509992  73.8244990  59.2269997
  39.3829992  72.2114990  60.1569997  41.2909992  72.3504990  58.9509997
  41.3869992  71.2604990  58.7559997  41.8039992  72.7994990  58.0739997
  42.3799992  72.6034990  60.1369997  43.3899992  72.2684990  59.8159997
  42.4519992  73.6734990  60.4259997  42.0189992  71.8884990  61.4959997
  40.9639992  72.1384990  61.7389997  42.1609992  70.7974990  61.3399997
  42.9629992  72.2514990  62.7179997  44.0299992  71.9964990  62.5439997
  42.7899992  73.3144990  62.9919997  42.4889992  71.4004990  63.9949997
  41.3899992  71.5374990  64.0749997  42.5999992  70.3124990  63.7979997
  43.3629992  71.6304990  65.2729997  44.3979992  71.3924990  64.9459997
  43.2999992  72.7014990  65.5599997  42.9829992  70.7094990  66.4659997
  41.8969992  70.8104990  66.6759997  43.2069992  69.7164990  66.0199997
  43.7889992  70.9534990  67.7219997  43.4849992  70.2574990  68.5319997
  44.8639992  70.7964990  67.4899997  43.8449992  72.2944990  68.3979997
  44.3189992  73.0334990  67.7169997  42.7889992  72.6274990  68.4899997
  44.7649992  72.4594990  69.5999997  44.4709992  71.6804990  70.3349997
  45.8139992  72.3394990  69.2549997  44.6789992  73.8424990  70.2149997
  45.2079992  73.7904990  71.1909997  45.3669992  74.4704990  69.6089997
  43.3849992  74.5274990  70.5399997  42.8639992  74.6974990  69.5739997
  42.6789992  73.8464990  71.0619997  43.3749992  75.8544990  71.3749997
  44.3119992  76.5764990  71.4789997  42.1079992  76.1054990  71.6139997
  41.8189992  77.4224990  72.0649997  42.6469992  77.9554990  72.5779997
  41.3739992  78.0374990  71.2539997  40.7189992  77.4614990  73.1379997
  40.3399992  78.5064990  73.1329997  41.2829992  77.1154990  74.5399997
  42.2079992  77.6914990  74.7579997  40.4989992  77.6034990  75.1589997
  41.5379992  75.7364990  74.8189997  41.1279992  75.2424990  76.3059997
  41.3919992  73.6674990  76.3639997  42.2249992  73.1704990  75.3049997
  43.2319992  73.6304990  75.2109997  42.4559992  72.0954990  75.4639997
  41.6819992  73.0194990  73.8149997  41.1339992  73.9104990  73.5459997
  42.5189992  72.7984990  73.1689997  40.6399992  71.9284990  73.5509997
  41.2469992  70.5434990  73.8719997  40.5409992  69.7264990  73.8409997
  41.9489992  70.2604990  73.1029997  41.7059992  70.4214990  74.8419997
  39.4329992  72.2334990  74.4949997  39.6359992  71.9034990  75.5039997
  39.1489992  73.2714990  74.5759997  38.5629992  71.6584990  74.2149997
  40.0919992  71.9924990  72.1719997  40.0809992  73.0514990  71.9619997
  39.1359992  71.5104990  72.0269997  40.7999992  71.5404990  71.4929997
  42.0819992  75.7704990  77.3269997  39.6659992  75.5434990  76.4459997
  39.6719992  76.4174990  72.8409997  38.8549992  76.7394990  71.8709997
  38.8999992  77.7994990  71.2719997  37.9319992  75.6084990  71.5539997
  36.8609992  75.6714990  71.8439997  38.2909992  74.6914990  72.0679997
  37.9169992  75.3234990  70.0519997  37.3689992  76.1354990  69.5279997
  37.3949992  74.3704990  69.8209997  39.2979992  75.0374990  69.4809997
  39.8139992  74.3254990  70.1589997  39.9839992  75.9104990  69.4509997
  39.2739992  74.2694990  68.1279997  38.3629992  73.6334990  68.1519997
  40.1789992  73.6364990  68.0189997  39.3159992  75.2894990  66.9739997
  40.3969992  75.5444990  66.9769997  38.7779992  76.2184990  67.2619997
  39.0079992  74.7554990  65.5629997  38.0359992  74.2204990  65.6219997
  39.7819992  74.0054990  65.2929997  38.7679992  75.8704990  64.5829997
  37.7809992  76.3714990  64.6789997  38.7309992  75.4784990  63.5439997
  39.8039992  76.9874990  64.7029997  39.7739992  77.5834990  65.6279997
  40.7319992  77.4304990  63.8289997  41.3649992  78.2974990  64.0699997
  40.9969992  76.8684990  62.4059997  41.2539992  77.7704990  61.8109997
  40.1429992  76.2154990  62.1229997  42.3629992  76.1754990  62.3989997
  42.4839992  75.4224990  61.5909997  42.4349992  75.5904990  63.3409997
  43.5919992  77.1034990  62.4919997  44.4599992  76.4384990  62.6889997
  43.6269992  77.7284990  63.4089997  43.8319992  77.8754990  61.1789997
  44.9089992  78.1354990  61.1029997  43.2049992  78.7754990  61.3539997
  43.6429992  77.0314990  59.8549997  42.6889992  76.4624990  59.8679997
  44.4019992  76.2204990  59.8919997  43.6649992  77.9284990  58.5969997
  44.7419992  78.1884990  58.5179997  43.0569992  78.8454990  58.7479997
  43.1779992  77.2584990  57.2899997  43.7059992  76.3214990  57.0129997
  43.4809992  77.8824990  56.4219997  41.7089992  76.9834990  57.0799997
  41.4159992  76.4814990  56.1329997  41.0819992  77.8984990  57.1359997
  41.3009992  76.4174990  57.9439997  87.3249992  94.7594990  56.0639997
  87.0299992  94.6954990  57.1329997  86.8379992  93.9274990  55.5109997
  86.9509992  95.7784990  55.8269997  88.8029992  94.8794990  55.8249997
  89.3649992  94.0114990  56.2309997  88.9149992  94.7734990  54.7239997
  89.5009992  96.1344990  56.3589997  90.3239992  96.2074990  55.6169997
  88.7499992  96.9474990  56.2579997  90.0399992  95.9124990  57.8169997
  90.0329992  96.9354990  58.2489997  89.3079992  95.3064990  58.3929997
  91.3359992  95.2134990  57.8369997  91.2479992  94.1754990  57.4499997
  92.1079992  95.7594990  57.2539997  91.9079992  95.0284990  59.3249997
  92.9839992  94.7534990  59.3259997  91.7749992  95.9524990  59.9259997
  91.1469992  93.9334990  60.1749997  90.1409992  94.3524990  60.3889997
  91.0159992  93.0044990  59.5819997  91.6669992  93.6784990  61.6029997
  92.6279992  93.1334990  61.4899997  91.9389992  94.6964990  61.9529997
  90.6849992  92.8994990  62.5609997  89.6749992  93.3624990  62.5859997
  90.5069992  91.8644990  62.1989997  91.1699992  92.9394990  64.0359997
  92.1619992  92.4544990  64.1589997  91.2279992  94.0014990  64.3559997
  90.0859992  92.3564990  64.9869997  89.2629992  93.0724990  65.1959997
  89.7179992  91.4034990  64.5499997  90.6259992  91.8984990  66.3709997
  91.3809992  91.1004990  66.2039997  91.1889992  92.7814990  66.7419997
  89.5379992  91.3144990  67.3969997  88.6329992  90.8844990  66.9159997
  89.9389992  90.3744990  67.8319997  89.0889992  92.1314990  68.5899997
  88.3029992  92.8974990  68.4149997  88.5789992  91.4564990  69.3109997
  90.3029992  92.8604990  69.2609997  91.0029992  92.0344990  69.5089997
  90.6899992  93.6564990  68.5899997  89.8679992  93.4884990  70.5879997
  88.9169992  94.2534990  70.5939997  90.6159992  93.0854990  71.6179997
  90.2809992  93.6384990  72.8869997  89.1989992  93.8914990  72.8769997
  90.5799992  92.9394990  73.6959997  90.9849992  95.0194990  73.2579997
  92.0399992  94.7104990  73.4209997  90.5319992  95.4774990  74.6589997
  90.4059992  94.7164990  75.4579997  91.3179992  96.1294990  75.0949997
  89.3139992  96.2004990  74.4889997  88.3919992  96.5634990  75.7189997
  86.9579992  96.0724990  75.1269997  86.7929992  95.8494990  73.8029997
  85.8389992  96.3124990  73.4709997  87.5519992  96.2004990  73.0709997
  86.6049992  94.3254990  73.5179997  86.1199992  94.1804990  72.5639997
  87.5959992  93.8964990  73.4979997  85.9249992  93.4554990  74.5259997
  85.5219992  92.2294990  73.7259997  84.7769992  92.5614990  73.0179997
  86.3729992  91.9954990  73.1039997  85.1759992  91.4864990  74.4279997
  86.8519992  92.9204990  75.6439997  86.3639992  92.2304990  76.3169997
  87.6209992  92.3134990  75.1899997  87.2909992  93.7354990  76.2009997
  84.6789992  94.1254990  75.1219997  84.1719992  94.6724990  74.3409997
  85.1529992  94.7514990  75.8629997  84.0539992  93.3664990  75.5689997
  88.7669992  95.6904990  76.8629997  88.3049992  97.9834990  75.9359997
  90.8399992  95.9184990  72.1869997  91.4929992  97.0504990  72.2149997
  92.4889992  97.2284990  72.8589997  90.8379992  98.1544990  71.3129997
  90.7469992  97.7194990  70.2949997  91.5989992  98.9624990  71.2779997
  89.5509992  98.6404990  71.8889997  89.6589992  98.9184990  72.9589997
  88.8819992  97.7564990  71.9659997  88.9409992  99.9044990  71.2529997
  89.6049992 100.7474990  71.5409997  87.9319992 100.1804990  71.6279997
  88.7549992  99.9564990  69.7389997  89.7499992  99.7394990  69.2949997
  88.3189992 100.8714990  69.2839997  87.8949992  98.7394990  69.2819997
  86.9349992  98.7534990  69.8409997  88.2539992  97.7354990  69.5939997
  87.6229992  98.7394990  67.7559997  86.9379992  99.5894990  67.5499997
  87.0819992  97.8224990  67.4389997  88.8619992  98.6694990  66.8899997
  89.5149992  99.5604990  67.0099997  88.5349992  98.7184990  65.8289997
  89.7609992  97.5574990  67.1229997  90.6159992  97.8134990  67.7659997
  89.6259992  96.3304990  66.5649997  90.3719992  95.5774990  66.8599997
  88.5339992  95.8784990  65.6799997  87.5189992  96.2224990  65.9709997
  88.4679992  94.7724990  65.7619997  88.8959992  96.2754990  64.1769997
  89.8909992  95.9134990  63.8429997  88.8819992  97.3854990  64.2159997
  87.7899992  95.8524990  63.1859997  86.7759992  96.0094990  63.6129997
  87.9609992  94.7734990  62.9879997  87.8179992  96.4214990  61.7939997
  88.8279992  96.2604990  61.3609997  87.8269992  97.5244990  61.9289997
  86.8039992  95.9624990  60.7799997  86.8059992  94.8514990  60.7739997
  87.0239992  96.4014990  59.7829997  85.3079992  96.2994990  61.0929997
  85.2839992  97.3124990  61.5499997  84.9579992  95.5214990  61.8049997
  84.3629992  96.4734990  59.9499997  84.6579992  97.4224990  59.4539997
  83.3369992  96.6974990  60.3129997  84.2729992  95.3604990  58.9329997
  83.4559992  95.5394990  58.2019997  84.2539992  94.2864990  59.2179997
  85.1799992  95.3464990  58.2909997  93.7989992  85.3234990  56.6459997
  94.6459992  86.0344990  56.7539997  92.8279992  85.8594990  56.7139997
  93.7589992  84.9094990  55.6149997  93.8909992  84.3154990  57.7839997
  92.9499992  83.7264990  57.7489997  94.6569992  83.5554990  57.5209997
  94.0459992  84.8884990  59.1839997  93.7759992  85.9654990  59.1339997
  93.2349992  84.4744990  59.8209997  95.2479992  84.6434990  59.9599997
  95.2399992  83.5384990  60.0709997  96.1959992  84.9664990  59.4789997
  95.3889992  85.3234990  61.3539997  96.3989992  85.0644990  61.7389997
  95.5599992  86.4164990  61.2479997  94.3239992  85.0364990  62.3789997
  93.3759992  85.4824990  62.0079997  94.1849992  83.9344990  62.3859997
  94.6249992  85.6044990  63.7339997  95.5899992  85.1724990  64.0759997
  94.8099992  86.6794990  63.5209997  93.5929992  85.3904990  64.8999997
  93.4269992  84.2924990  64.9399997  94.1069992  85.6094990  65.8599997
  92.2179992  86.0354990  64.6159997  92.4059992  87.1114990  64.4169997
  91.9039992  85.5624990  63.6609997  91.1589992  86.1004990  65.6439997
  90.2469992  86.5664990  65.2149997  90.7189992  85.1114990  65.8959997
  91.6229992  86.8974990  66.8509997  92.7269992  86.9904990  66.9329997
  91.1699992  87.8684990  66.5589997  90.8829992  86.5664990  68.1529997
  90.9259992  87.3204990  68.9679997  89.8129992  86.5364990  67.8569997
  91.3049992  85.2174990  68.7939997  90.7889992  85.0994990  69.7709997
  90.8779992  84.4444990  68.1189997  92.8299992  84.8934990  68.9379997
  92.7349992  83.7874990  68.9819997  93.4059992  85.1474990  68.0219997
  93.4079992  85.5364990  70.2469997  93.4649992  86.6244990  70.0259997
  92.7869992  85.3274990  71.1439997  94.8389992  85.1344990  70.4089997
  95.4579992  84.5304990  69.5219997  95.1899992  85.3544990  71.6189997
  96.5529992  84.9424990  71.9629997  96.5989992  83.9274990  72.4119997
  97.2829992  85.0134990  71.1289997  97.1619992  85.8024990  73.1199997
  98.2169992  85.4544990  73.1339997  96.4189992  85.4834990  74.4309997
  96.3379992  84.3754990  74.4339997  96.9569992  85.7454990  75.3669997
  95.1479992  86.0664990  74.4929997  93.8669992  85.2134990  75.0879997
  92.6989992  86.2604990  75.4099997  91.7339992  86.7414990  74.3909997
  91.8229992  86.1794990  73.4359997  90.6909992  86.8184990  74.7659997
  92.0919992  88.2594990  73.9569997  92.6549992  88.1334990  73.0439997
  91.1789992  88.7294990  73.6219997  92.7409992  89.2534990  74.9349997
  94.1979992  88.9544990  75.1549997  94.4649992  89.4534990  76.0749997
  94.3789992  87.9344990  75.4589997  94.8089992  89.1524990  74.2859997
  92.6269992  90.6164990  74.3119997  92.7879992  90.4534990  73.2559997
  91.6329992  90.9924990  74.5009997  93.2599992  91.3474990  74.7929997
  92.1899992  89.1964990  76.3299997  92.6669992  90.0244990  76.8329997
  92.4359992  88.2834990  76.8519997  91.1259992  89.3564990  76.2399997
  93.2639992  84.4054990  74.0409997  94.3929992  84.6074990  76.3609997
  97.0559992  87.1764990  72.7909997  97.5909992  88.1204990  73.5879997
  98.2869992  87.9964990  74.5949997  97.0489992  89.4684990  73.1089997
  97.8909992  90.0974990  72.7509997  96.6949992  89.9684990  74.0349997
  95.8609992  89.3404990  72.1229997  95.1109992  88.7004990  72.6339997
  96.2369992  88.7924990  71.2319997  94.8989992  90.4504990  71.7199997
  95.3699992  91.2214990  71.0729997  94.6359992  90.9974990  72.6509997
  93.6589992  89.9074990  70.9859997  92.8929992  90.6994990  71.1299997
  93.2889992  88.9364990  71.3809997  94.1249992  89.4934990  69.5519997
  93.2759992  88.8694990  69.2009997  94.9289992  88.7284990  69.5159997
  94.3189992  90.7154990  68.6279997  95.1769992  91.3344990  68.9679997
  93.4109992  91.3404990  68.4899997  94.9059992  90.1874990  67.3059997
  94.1929992  89.4954990  66.8089997  95.7789992  89.5944990  67.6519997
  95.3279992  91.3044990  66.3539997  95.9889992  92.0754990  66.7769997
  95.0759992  91.4034990  65.0509997  95.2139992  92.3574990  64.5209997
  94.3319992  90.3514990  64.2609997  93.2269992  90.4704990  64.2569997
  94.4109992  89.3214990  64.6679997  94.8019992  90.3694990  62.7739997
  94.6529992  91.3834990  62.3459997  94.1569992  89.6824990  62.1859997
  96.2359992  89.7844990  62.6529997  96.2349992  88.6824990  62.7969997
  96.8409992  90.3444990  63.3979997  96.7259992  90.2084990  61.2919997
  97.7889992  89.9064990  61.1749997  96.7159992  91.3154990  61.1999997
  95.9489992  89.5564990  60.1189997  94.9189992  89.9744990  60.1349997
  95.7769992  88.4594990  60.0749997  96.7289992  89.9484990  58.7609997
  97.6719992  89.3724990  58.8789997  96.9659992  91.0334990  58.7879997
  96.0609992  89.4004990  57.5149997  95.0429992  89.8244990  57.3759997
  95.9349992  88.3084990  57.6779997  96.7559992  89.5364990  56.2339997
  96.3699992  88.8504990  55.4499997  97.7679992  89.0884990  56.3279997
  96.8699992  90.5754990  55.8579997  56.7459992  27.4004990  56.4319997
  57.1919992  28.1464990  55.7409997  56.4899992  26.6574990  55.6469997
  57.4189992  27.0804990  57.2569997  55.5919992  27.9214990  57.2049997
  55.9969992  28.8094990  57.7359997  54.9059992  28.1354990  56.3579997
  55.0019992  26.9674990  58.2579997  54.9749992  25.9304990  57.8619997
  55.7699992  27.0064990  59.0599997  53.5969992  27.3474990  58.7919997
  53.5089992  28.4374990  58.5989997  52.7599992  26.9094990  58.2079997
  53.3379992  26.9984990  60.3149997  54.1159992  27.3904990  61.0049997
  52.3959992  27.4594990  60.6819997  53.3179992  25.4584990  60.6089997
  54.2239992  24.9944990  60.1649997  53.3689992  25.4884990  61.7189997
  52.1019992  24.7804990  60.0079997  51.1919992  25.2744990  60.4079997
  52.1229992  24.8844990  58.9019997  51.9999992  23.2454990  60.3489997
  50.9429992  22.9154990  60.2599997  52.6329992  22.6304990  59.6749997
  52.4629992  22.7594990  61.7859997  52.6259992  21.6704990  61.9339997
  53.4939992  23.1294990  61.9729997  51.5839992  23.3914990  62.9209997
  51.1819992  24.3554990  62.5409997  50.6889992  22.7514990  63.0719997
  52.4269992  23.5434990  64.1809997  53.2219992  22.7864990  64.0079997
  52.9239992  24.5364990  64.2269997  51.7179992  23.3174990  65.5159997
  50.8569992  24.0174990  65.5669997  51.2459992  22.3144990  65.5889997
  52.5889992  23.4254990  66.7469997  53.4319992  22.7004990  66.7329997
  53.0919992  24.4034990  66.5919997  51.7569992  23.3544990  68.0279997
  50.9759992  24.1434990  67.9869997  51.2579992  22.3624990  68.0569997
  52.5439992  23.5194990  69.4209997  53.0779992  24.4804990  69.5849997
  51.6879992  23.4014990  70.1189997  53.5109992  22.3664990  69.7269997
  54.3399992  21.9364990  68.9589997  53.2739992  21.9674990  70.9829997
  54.1449992  20.9454990  71.5859997  53.5559992  20.2704990  72.2429997
  54.6399992  20.2724990  70.8539997  55.2159992  21.6234990  72.4959997
  55.7429992  20.8584990  73.1059997  54.5689992  22.5084990  73.6479997
  53.9259992  23.2854990  73.1819997  53.8159992  21.9234990  74.2189997
  55.5829992  23.0414990  74.5479997  55.2089992  24.2614990  75.4879997
  54.6319992  25.2054990  74.3339997  55.5159992  26.1694990  73.6849997
  56.5399992  25.7724990  73.5169997  55.1289992  26.4534990  72.6829997
  55.4349992  27.4094990  74.5669997  55.7769992  27.2944990  75.5849997
  56.0509992  28.2124990  74.1899997  54.0649992  28.1304990  74.8179997
  53.1439992  27.1954990  75.5189997  52.3799992  27.8064990  75.9769997
  52.7549992  26.5044990  74.7869997  53.6539992  26.6994990  76.3309997
  54.1449992  29.4114990  75.5989997  53.1719992  29.8424990  75.7829997
  54.5609992  29.2544990  76.5839997  54.7259992  30.1714990  75.0969997
  53.5279992  28.4534990  73.4329997  52.7409992  29.1824990  73.5569997
  53.1669992  27.5664990  72.9319997  54.3759992  28.8924990  72.9299997
  54.0809992  23.7974990  76.3039997  56.4139992  24.8084990  76.1769997
  56.1179992  22.6404990  71.8189997  57.2609992  22.0364990  71.4689997
  57.5409992  20.8774990  71.5669997  58.1639992  23.1274990  70.8909997
  59.1709992  22.7334990  70.6399997  58.1969992  23.9854990  71.5969997
  57.5029992  23.6734990  69.5729997  57.9149992  24.6184990  69.1599997
  56.4009992  23.7724990  69.6739997  57.8069992  22.7614990  68.4159997
  57.5539992  21.7004990  68.6249997  58.8859992  22.8634990  68.1719997
  57.1509992  23.2064990  67.0599997  57.6499992  24.1374990  66.7149997
  56.0779992  23.4614990  67.1969997  57.1719992  22.0884990  65.9989997
  56.7449992  21.1624990  66.4409997  58.2069992  21.7974990  65.7229997
  56.3049992  22.4054990  64.7879997  56.7479992  23.2484990  64.2149997
  55.2459992  22.6534990  65.0139997  56.2329992  21.2314990  63.8039997
  55.3309992  21.1904990  63.1579997  56.2559992  20.3394990  64.4659997
  57.4839992  21.0304990  63.0119997  58.1549992  20.2294990  63.3529997
  57.7169992  21.4564990  61.7809997  58.7319992  21.2534990  61.4089997
  56.7069992  22.2234990  60.9569997  56.9549992  23.3064990  60.9819997
  55.6669992  22.2464990  61.3479997  56.6149992  21.7294990  59.4429997
  56.4489992  20.6334990  59.3579997  57.5439992  22.0164990  58.9049997
  55.5649992  22.4864990  58.6049997  55.7009992  23.5424990  58.9219997
  54.5379992  22.1274990  58.8279997  55.8379992  22.3344990  57.1259997
  55.6629992  21.2534990  56.9379997  56.8519992  22.6744990  56.8239997
  54.8799992  23.1864990  56.2169997  55.2889992  23.3784990  55.2019997
  54.8169992  24.1834990  56.7009997  53.5339992  22.4794990  56.0049997
  53.0449992  22.4434990  57.0019997  53.5749992  21.4894990  55.5019997
  52.5019992  23.2714990  55.1619997  51.7589992  22.4724990  54.9499997
  52.8679992  23.6664990  54.1909997  51.9089992  24.5084990  55.8949997
  52.5889992  25.3824990  55.8039997  51.7999992  24.2704990  56.9749997
  50.9149992  24.8424990  55.5279997  31.8939992  67.6144990  54.5639997
  32.8699992  67.6254990  55.0949997  32.0409992  68.0914990  53.5719997
  31.5289992  66.5664990  54.5109997  30.9049992  68.4954990  55.3099997
  31.2799992  69.5404990  55.2859997  29.9709992  68.5354990  54.7109997
  30.5089992  67.9494990  56.7929997  30.1359992  66.9024990  56.7859997
  31.5449992  67.9134990  57.1909997  29.4789992  68.8404990  57.4659997
  28.5949992  68.7784990  56.7949997  29.3849992  68.3764990  58.4709997
  29.6979992  70.4094990  57.4869997  30.6499992  70.5084990  58.0499997
  29.8769992  70.8994990  56.5059997  28.6749992  71.2154990  58.2129997
  27.8139992  71.4154990  57.5399997  28.4149992  70.5744990  59.0819997
  29.1839992  72.5804990  58.7209997  29.7469992  73.0284990  57.8739997
  28.2389992  73.1454990  58.8729997  30.1609992  72.5874990  59.9629997
  30.8559992  71.7224990  59.8969997  30.7179992  73.5424990  59.8509997
  29.5659992  72.6624990  61.3979997  29.2859992  73.7094990  61.6409997
  28.5829992  72.1654990  61.2519997  30.5289992  72.1684990  62.5679997
  31.5339992  72.5374990  62.2699997  30.2559992  72.5394990  63.5779997
  30.4179992  70.6514990  62.6249997  29.5639992  70.3174990  63.2529997
  30.1379992  70.3364990  61.5969997  31.7189992  69.9824990  63.0799997
  31.6059992  68.9044990  62.8369997  32.6209992  70.3394990  62.5389997
  32.1679992  70.0634990  64.6519997  33.1499992  69.5794990  64.8389997
  32.3499992  71.1504990  64.7939997  31.2249992  69.4894990  65.5699997
  30.4259992  70.2614990  65.5989997  30.7229992  68.5564990  65.2369997
  31.6969992  69.3274990  66.9689997  32.4139992  68.4824990  67.0399997
  32.2269992  70.2364990  67.3259997  30.4859992  69.0434990  67.8699997
  29.4039992  68.7814990  67.3279997  30.7869992  69.0924990  69.1359997
  29.6529992  68.7654990  69.9449997  28.9109992  69.5664990  69.7399997
  29.1289992  67.7994990  69.7889997  29.9749992  68.6654990  71.4179997
  29.0979992  68.5034990  72.0799997  30.5669992  69.9824990  71.9199997
  31.3829992  70.4054990  71.2949997  29.6859992  70.6574990  71.9539997
  31.1119992  69.7714990  73.2409997  32.6699992  70.0004990  73.5489997
  32.9389992  69.3874990  74.9459997  31.8699992  69.3394990  75.8739997
  32.2829992  69.4894990  76.8939997  31.0239992  70.0524990  75.7749997
  31.2309992  67.9514990  75.9309997  30.5499992  68.0004990  76.7669997
  30.6779992  67.7464990  75.0269997  32.1329992  66.7684990  76.1289997
  32.7899992  66.8564990  77.4959997  31.9829992  66.7684990  78.2069997
  33.5069992  66.0524990  77.5789997  33.2819992  67.8124990  77.5949997
  31.3079992  65.5394990  76.1189997  30.3859992  65.7714990  76.6299997
  31.1359992  65.2474990  75.0929997  31.8479992  64.7434990  76.6099997
  33.1649992  66.6794990  75.0429997  32.7239992  66.5904990  74.0609997
  33.7869992  65.8014990  75.1339997  33.6819992  67.6244990  75.1199997
  33.4439992  69.2184990  72.5829997  32.8849992  71.4514990  73.5619997
  30.8709992  67.5244990  71.6319997  30.3669992  66.3854990  71.9469997
  29.2659992  66.0834990  72.2599997  31.5009992  65.3184990  71.8319997
  31.2839992  64.4654990  72.5099997  32.5449992  65.6224990  72.0609997
  31.5739992  64.8244990  70.4089997  30.5679992  64.8884990  69.9419997
  31.9229992  63.7814990  70.2479997  32.5359992  65.5174990  69.4279997
  32.1979992  66.5694990  69.3079997  32.4589992  65.0054990  68.4449997
  34.0649992  65.6644990  69.8579997  34.3669992  64.6654990  70.2369997
  34.0859992  66.4984990  70.5909997  34.9589992  65.9384990  68.6429997
  36.0299992  66.0014990  68.9319997  34.5469992  66.8594990  68.1789997
  34.9279992  64.8114990  67.5939997  33.9719992  64.4974990  67.1239997
  35.2519992  63.9784990  68.2539997  35.9389992  64.9254990  66.4949997
  35.9709992  64.0044990  65.8749997  36.9279992  65.0004990  66.9959997
  35.9009992  66.1224990  65.5959997  36.3949992  67.0404990  65.9459997
  35.1689992  66.1894990  64.4589997  35.2719992  67.0324990  63.7589997
  34.3489992  65.0454990  63.9409997  34.5909992  64.0514990  64.3749997
  34.6429992  64.8134990  62.8949997  32.8489992  65.0654990  64.1119997
  32.5169992  65.2774990  65.1509997  32.5139992  64.0374990  63.8579997
  32.2169992  66.0664990  63.0919997  32.7269992  67.0484990  63.1879997
  31.2179992  66.3654990  63.4749997  32.0539992  65.3874990  61.6919997
  31.3969992  64.5004990  61.8219997  33.0569992  64.9994990  61.4139997
  31.4569992  66.3894990  60.6839997  30.5149992  66.8364990  61.0679997
  31.3029992  65.7504990  59.7879997  32.3949992  67.4964990  60.1069997
  32.7439992  68.0054990  61.0309997  31.8059992  68.1924990  59.4719997
  33.5139992  66.9964990  59.1609997  33.0819992  66.6224990  58.2079997
  34.0399992  66.1574990  59.6649997  34.5549992  68.1154990  58.9259997
  35.2019992  67.8524990  58.0619997  35.0979992  68.3424990  59.8689997
  33.9409992  69.0184990  58.7249997  97.4999992  66.8854990  56.6459997
  96.5739992  67.4894990  56.7539997  97.2689992  65.8004990  56.7139997
  97.9069992  66.9684990  55.6149997  98.4379992  67.2664990  57.7839997
  99.2749992  66.5374990  57.7489997  98.9429992  68.2204990  57.5209997
  97.8439992  67.2484990  59.1839997  96.8919992  66.6774990  59.1339997
  98.4759992  66.5934990  59.8209997  97.7299992  68.4704990  59.9599997
  98.7889992  68.7834990  60.0709997  97.1449992  69.2834990  59.4789997
  97.0379992  68.4074990  61.3539997  96.9929992  69.4484990  61.7389997
  95.9429992  68.2534990  61.2479997  97.6219992  67.4714990  62.3789997
  97.4709992  66.4354990  62.0079997  98.7169992  67.6594990  62.3859997
  96.9909992  67.5944990  63.7339997  97.1239992  68.6434990  64.0759997
  95.9089992  67.4594990  63.5209997  97.4959992  66.6684990  64.8999997
  98.5949992  66.8294990  64.9399997  97.1369992  67.0974990  65.8599997
  97.2789992  65.1664990  64.6159997  96.1939992  65.0334990  64.4169997
  97.8219992  65.0034990  63.6609997  97.5239992  64.1344990  65.6439997
  97.3429992  63.1254990  65.2149997  98.5979992  63.9994990  65.8959997
  96.6269992  64.3464990  66.8509997  96.2169992  65.3754990  66.9329997
  95.8289992  63.6304990  66.5589997  97.1579992  63.7344990  68.1529997
  96.4239992  63.5564990  68.9679997  97.4979992  62.7194990  67.8569997
  98.3269992  64.5304990  68.7939997  98.5889992  64.0714990  69.7709997
  99.1899992  64.3464990  68.1189997  98.1929992  66.0834990  68.9379997
  99.2789992  66.3134990  68.9819997  97.7819992  66.5604990  68.0219997
  97.4089992  66.4504990  70.2469997  96.3519992  66.1874990  70.0259997
  97.7899992  65.9164990  71.1439997  97.3779992  67.9354990  70.4089997
  97.7769992  68.7034990  69.5219997  97.0659992  68.2074990  71.6189997
  97.0639992  69.6324990  71.9629997  98.0219992  69.9704990  72.4119997
  96.7849992  70.3094990  71.1289997  96.0649992  69.9644990  73.1199997
  96.0909992  71.0754990  73.1339997  96.5849992  69.3464990  74.4309997
  97.6689992  69.5904990  74.4339997  96.1779992  69.7844990  75.3669997
  96.3969992  67.9604990  74.4929997  97.5859992  66.9824990  75.0879997
  96.9229992  65.5614990  75.4099997  96.7429992  64.4974990  74.3909997
  97.2549992  64.7464990  73.4359997  96.9729992  63.4774990  74.7659997
  95.1869992  64.3994990  73.9569997  95.1439992  64.9744990  73.0439997
  95.0019992  63.3894990  73.6219997  94.0469992  64.7314990  74.9349997
  93.9089992  66.2124990  75.1549997  93.3539992  66.3224990  76.0749997
  94.8329992  66.6814990  75.4589997  93.5419992  66.7394990  74.2859997
  92.7759992  64.2264990  74.3119997  92.8849992  64.4274990  73.2559997
  92.7049992  63.1654990  74.5009997  91.8929992  64.6194990  74.7929997
  94.2619992  64.2214990  76.3299997  93.3309992  64.4374990  76.8329997
  95.0639992  64.7214990  76.8519997  94.4179992  63.1564990  76.2399997
  98.5339992  66.6404990  74.0409997  98.0129992  67.6624990  76.3609997
  94.7809992  69.4634990  72.7909997  93.7219992  69.7014990  73.5879997
  93.6389992  70.4034990  74.5949997  92.5899992  68.7904990  73.1089997
  91.7429992  69.4144990  72.7509997  92.2139992  68.3064990  74.0349997
  93.0569992  67.6914990  72.1229997  93.8879992  67.1594990  72.6339997
  93.4719992  68.2104990  71.2319997  92.2739992  66.4484990  71.7199997
  91.3999992  66.6754990  71.0729997  91.8279992  66.0374990  72.6509997
  93.1549992  65.4194990  70.9859997  92.6189992  64.4564990  71.1299997
  94.1909992  65.3484990  71.3809997  93.4149992  65.9854990  69.5519997
  94.2589992  65.3544990  69.2009997  93.9139992  66.9784990  69.5159997
  92.1899992  65.8164990  68.6279997  91.3479992  66.4574990  68.9679997
  91.8549992  64.7654990  68.4899997  92.5239992  66.5314990  67.3059997
  93.3929992  66.0504990  66.8089997  92.8379992  67.5394990  67.6519997
  91.3329992  66.6104990  66.3539997  90.4029992  67.0194990  66.7769997
  91.3109992  66.3404990  65.0509997  90.3579992  66.1954990  64.5209997
  92.5339992  65.9344990  64.2609997  92.7419992  64.8424990  64.2569997
  93.4969992  66.3094990  64.6679997  92.3799992  66.3794990  62.7739997
  91.4529992  65.9414990  62.3459997  93.2249992  65.9614990  62.1859997
  92.5229992  67.9214990  62.6529997  93.5769992  68.2404990  62.7969997
  91.8109992  68.3374990  63.3979997  91.9759992  68.2664990  61.2919997
  91.9549992  69.3714990  61.1749997  90.9189992  67.9354990  61.1999997
  92.8249992  67.7124990  60.1189997  92.7239992  66.6064990  60.1349997
  93.9239992  67.8664990  60.0749997  92.2229992  68.3454990  58.7609997
  92.4999992  69.4154990  58.8789997  91.1159992  68.2564990  58.7879997
  92.9419992  67.8654990  57.5149997  92.8319992  66.7684990  57.3759997
  94.0229992  68.0624990  57.6779997  92.6089992  68.4904990  56.2339997
  93.3779992  68.3204990  55.4499997  92.7439992  69.5894990  56.3279997
  91.5819992  68.2974990  55.8579997  35.1559992  61.3624990  54.3549997
  34.7359992  60.8164990  53.4829997  36.1399992  60.8654990  54.4929997
  35.2559992  62.4524990  54.1629997  34.1399992  61.2194990  55.4969997
  33.3179992  61.9634990  55.4319997  33.7579992  60.1814990  55.3949997
  34.8579992  61.1124990  56.8989997  35.6469992  61.8894990  56.9889997
  34.0089992  61.2324990  57.6059997  35.5069992  59.7534990  57.1699997
  34.8749992  58.8724990  56.9319997  36.3249992  59.7314990  56.4179997
  36.0969992  59.5754990  58.5329997  35.2759992  59.5984990  59.2809997
  36.5019992  58.5534990  58.6879997  37.1669992  60.6484990  59.0249997
  37.9229992  61.0094990  58.2959997  36.7219992  61.5924990  59.4069997
  38.1499992  60.1254990  60.1109997  38.7799992  59.3634990  59.6039997
  38.7999992  60.9354990  60.5049997  37.4589992  59.3474990  61.2819997
  36.5729992  59.8624990  61.7099997  37.0359992  58.4534990  60.7759997
  38.2569992  58.8114990  62.4099997  37.5949992  58.1404990  62.9979997
  39.0089992  58.1234990  61.9669997  38.7509992  59.8524990  63.3829997
  39.4639992  59.3944990  64.1029997  39.1659992  60.7144990  62.8189997
  37.6709992  60.4234990  64.3369997  38.2449992  61.0384990  65.0629997
  37.0189992  61.1204990  63.7689997  36.8359992  59.4234990  65.1779997
  36.2189992  59.8174990  66.0129997  36.1489992  59.0504990  64.3889997
  37.6669992  58.2884990  65.7539997  38.3089992  57.8414990  64.9659997
  38.2809992  58.7074990  66.5799997  36.7239992  57.2714990  66.3919997
  35.9269992  57.4614990  67.1419997  36.1149992  56.7964990  65.5929997
  37.4959992  56.0144990  66.9149997  36.7679992  55.1914990  67.0789997
  38.2609992  55.6584990  66.1919997  38.0999992  56.3054990  68.2709997
  39.2749992  56.2084990  68.5979997  37.0659992  56.5504990  69.1699997
  37.3419992  56.5894990  70.5729997  36.7589992  55.8364990  71.1439997
  38.4029992  56.3614990  70.8119997  36.8639992  57.9524990  71.1379997
  37.4379992  58.7714990  70.6529997  37.1469992  58.1244990  72.6659997
  38.2329992  57.9654990  72.8379997  36.9559992  59.1404990  73.0739997
  36.4859992  57.1734990  73.4459997  35.4159992  57.5844990  74.5349997
  34.7289992  58.8764990  73.9019997  33.3889992  59.1494990  74.2939997
  32.8919992  59.7434990  73.4969997  32.7549992  58.2754990  74.5549997
  33.3679992  60.0134990  75.6319997  32.3299992  60.0614990  75.9269997
  33.9359992  59.5684990  76.4359997  33.7169992  61.4954990  75.5469997
  35.1669992  61.7564990  75.2739997  35.7619992  61.6934990  76.1729997
  35.4689992  61.0514990  74.5139997  35.3769992  62.7294990  74.8539997
  32.8039992  62.2254990  74.5589997  32.9339992  61.7484990  73.5989997
  31.7539992  62.1504990  74.8009997  33.0539992  63.2734990  74.4839997
  33.4529992  62.0974990  76.9029997  33.7149992  63.1394990  76.7869997
  34.0669992  61.6134990  77.6479997  32.4179992  61.9784990  77.1899997
  34.4439992  56.4504990  74.5899997  36.1229992  57.9434990  75.7889997
  35.4749992  58.1434990  70.8159997  35.0449992  59.4154990  70.6589997
  35.7479992  60.3764990  70.9359997  33.7229992  59.4904990  69.9469997
  32.8259992  59.2364990  70.5519997  33.9269992  58.6734990  69.2219997
  33.6449992  60.8684990  69.2639997  34.3399992  60.7764990  68.4019997
  33.8779992  61.7174990  69.9419997  32.2259992  61.1504990  68.7239997
  31.4789992  60.8634990  69.4949997  31.9499992  60.5794990  67.8119997
  32.1649992  62.6404990  68.3769997  32.3639992  63.2664990  69.2729997
  31.1449992  62.8194990  67.9739997  33.0129992  63.2324990  67.0959997
  34.0469992  63.0124990  67.4389997  32.7939992  64.3214990  67.1039997
  32.8629992  62.3664990  65.8449997  31.7909992  62.1634990  65.6399997
  33.3729992  61.3914990  65.9979997  33.4769992  63.0354990  64.6199997
  34.5079992  62.6754990  64.4159997  33.6649992  64.1014990  64.8679997
  32.6649992  62.9104990  63.3229997  32.1329992  63.8194990  63.0069997
  32.5689992  61.7614990  62.6219997  31.9389992  61.6874990  61.7239997
  33.2279992  60.4294990  62.8699997  33.8869992  60.4424990  63.7649997
  34.0379992  60.3274990  62.1159997  32.4079992  59.1344990  62.7609997
  32.0449992  59.0494990  61.7149997  31.5589992  59.2974990  63.4589997
  33.2519992  57.8994990  63.1619997  32.5009992  57.1054990  63.3639997
  33.7459992  58.1304990  64.1299997  34.1959992  57.3574990  62.1019997
  34.8349992  56.5364990  62.4939997  34.9089992  58.0564990  61.6149997
  33.4409992  56.8494990  60.8709997  32.7519992  57.5884990  60.4089997
  32.6689992  56.0664990  61.0239997  34.3459992  56.5334990  59.6669997
  34.6849992  55.4844990  59.8039997  35.2969992  57.0984990  59.5699997
  33.6689992  56.6034990  58.2559997  34.4189992  56.6284990  57.4359997
  33.1249992  57.5684990  58.1749997  32.6799992  55.4594990  58.0159997
  32.5649992  55.2344990  56.9339997  31.7349992  55.6774990  58.5579997
  33.1009992  54.5124990  58.4159997  49.3359992  28.6774990  56.4989997
  49.7589992  29.1314990  55.5769997  48.9649992  29.5174990  57.1249997
  48.4629992  28.1384990  56.0719997  50.1579992  27.8314990  57.3169997
  50.3979992  26.8994990  56.7639997  51.1319992  28.2484990  57.6529997
  49.4329992  27.5164990  58.5899997  48.4049992  27.1434990  58.3909997
  49.8939992  26.6324990  59.0809997  49.2989992  28.5844990  59.7449997
  50.3599992  28.9134990  59.7849997  48.6999992  29.3674990  59.2349997
  48.5669992  28.1454990  61.0179997  47.5089992  27.9144990  60.7689997
  48.9469992  27.2224990  61.5059997  48.5909992  29.2134990  62.0929997
  49.5419992  29.2284990  62.6659997  48.5569992  30.1934990  61.5699997
  47.4199992  29.0244990  63.0449997  47.3149992  29.8174990  63.8159997
  46.4889992  29.0614990  62.4399997  47.4989992  27.6824990  63.7899997
  46.5109992  27.5194990  64.2709997  47.7579992  26.6864990  63.3709997
  48.3709992  27.8024990  65.1489997  49.3899992  28.0904990  64.8109997
  48.0299992  28.6054990  65.8369997  48.5789992  26.4624990  66.0699997
  49.1159992  25.7474990  65.4099997  49.2769992  26.7524990  66.8839997
  47.2579992  25.8634990  66.6099997  46.5449992  25.6724990  65.7789997
  47.6579992  24.8894990  66.9639997  46.6349992  26.6764990  67.7629997
  46.7539992  27.7454990  67.4839997  45.6059992  26.3934990  68.0719997
  47.3769992  26.5604990  69.0849997  46.7919992  25.8094990  69.6579997
  48.3569992  26.0674990  68.9089997  47.4829992  27.8224990  70.0529997
  48.4609992  28.3354990  69.9309997  46.6649992  28.4804990  69.6899997
  47.1519992  27.6204990  71.5809997  46.6649992  28.5164990  72.0209997
  46.2949992  26.9144990  71.5629997  48.4059992  27.1234990  72.3299997
  49.3389992  26.5284990  71.8519997  48.2729992  27.2854990  73.7159997
  49.0219992  26.3284990  74.4679997  48.3369992  25.9194990  75.2419997
  49.2739992  25.4064990  73.9009997  50.3959992  26.9404990  75.0629997
  50.9669992  26.0454990  75.3879997  50.1689992  28.0314990  76.2659997
  49.6219992  27.4324990  77.0269997  51.1109992  28.3274990  76.7749997
  49.4679992  29.2174990  75.8899997  49.1469992  30.2944990  76.9909997
  48.5689992  31.4824990  76.1339997  47.4559992  31.1114990  75.2439997
  46.7149992  30.4594990  75.7549997  46.8249992  32.0144990  75.1009997
  48.0109992  30.7124990  73.8119997  48.5039992  29.7694990  73.9979997
  47.1639992  30.4874990  73.1809997  48.8389992  31.7854990  72.9549997
  49.3149992  31.0464990  71.6949997  48.3709992  30.8044990  71.2309997
  49.9339992  31.6864990  71.0839997  49.8889992  30.1764990  71.9779997
  47.9609992  32.9384990  72.4959997  47.5649992  33.3714990  73.4029997
  48.6369992  33.6684990  72.0759997  47.1469992  32.5514990  71.9009997
  50.0169992  32.3554990  73.7589997  50.6629992  31.6344990  74.2379997
  49.5719992  33.0354990  74.4709997  50.6249992  32.8544990  73.0189997
  48.1439992  29.8054990  78.0179997  50.4289992  30.7904990  77.4769997
  51.0699992  27.6244990  73.9669997  52.1299992  28.4984990  74.1679997
  52.6559992  28.6404990  75.2229997  52.6959992  29.0804990  72.8509997
  51.8719992  29.1764990  72.1119997  53.4259992  28.3384990  72.4639997
  53.1949992  30.4974990  73.1329997  53.8679992  30.6234990  74.0079997
  52.3659992  31.2244990  73.2699997  54.0019992  31.0534990  71.9989997
  54.9009992  30.4014990  72.0259997  54.3769992  32.0574990  72.2929997
  53.3329992  31.0624990  70.5949997  52.3049992  31.4674990  70.7169997
  53.2189992  30.0034990  70.2779997  54.0839992  32.0664990  69.6489997
  55.1489992  31.7694990  69.5369997  53.9799992  33.1124990  70.0079997
  53.5039992  32.1464990  68.1859997  53.0259992  31.2014990  67.8509997
  54.3279992  32.2604990  67.4499997  52.4719992  33.2314990  67.9089997
  52.5529992  33.5524990  66.8479997  52.7169992  34.1214990  68.5259997
  51.0929992  32.7674990  68.3529997  50.9239992  32.5334990  69.4149997
  50.0329992  32.5934990  67.5569997  49.1779992  32.0294990  67.9579997
  49.9259992  32.7894990  66.0499997  50.3639992  33.7854990  65.8249997
  48.8949992  33.0074990  65.6979997  50.5249992  31.7994990  65.0469997
  49.9629992  30.8424990  65.0939997  51.5259992  31.5154990  65.4379997
  50.7899992  32.2994990  63.5399997  51.2039992  33.3304990  63.5759997
  49.7249992  32.2714990  63.2239997  51.6989992  31.2534990  62.7829997
  51.2579992  30.2774990  63.0779997  52.7099992  31.3824990  63.2249997
  51.6129992  31.3254990  61.2679997  50.5369992  31.1334990  61.0699997
  52.3639992  30.6024990  60.8859997  51.9559992  32.6744990  60.6409997
  52.8739992  33.0064990  61.1709997  51.3499992  33.5394990  60.9859997
  52.0369992  32.5854990  59.1109997  53.1099992  32.4164990  58.8759997
  51.8139992  33.6094990  58.7439997  51.2359992  31.4274990  58.4129997
  51.6509992  31.3494990  57.3849997  50.1589992  31.7004990  58.3989997
  51.3839992  30.4204990  58.8589997  99.7059992  68.7504990  57.2249997
  98.8239992  68.8064990  57.8989997  99.4369992  68.1974990  56.2999997
  99.8129992  69.7894990  56.8449997 100.9049992  68.2104990  58.0139997
 101.1789992  68.8834990  58.8549997 100.5519992  67.2124990  58.3519997
 102.1649992  68.0814990  57.0949997 101.9619992  67.3224990  56.3089997
 102.2459992  69.0084990  56.4889997 103.4399992  67.5294990  57.7339997
 103.2409992  66.5024990  58.1079997 104.3529992  67.5354990  57.1019997
 103.8279992  68.4404990  58.9379997 103.7359992  69.5004990  58.6189997
 103.2149992  68.2774990  59.8499997 105.3189992  68.1674990  59.4739997
 105.4149992  67.1144990  59.8149997 106.1319992  68.4284990  58.7639997
 105.6059992  68.9304990  60.7829997 106.6009992  68.5764990  61.1259997
 105.7959992  70.0184990  60.6639997 104.6439992  68.7074990  61.9549997
 104.1939992  67.6954990  61.8649997 105.2739992  68.7644990  62.8679997
 103.4789992  69.6504990  62.0429997 103.9979992  70.6204990  61.8849997
 102.6279992  69.6564990  61.3289997 102.8039992  69.7634990  63.4709997
 103.5869992  70.1704990  64.1469997 102.0499992  70.5724990  63.3669997
 102.2009992  68.5944990  64.1139997 101.4139992  68.9674990  64.8029997
 101.7969992  67.8914990  63.3539997 103.1209992  67.9104990  65.0509997
 104.0199992  67.5414990  64.5129997 103.5129992  68.7414990  65.6749997
 102.5039992  66.7144990  65.8169997 101.6699992  67.0754990  66.4559997
 102.1169992  65.9784990  65.0799997 103.5189992  66.1744990  66.8039997
 103.1319992  65.3454990  67.4339997 104.4089992  65.6414990  66.4089997
 104.0009992  67.2394990  67.8309997 104.9309992  67.5304990  67.2979997
 103.3609992  68.1444990  67.9079997 104.4119992  66.7874990  69.2219997
 104.5249992  65.6304990  69.5809997 104.6019992  67.8664990  69.9609997
 104.9249992  67.5504990  71.3319997 104.4029992  66.6754990  71.7739997
 105.9929992  67.2994990  71.5069997 104.4899992  68.6324990  72.3649997
 104.7619992  68.3114990  73.3929997 102.8889992  68.7344990  72.3699997
 102.5039992  69.0604990  71.3799997 102.3549992  67.7634990  72.4519997
 102.4849992  69.6434990  73.3999997 101.9909992  71.0464990  73.0669997
 102.4419992  71.8364990  74.3419997 103.8469992  71.9554990  74.6259997
 104.4699992  71.2104990  74.0859997 104.0759992  72.9544990  74.1979997
 104.0549992  71.8964990  76.1649997 105.0779992  72.1374990  76.4169997
 103.3969992  72.6934990  76.4809997 103.6869992  70.5744990  76.8609997
 104.6919992  69.6004990  76.2259997 105.6869992  70.0144990  76.2899997
 104.5909992  68.7144990  76.8369997 104.4209992  69.3994990  75.1999997
 103.9189992  70.7774990  78.3639997 104.8859992  71.1724990  78.6379997
 103.1449992  71.4684990  78.6619997 103.8129992  69.7484990  78.6729997
 102.1939992  70.1764990  76.5709997 102.0219992  70.1304990  75.5059997
 101.5489992  70.9174990  77.0199997 102.0469992  69.2174990  77.0459997
 102.6719992  71.5564990  71.8299997 100.5159992  70.9564990  73.0189997
 105.0449992  69.9004990  72.0629997 106.3629992  69.8964990  72.3459997
 106.9169992  69.0794990  73.0649997 107.0129992  71.0534990  71.5819997
 107.6619992  71.5344990  72.3449997 106.2459992  71.8254990  71.3589997
 107.9309992  70.6534990  70.3919997 108.4979992  69.7234990  70.6109997
 108.6889992  71.3954990  70.0619997 107.0459992  70.5154990  69.0469997
 106.0239992  70.9034990  69.2439997 107.1019992  69.4554990  68.7209997
 107.4739992  71.5534990  67.9359997 108.5249992  71.2484990  67.7469997
 107.5139992  72.4914990  68.5309997 106.5949992  71.6894990  66.7459997
 105.6449992  72.1314990  67.1149997 106.4909992  70.6744990  66.3059997
 107.1709992  72.5144990  65.5899997 108.2069992  72.1444990  65.4329997
 107.2299992  73.5484990  65.9919997 106.2489992  72.6024990  64.3529997
 106.5279992  71.6034990  63.9539997 106.7499992  73.4704990  63.8749997
 104.7999992  72.7754990  64.4869997 104.2449992  71.9304990  64.9209997
 104.0279992  73.8354990  63.9539997 102.9599992  73.7774990  64.2089997
 104.5289992  75.0634990  63.1479997 105.6359992  75.0214990  63.0719997
 104.1439992  75.9544990  63.6889997 104.0059992  75.1594990  61.6889997
 104.2809992  76.1544990  61.2799997 102.8949992  75.1554990  61.6979997
 104.6659992  74.0604990  60.7759997 104.6759992  72.9914990  61.0799997
 105.7199992  74.3904990  60.8899997 104.1999992  73.9904990  59.3449997
 104.3119992  74.9984990  58.8929997 103.1119992  73.8004990  59.4699997
 105.1009992  73.0504990  58.6149997 105.2619992  72.0924990  59.1539997
 106.1099992  73.4614990  58.3959997 104.4659992  72.5624990  57.3049997
 103.4629992  72.1364990  57.5219997 105.1129992  71.7334990  56.9489997
 104.3229992  73.6114990  56.1659997 103.6759992  74.3694990  56.6569997
 103.8539992  73.1694990  55.2609997 105.6189992  74.3574990  55.6479997
 106.3569992  73.6294990  55.2489997 106.0629992  74.7704990  56.5789997
 105.3859992  75.2224990  54.9909997  83.6919992 103.5364990  56.2919997
  82.9279992 104.3064990  56.5349997  83.3419992 102.4834990  56.3389997
  83.7839992 103.7424990  55.2049997  85.0379992 103.6044990  56.9149997
  85.4589992 102.6124990  56.6449997  85.6829992 104.3364990  56.3829997
  85.1829992 103.8444990  58.3939997  84.5819992 103.0654990  58.9099997
  86.2259992 103.5074990  58.5799997  84.8709992 105.3174990  58.7739997
  85.5289992 106.0124990  58.2099997  83.8029992 105.5644990  58.5909997
  85.3119992 105.7454990  60.2029997  86.4099992 105.8784990  60.3049997
  84.7999992 106.7254990  60.3099997  84.6469992 104.9864990  61.3719997
  83.5809992 104.7794990  61.1369997  85.0619992 103.9604990  61.4719997
  84.8679992 105.8294990  62.6709997  85.9589992 105.8934990  62.8709997
  84.7059992 106.8924990  62.3909997  83.9639992 105.6084990  63.9429997
  84.4719992 106.2584990  64.6859997  82.9369992 105.9414990  63.6779997
  84.0699992 104.1844990  64.5129997  83.4899992 104.1874990  65.4599997
  83.5999992 103.4754990  63.7979997  85.4539992 103.7064990  64.7769997
  86.0299992 103.6664990  63.8279997  85.9409992 104.3824990  65.5119997
  85.4249992 102.2414990  65.3019997  84.6719992 101.7204990  64.6719997
  86.4209992 101.7774990  65.1389997  85.0219992 102.0384990  66.7199997
  83.9589992 102.2674990  66.9519997  85.1209992 100.9374990  66.8299997
  85.9759992 102.6174990  67.7829997  85.8989992 101.8134990  68.5449997
  87.0289992 102.5714990  67.4309997  85.7319992 104.0384990  68.3039997
  85.9279992 104.7464990  67.4709997  84.6979992 104.0744990  68.7109997
  86.5839992 104.3394990  69.5049997  86.4289992 103.5324990  70.2529997
  87.6699992 104.2964990  69.2719997  86.3449992 105.8124990  70.0609997
  86.1349992 106.7584990  69.3319997  86.5469992 105.9394990  71.3869997
  86.2049992 107.2394990  72.0439997  86.7489992 107.2694990  73.0129997
  86.5349992 108.0974990  71.4189997  84.6649992 107.3804990  72.3629997
  84.5269992 108.3604990  72.8689997  84.2829992 106.2364990  73.2819997
  84.9539992 106.1774990  74.1649997  83.2179992 106.4424990  73.5239997
  84.3149992 105.0134990  72.5759997  83.2219992 103.9534990  72.7819997
  82.9299992 104.0264990  74.3589997  82.7489992 102.8244990  75.1379997
  81.7229992 102.9194990  75.5539997  82.6749992 101.8814990  74.5559997
  83.6859992 102.5854990  76.3839997  83.0029992 102.2374990  77.1449997
  84.2739992 101.7144990  76.1309997  84.4269992 103.7344990  76.9949997
  83.4229992 104.7794990  77.2529997  83.9369992 105.5674990  77.7829997
  82.9709992 105.1344990  76.3379997  82.6739992 104.3654990  77.9109997
  85.0209992 103.3774990  78.3409997  84.1889992 102.9584990  78.8879997
  85.8419992 102.7014990  78.1539997  85.2939992 104.3164990  78.8009997
  85.4999992 104.2794990  76.0489997  86.1619992 105.0004990  76.5039997
  85.0079992 104.8264990  75.2579997  86.0759992 103.5834990  75.4559997
  81.9809992 104.2884990  72.0369997  83.8559992 102.6444990  72.5589997
  83.9769992 107.3734990  71.1069997  82.6799992 107.7314990  71.1189997
  82.0159992 107.9114990  72.0629997  82.1849992 107.9204990  69.6409997
  82.9519992 108.5504990  69.1419997  81.2869992 108.5624990  69.7669997
  81.7209992 106.5664990  69.0789997  80.8669992 106.0584990  69.5759997
  82.5689992 105.8514990  69.0179997  81.2909992 106.7334990  67.5999997
  82.0609992 107.3224990  67.0569997  80.3759992 107.3604990  67.6779997
  80.8889992 105.4874990  66.8959997  79.9639992 105.1794990  67.4279997
  81.5739992 104.6264990  67.0519997  80.4379992 105.7784990  65.4859997
  81.2159992 106.1534990  64.7859997  79.6229992 106.5154990  65.3239997
  79.8489992 104.4674990  64.8369997  78.8709992 104.1564990  65.2609997
  80.5719992 103.6664990  65.1019997  79.8589992 104.4944990  63.3189997
  79.5499992 103.4414990  63.1449997  80.9019992 104.6274990  62.9599997
  78.9059992 105.3804990  62.6249997  77.8789992 105.0014990  62.7289997
  79.1529992 106.3654990  61.7469997  78.2929992 106.8304990  61.2429997
  80.5229992 106.8084990  61.2729997  81.3459992 106.6024990  61.9919997
  80.5269992 107.8944990  61.0409997  80.7619992 105.9154990  60.0139997
  80.7979992 104.8994990  60.4629997  81.7739992 106.2224990  59.6719997
  79.8119992 106.0124990  58.7679997  79.5909992 107.0764990  58.5379997
  78.9079992 105.4554990  59.0959997  80.3499992 105.3054990  57.5429997
  80.2039992 104.2044990  57.5469997  81.4569992 105.2154990  57.5659997
  79.7379992 105.8954990  56.2229997  78.6469992 106.0074990  56.4019997
  79.6449992 105.1304990  55.4229997  80.2709992 107.3034990  55.8769997
  80.5009992 107.9044990  56.7829997  79.5109992 107.8704990  55.2979997
  81.5839992 107.3074990  55.0619997  81.5219992 106.6464990  54.1719997
  82.3889992 106.9974990  55.7639997  82.0569992 108.7414990  54.7609997
  81.5319992 109.2934990  53.9519997  83.1279992 108.6534990  54.4789997
  82.2039992 109.3734990  55.6629997  55.7609992  96.2244990  57.4169997
  56.1809992  96.7874990  58.2769997  55.6679992  96.8424990  56.4989997
  56.6049992  95.5544990  57.1449997  54.4299992  95.5164990  57.7459997
  53.5509992  95.8944990  57.1819997  54.4959992  94.4644990  57.3949997
  54.1239992  95.5144990  59.2139997  54.3699992  96.5044990  59.6539997
  53.0169992  95.5094990  59.3099997  54.7909992  94.3574990  60.0659997
  54.5459992  93.3504990  59.6669997  55.8749992  94.5924990  60.1249997
  54.3279992  94.3104990  61.5769997  53.2569992  94.0524990  61.7249997
  54.8599992  93.4224990  61.9789997  54.7979992  95.4834990  62.3019997
  55.8529992  95.7454990  62.0719997  54.2669992  96.3734990  61.9029997
  54.6899992  95.3864990  63.8769997  55.3689992  94.5514990  64.1499997
  55.0929992  96.3354990  64.2909997  53.3069992  94.9684990  64.4369997
  52.4989992  95.4174990  63.8199997  53.2609992  93.8804990  64.2169997
  53.0699992  95.3574990  65.9129997  53.8519992  94.8884990  66.5479997
  53.0359992  96.4534990  66.0909997  51.7119992  94.8784990  66.4839997
  50.9759992  95.0434990  65.6679997  51.7589992  93.7684990  66.4679997
  51.3939992  95.5294990  67.7989997  51.9149992  94.9674990  68.6019997
  51.7839992  96.5654990  67.8889997  49.9209992  95.5584990  68.1789997
  49.6499992  96.0574990  69.1339997  49.5039992  96.1764990  67.3539997
  49.1929992  94.2214990  67.9929997  48.1229992  94.4694990  68.1619997
  49.4189992  93.7064990  67.0339997  49.6969992  93.2854990  69.0979997
  49.0479992  92.3864990  69.0219997  50.6899992  92.8004990  68.9849997
  49.3229992  93.8014990  70.5489997  50.0279992  94.6104990  70.8379997
  48.3079992  94.2414990  70.6509997  49.4579992  92.5794990  71.5079997
  48.5019992  92.0864990  72.0629997  50.6759992  92.1384990  71.5949997
  50.7439992  90.9144990  72.3439997  50.3289992  91.0304990  73.3669997
  50.2869992  90.0904990  71.7549997  52.2269992  90.5404990  72.6079997
  52.2299992  89.5974990  73.1949997  53.1099992  91.5434990  73.4229997
  52.5169992  91.5964990  74.3609997  54.0019992  90.9394990  73.6949997
  53.2999992  92.6984990  72.6859997  54.6409992  93.5284990  72.6199997
  54.8479992  93.8624990  74.1729997  54.0959992  94.9504990  74.6899997
  54.3369992  95.9124990  74.1889997  53.0469992  94.6664990  74.4559997
  54.2749992  95.2074990  76.2809997  55.3009992  95.4254990  76.5409997
  53.5909992  96.0014990  76.5409997  53.9619992  94.0374990  77.2579997
  55.0759992  93.1344990  77.3699997  55.3919992  92.8514990  76.3769997
  55.8779992  93.7024990  77.8199997  54.8369992  92.2104990  77.8749997
  53.5939992  94.4404990  78.6899997  53.2899992  93.4924990  79.1089997
  54.4369992  94.7314990  79.2989997  52.6789992  95.0114990  78.6419997
  52.7129992  93.3094990  76.7669997  52.7279992  92.4164990  77.3749997
  52.7199992  92.8374990  75.7959997  51.8099992  93.8854990  76.9049997
  55.6419992  92.5754990  72.1569997  54.4369992  94.7004990  71.7799997
  52.7689992  90.1894990  71.3089997  54.0669992  89.9324990  71.1149997
  54.8849992  89.7684990  72.0309997  54.3309992  90.1174990  69.5919997
  54.0209992  89.1684990  69.1049997  55.4269992  90.2334990  69.4519997
  53.4549992  91.2104990  68.9269997  53.7879992  92.2264990  69.2299997
  52.4199992  91.2144990  69.3309997  53.5529992  91.1284990  67.4289997
  54.6459992  91.1784990  67.2359997  53.0189992  92.0304990  67.0589997
  53.0359992  89.8004990  66.8009997  51.9809992  89.7494990  67.1459997
  53.6549992  88.9564990  67.1729997  53.1769992  89.6234990  65.2859997
  52.9009992  88.5854990  64.9999997  54.2629992  89.7974990  65.1259997
  52.4459992  90.6744990  64.4499997  52.6869992  90.3924990  63.4019997
  52.9749992  91.6214990  64.6869997  50.9739992  90.8474990  64.6619997
  50.8869992  90.8724990  65.7689997  50.5719992  89.8604990  64.3479997
  50.3599992  92.0474990  63.9899997  50.8359992  92.9854990  64.3109997
  49.5099992  92.1074990  62.9369997  49.0649992  93.0384990  62.5549997
  48.9079992  90.8604990  62.1469997  47.8219992  90.9984990  62.3369997
  49.2309992  89.9084990  62.6209997  49.0669992  90.7434990  60.6219997
  48.5509992  91.6034990  60.1429997  48.6129992  89.7884990  60.2839997
  50.4759992  90.6474990  60.1109997  50.6379992  90.1144990  59.1489997
  50.9469992  89.9914990  60.8739997  51.0819992  92.0304990  60.0719997
  51.7109992  92.2364990  60.9639997  50.3059992  92.8204990  60.1579997
  52.0489992  92.4274990  58.9459997  52.9099992  91.7274990  58.9069997
  52.5359992  93.4114990  59.1159997  51.3709992  92.3624990  57.6149997
  51.0969992  91.3064990  57.4069997  52.0729992  92.6404990  56.8009997
  50.1949992  93.2654990  57.4729997  49.4229992  92.9324990  58.1989997
  49.6719992  93.0364990  56.5199997  50.5449992  94.7854990  57.6019997
  49.5339992  95.2454990  57.5739997  51.2749992  95.0704990  56.8149997
  50.9869992  95.0964990  58.5719997  85.5639992  60.9184990  58.4409997
  85.8379992  59.9934990  57.8909997  85.1629992  61.5284990  57.6039997
  84.6889992  60.8994990  59.1259997  86.7719992  61.6824990  59.0309997
  87.5409992  61.7744990  58.2349997  86.4589992  62.7014990  59.3439997
  87.3139992  61.0314990  60.2939997  86.3789992  60.9884990  60.8919997
  87.5529992  59.9504990  60.1929997  88.5019992  61.7894990  60.9389997
  89.3849992  61.5974990  60.2929997  88.2529992  62.8694990  60.8619997
  88.9059992  61.4134990  62.3289997  89.3929992  60.4154990  62.3589997
  89.5949992  62.2054990  62.6929997  87.7419992  61.3884990  63.4119997
  87.1489992  62.3124990  63.2439997  87.1059992  60.4984990  63.2199997
  88.3509992  61.4654990  64.8669997  88.8999992  60.5274990  65.0959997
  89.1859992  62.1804990  65.0289997  87.3449992  61.8974990  65.9079997
  87.0899992  62.9694990  65.7649997  86.4579992  61.2614990  65.7009997
  87.8409992  61.8574990  67.3479997  88.4759992  60.9474990  67.3909997
  88.4749992  62.7694990  67.3819997  86.6419992  61.8024990  68.3039997
  86.0799992  62.7294990  68.0589997  86.1259992  60.9254990  67.8579997
  86.9399992  61.6874990  69.7869997  87.4799992  60.7184990  69.8289997
  87.4589992  62.6054990  70.1359997  85.6479992  61.6314990  70.5309997
  85.8549992  61.9164990  71.5849997  84.8569992  62.3294990  70.1849997
  85.0649992  60.2044990  70.7539997  84.0289992  60.4814990  71.0449997
  85.0359992  59.8014990  69.7189997  85.8589992  59.4044990  71.8099997
  86.8969992  59.3044990  71.4259997  85.8029992  60.1674990  72.6159997
  85.2559992  58.0034990  72.1599997  84.2049992  58.1054990  72.5079997
  85.3769992  57.3094990  71.3009997  86.0919992  57.6274990  73.3439997
  86.0269992  58.1844990  74.4459997  86.8979992  56.6664990  73.0099997
  87.6509992  56.0924990  74.0829997  87.2669992  56.2274990  75.1159997
  87.7849992  55.0104990  73.8659997  89.1379992  56.6054990  74.0149997
  89.6599992  55.9514990  74.7459997  89.3139992  58.1374990  74.4319997
  88.7079992  58.3594990  75.3359997  90.3919992  58.1704990  74.7009997
  88.9939992  58.9854990  73.3689997  89.5749992  60.4294990  73.4519997
  88.5809992  61.0354990  74.4929997  88.5059992  62.3724990  74.8839997
  89.5529992  62.7294990  74.9829997  88.0469992  63.0154990  74.1019997
  87.8689992  62.5034990  76.2559997  88.5689992  61.9424990  76.8579997
  87.9809992  63.4794990  76.7049997  86.4949992  61.9324990  76.4529997
  86.3499992  60.4354990  76.5269997  86.8069992  60.0054990  75.6479997
  86.7929992  60.0434990  77.4299997  85.3069992  60.2074990  76.6889997
  85.8969992  62.5114990  77.6579997  84.8579992  62.2184990  77.6899997
  86.4979992  62.3874990  78.5469997  85.9279992  63.5654990  77.4219997
  85.6189992  62.3614990  75.2429997  85.4399992  63.4254990  75.1889997
  84.6419992  61.9034990  75.2869997  86.1019992  61.9294990  74.3789997
  90.9239992  60.4564990  74.0259997  89.4389992  61.0984990  72.1109997
  89.5579992  56.2414990  72.6699997  90.7179992  56.5784990  72.2229997
  91.6489992  57.0004990  72.9679997  90.7659992  56.5234990  70.6659997
  90.3139992  55.6034990  70.2389997  91.7979992  56.8194990  70.3799997
  89.8569992  57.5874990  70.0349997  90.1019992  58.6034990  70.4129997
  88.7889992  57.3214990  70.1839997  90.0199992  57.7124990  68.4649997
  90.9859992  58.2324990  68.2899997  89.2659992  58.3804990  67.9959997
  89.7449992  56.3714990  67.7239997  88.8989992  55.7624990  68.1089997
  90.7009992  55.8464990  67.9379997  89.4799992  56.5104990  66.1729997
  89.3639992  55.4924990  65.7449997  90.3819992  56.9894990  65.7369997
  88.2099992  57.3514990  65.7999997  88.0719992  57.3744990  64.6979997
  88.3379992  58.3864990  66.1829997  86.8469992  56.8044990  66.3509997
  86.9829992  56.7174990  67.4499997  86.5519992  55.8254990  65.9159997
  85.8189992  57.8494990  66.0619997  85.7689992  58.5934990  66.8699997
  85.0029992  57.9704990  64.9739997  84.3859992  58.8744990  64.8629997
  84.9539992  57.0734990  63.7469997  83.8729992  56.8814990  63.5819997
  85.4069992  56.1014990  64.0399997  85.4879992  57.6414990  62.3939997
  85.9079992  58.6694990  62.4199997  84.7009992  57.6344990  61.6099997
  86.6439992  56.8864990  61.8739997  86.5829992  55.8344990  62.2249997
  87.5679992  57.3124990  62.3209997  86.8049992  56.9794990  60.3389997
  86.9509992  58.0474990  60.0699997  85.8629992  56.5584990  59.9259997
  88.1269992  56.3514990  59.8519997  88.8929992  56.9324990  60.4079997
  88.1809992  56.7174990  58.8039997  88.2429992  54.8874990  59.8869997
  87.9309992  54.6294990  60.9209997  89.2229992  54.4204990  59.6479997
  87.3059992  54.2014990  58.9699997  86.2799992  54.6154990  59.0709997
  87.2769992  53.1284990  59.2569997  87.6829992  54.3884990  57.4619997
  88.7869992  54.2864990  57.4009997  87.3819992  55.3634990  57.0219997
  87.0889992  53.7414990  56.7819997  48.8059992  85.6484990  58.3919997
  48.6599992  85.8354990  57.3069997  48.5079992  84.5804990  58.4609997
  49.8499992  85.7204990  58.7679997  47.8969992  86.6904990  59.1299997
  48.2469992  87.7064990  58.8449997  46.8419992  86.6934990  58.7819997
  48.0619992  86.7014990  60.7179997  48.1689992  85.6284990  60.9819997
  49.0009992  87.1544990  61.1009997  46.9259992  87.3464990  61.5369997
  46.9309992  88.4294990  61.2889997  45.9639992  86.7954990  61.4689997
  47.0429992  87.4904990  63.1109997  47.9369992  88.1234990  63.2989997
  46.1789992  88.0944990  63.4619997  46.9919992  86.1754990  63.8179997
  47.5489992  85.4124990  63.2319997  47.6119992  86.2814990  64.7339997
  45.6239992  85.6624990  64.3699997  44.8269992  85.4474990  63.6269997
  45.9289992  84.7434990  64.9139997  44.9659992  86.6574990  65.3569997
  44.8309992  87.6294990  64.8369997  44.0139992  86.2244990  65.7309997
  45.8059992  86.8764990  66.6119997  45.8199992  85.9864990  67.2769997
  46.8749992  86.8464990  66.3109997  45.4659992  88.1004990  67.3999997
  45.5219992  89.0284990  66.7909997  44.3879992  87.8974990  67.5729997
  46.3519992  88.2294990  68.6579997  46.3399992  87.2424990  69.1699997
  47.4069992  88.4464990  68.3879997  45.8039992  89.3114990  69.6079997
  46.6439992  89.6034990  70.2749997  45.5749992  90.2734990  69.1029997
  44.5309992  88.9824990  70.4019997  44.4159992  89.7864990  71.1609997
  43.6419992  89.1034990  69.7469997  44.6449992  87.6574990  71.0589997
  44.6759992  86.8394990  70.3089997  45.5869992  87.6294990  71.6469997
  43.5829992  87.4524990  72.2359997  43.4699992  88.3744990  72.8449997
  42.6669992  87.0374990  71.7639997  44.0389992  86.2694990  73.1509997
  44.3169992  86.3634990  74.3289997  44.0539992  85.1604990  72.4479997
  44.5309992  83.9354990  73.1179997  44.1139992  83.9414990  74.1479997
  43.9939992  83.1514990  72.5429997  46.0649992  83.7344990  72.8739997
  46.3999992  82.7764990  73.3259997  46.8939992  84.7424990  73.6849997
  46.5709992  85.7914990  73.5139997  46.8859992  84.5214990  74.7729997
  48.3229992  84.6954990  73.3659997  49.1419992  85.9894990  72.9959997
  49.1639992  86.7874990  74.4039997  49.3109992  86.2484990  75.6689997
  48.7159992  85.3124990  75.7469997  50.3969992  86.0924990  75.8419997
  48.7199992  87.3404990  76.6499997  49.0649992  87.1914990  77.6619997
  49.2119992  88.2704990  76.4049997  47.2159992  87.5484990  76.6669997
  46.4579992  86.3144990  77.0009997  45.4249992  86.6074990  76.8759997
  46.6439992  85.5384990  76.2739997  46.6199992  85.8744990  77.9739997
  46.7929992  88.4614990  77.7699997  45.7189992  88.4544990  77.6599997
  47.2669992  88.1114990  78.6759997  47.1839992  89.4394990  77.5289997
  46.6939992  88.0554990  75.3539997  47.1609992  88.9964990  75.1009997
  45.6389992  88.2864990  75.3839997  47.0879992  87.5314990  74.4959997
  50.4479992  85.3934990  72.6109997  48.3289992  86.7294990  71.9829997
  46.4849992  83.9304990  71.5099997  46.8939992  82.9084990  70.7769997
  46.8289992  81.7564990  71.1469997  47.5049992  83.3184990  69.3909997
  46.6639992  83.5394990  68.6999997  47.9429992  82.3654990  69.0229997
  48.4239992  84.5224990  69.4079997  48.7229992  84.6124990  70.4739997
  47.9319992  85.4224990  68.9799997  49.8009992  84.3904990  68.6489997
  49.5009992  84.4284990  67.5799997  50.2809992  83.4614990  69.0219997
  50.7459992  85.6184990  68.8969997  51.1139992  85.4904990  69.9379997
  50.2349992  86.5944990  68.7549997  52.0709992  85.5624990  68.0819997
  52.3089992  84.5344990  67.7329997  52.8319992  85.9314990  68.8019997
  52.0559992  86.5064990  66.8619997  53.0809992  86.4824990  66.4329997
  51.9409992  87.5474990  67.2309997  51.0339992  86.1354990  65.6969997
  49.9999992  86.3374990  66.0509997  51.0919992  85.0474990  65.4769997
  51.3179992  86.8404990  64.4819997  51.0679992  87.9124990  64.4849997
  51.8109992  86.2894990  63.3379997  51.9349992  86.8904990  62.4249997
  52.1439992  84.8054990  63.1339997  51.8849992  84.1624990  64.0019997
  53.2269992  84.8404990  62.8909997  51.3479992  84.1804990  61.9969997
  51.9559992  83.2894990  61.7299997  51.2719992  84.8734990  61.1309997
  49.9729992  83.6384990  62.4959997  49.2909992  84.5114990  62.5759997
  50.1219992  83.2544990  63.5279997  49.3409992  82.6024990  61.6029997
  50.0159992  81.7234990  61.6719997  49.4239992  83.1104990  60.6189997
  47.8829992  82.0574990  61.8799997  47.3239992  82.6844990  62.6069997
  47.9429992  81.0254990  62.2879997  47.0819992  82.0014990  60.5989997
  46.8829992  82.9784990  60.1089997  46.0989992  81.5544990  60.8619997
  47.6869992  81.1214990  59.5239997  48.0789992  80.1684990  59.9379997
  48.5999992  81.6194990  59.1319997  46.8849992  80.9054990  58.2449997
  46.0229992  80.2304990  58.4319997  47.4619992  80.4314990  57.4219997
  46.4629992  81.8054990  57.7489997  42.1879992  45.2854990  58.2639997
  42.2509992  44.8854990  57.2289997  41.9159992  46.3624990  58.2699997
  41.4039992  44.7114990  58.8019997  43.5849992  45.0244990  58.8469997
  44.1099992  44.1144990  58.4849997  44.1909992  45.8164990  58.3559997
  43.7149992  45.2674990  60.2939997  43.0479992  44.5154990  60.7689997
  44.7339992  45.1094990  60.7069997  43.4979992  46.7244990  60.6789997
  44.1269992  47.3314990  59.9939997  42.4199992  46.9924990  60.6439997
  43.9409992  46.8964990  62.1459997  44.3419992  45.9004990  62.4319997
  44.7809992  47.6214990  62.1829997  42.9299992  47.6224990  63.0249997
  43.4559992  47.9844990  63.9339997  42.6209992  48.5254990  62.4539997
  41.6939992  46.8054990  63.4059997  40.9839992  46.4864990  62.6129997
  42.0329992  45.8914990  63.9399997  40.7379992  47.5084990  64.4159997
  41.3809992  48.0844990  65.1149997  40.0769992  48.2504990  63.9199997
  39.7699992  46.5334990  65.0649997  39.1129992  46.1984990  64.2339997
  40.2919992  45.6084990  65.3909997  38.9019992  47.0284990  66.1539997
  38.3829992  47.9764990  65.8959997  38.0729992  46.3324990  66.4069997
  39.6929992  47.6064990  67.3379997  40.3749992  48.3834990  66.9319997
  38.9739992  48.1014990  68.0259997  40.4849992  46.4964990  68.1239997
  41.1259992  46.0094990  67.3589997  40.9839992  46.9384990  69.0129997
  39.7299992  45.2654990  68.6479997  39.0369992  45.7724990  69.3529997
  39.2019992  44.8344990  67.7709997  40.6169992  44.2894990  69.4959997
  41.2639992  43.7124990  68.8009997  41.2319992  44.9994990  70.0889997
  39.7839992  43.1944990  70.3039997  39.4739992  43.7534990  71.2119997
  38.7879992  42.9694990  69.8649997  40.6529992  42.0374990  70.6779997
  41.5529992  41.5264990  69.9749997  40.3519992  41.6434990  71.9419997
  41.2649992  40.7454990  72.5419997  40.8019992  40.2104990  73.3989997
  41.7989992  40.1374990  71.7809997  42.2929992  41.6034990  73.2889997
  42.8319992  40.8654990  73.9209997  41.5679992  42.6184990  74.2109997
  41.6119992  43.6134990  73.7189997  40.5429992  42.2704990  74.4609997
  42.3789992  42.6274990  75.4049997  43.5139992  43.7404990  75.7649997
  42.8559992  45.0964990  75.1789997  42.0199992  45.9144990  76.0589997
  41.4549992  45.2604990  76.7559997  42.7159992  46.5964990  76.5939997
  40.9369992  46.7104990  75.1959997  40.1829992  46.0374990  74.8149997
  40.4249992  47.3324990  75.9149997  41.4669992  47.4524990  74.0199997
  42.8799992  48.0484990  74.3099997  42.8999992  48.4814990  75.2999997
  43.6799992  47.3374990  74.1639997  42.9659992  48.9164990  73.6719997
  41.7059992  46.5734990  72.7649997  42.4229992  45.8064990  73.0169997
  40.7819992  46.0814990  72.5019997  42.0429992  47.1714990  71.9309997
  40.5219992  48.4894990  73.6269997  39.5649992  48.0504990  73.3869997
  40.9019992  49.0344990  72.7759997  40.3529992  49.1064990  74.4959997
  43.6869992  43.8124990  77.1979997  44.7189992  43.4994990  74.9489997
  43.1449992  42.2794990  72.4089997  44.1979992  41.6354990  71.9869997
  44.3459992  40.4184990  72.1199997  45.0829992  42.6984990  71.2479997
  46.0459992  42.2734990  70.8929997  45.1749992  43.4084990  72.0969997
  44.4029992  43.3654990  69.8799997  44.8939992  44.3514990  69.7359997
  43.3469992  43.4714990  70.2079997  44.6479992  42.5514990  68.5839997
  44.1939992  41.5684990  68.8309997  45.6979992  42.6114990  68.2249997
  43.7989992  43.0644990  67.4419997  43.7349992  44.1604990  67.2669997
  42.7289992  42.8704990  67.6679997  44.2509992  42.4604990  66.0189997
  44.1329992  41.3554990  66.0089997  45.3529992  42.6014990  65.9989997
  43.6239992  43.1524990  64.7899997  44.0759992  42.6884990  63.8869997
  43.8399992  44.2414990  64.8229997  42.0659992  42.9864990  64.6659997
  41.7319992  43.6124990  63.8109997  41.6569992  43.4444990  65.5919997
  41.5789992  41.6034990  64.5239997  41.8449992  40.9104990  65.3349997
  41.1129992  40.9974990  63.3969997  40.8679992  39.9264990  63.4499997
  40.9589992  41.6064990  62.0769997  41.3919992  42.6094990  61.8719997
  39.8639992  41.7074990  61.9179997  41.4019992  40.7394990  60.8369997
  40.8949992  39.7544990  60.9169997  42.4989992  40.5664990  60.8389997
  40.8159992  41.3834990  59.6279997  41.4819992  42.1274990  59.1409997
  39.7799992  41.7144990  59.8549997  40.5469992  40.4394990  58.4479997
  40.3739992  39.4154990  58.8419997  41.4949992  40.3134990  57.8819997
  39.6739992  40.9204990  57.2889997  40.1729992  41.7604990  56.7609997
  38.7009992  41.2654990  57.7009997  39.3649992  39.8144990  56.3539997
  38.5879992  39.1464990  56.7839997  40.1929992  39.0744990  56.3179997
  39.0969992  40.3574990  54.8799997  38.4409992  41.2434990  55.0129997
  38.5659992  39.5404990  54.3469997  40.2819992  40.8344990  54.1029997
  40.8579992  39.9294990  53.8109997  40.8769992  41.5704990  54.6849997
  39.9269992  41.4314990  53.2369997 100.0499992  78.9144990  53.9939997
 100.7969992  79.2034990  53.2239997  99.0529992  78.9674990  53.5059997
 100.0869992  77.8474990  54.3029997 100.0629992  79.8654990  55.1889997
 101.0689992  79.7514990  55.6469997  99.8789992  80.8684990  54.7479997
  99.1329992  79.6254990  56.3539997  98.0629992  79.6354990  56.0569997
  99.2889992  78.6254990  56.8119997  99.4449992  80.5854990  57.5219997
 100.5209992  80.3454990  57.6589997  99.3039992  81.5804990  57.0479997
  98.5779992  80.4514990  58.7789997  97.5449992  80.8054990  58.5779997
  98.5729992  79.3614990  58.9899997  99.2279992  81.1154990  60.0249997
 100.3289992  81.0334990  59.9029997  99.0089992  82.2044990  60.0729997
  98.8819992  80.4744990  61.3869997  97.7739992  80.4064990  61.4129997
  99.3009992  79.4464990  61.3419997  99.3909992  81.3954990  62.4809997
  98.8239992  82.3424990  62.3619997  98.9879992  80.9434990  63.4129997
 100.8849992  81.7204990  62.6829997 101.0969992  82.3644990  61.8029997
 100.9989992  82.1574990  63.6979997 101.8729992  80.4564990  62.4879997
 101.5069992  79.6934990  63.2069997 101.7059992  80.0154990  61.4819997
 103.3089992  80.8194990  62.6669997 103.8789992  79.9724990  62.2279997
 103.5259992  81.7044990  62.0309997 103.9069992  80.7724990  64.1029997
 104.9359992  81.1894990  64.1599997 103.2389992  81.3604990  64.7689997
 104.0379992  79.3174990  64.5549997 103.0819992  78.7544990  64.5049997
 104.7209992  78.7574990  63.8819997 104.4219992  79.1284990  66.0969997
 104.6199992  78.0574990  66.3189997 105.2599992  79.8214990  66.3239997
 103.2759992  79.4074990  67.0459997 103.0719992  80.4954990  66.9449997
 102.3609992  78.8304990  66.7949997 103.7279992  79.1704990  68.5139997
 104.7169992  78.5244990  68.8499997 102.8899992  79.7204990  69.2769997
 103.0429992  79.6504990  70.7179997 103.9909992  79.1564990  71.0199997
 103.1189992  80.6334990  71.2299997 101.8969992  78.8374990  71.3989997
 101.0149992  79.5124990  71.4209997 102.2809992  78.4774990  72.9089997
 103.0949992  77.7244990  72.9629997 102.7189992  79.3684990  73.4079997
 101.0959992  78.0164990  73.6119997 101.1269992  77.8464990  75.1449997
 101.1499992  79.4354990  75.5389997  99.9269992  80.1264990  75.5559997
  99.4699992  80.0164990  74.5489997  99.2719992  79.8594990  76.4129997
 100.2359992  81.6964990  75.6409997  99.2929992  82.1684990  75.4039997
 100.6639992  81.9614990  76.5959997 101.2079992  82.3434990  74.6819997
 101.0709992  81.8774990  73.2409997 100.1889992  81.2854990  73.0419997
 101.1129992  82.7894990  72.6639997 101.9659992  81.2904990  73.0979997
 101.0299992  83.8914990  74.6789997  99.9709992  84.0404990  74.5279997
 101.4019992  84.3364990  75.5899997 101.6789992  84.2564990  73.8959997
 102.6429992  82.0254990  75.1919997 102.7319992  82.5104990  76.1529997
 103.4289992  82.4494990  74.5849997 102.7719992  80.9534990  75.2109997
  99.8669992  77.1464990  75.6789997 102.4779992  77.2804990  75.5059997
 101.6409992  77.5954990  70.8079997 100.9389992  77.4884990  69.6799997
 100.3109992  78.3704990  69.1349997 100.9659992  75.9744990  69.2069997
 100.1909992  75.7274990  68.4489997 100.6659992  75.2754990  70.0169997
 102.3089992  75.6964990  68.5659997 103.0579992  75.8444990  69.3729997
 102.6199992  76.4954990  67.8589997 102.5029992  74.3014990  67.8049997
 101.5439992  74.1274990  67.2719997 102.6549992  73.6344990  68.6809997
 103.7669992  74.2454990  66.9319997 103.9519992  73.1854990  66.6559997
 104.6139992  74.5954990  67.5609997 103.6799992  75.0114990  65.5269997
 104.6709992  74.8624990  65.0459997 103.5299992  76.0634990  65.8499997
 102.5359992  74.4414990  64.6309997 101.5859992  74.9074990  64.9709997
 102.4189992  73.3384990  64.5769997 102.7129992  74.7564990  63.1339997
 101.9219992  74.2114990  62.5759997 103.6369992  74.3044990  62.7129997
 102.4729992  76.2574990  62.7939997 101.8359992  76.7864990  63.5179997
 103.0929992  76.8964990  61.7629997 103.0619992  77.9964990  61.7769997
 104.0859992  76.3384990  60.7959997 104.1749992  75.2314990  60.8249997
 105.1019992  76.7884990  60.8119997 103.6729992  76.6604990  59.2649997
 102.9279992  75.8954990  58.9569997 104.5979992  76.4864990  58.6759997
 103.1569992  78.2024990  59.0199997 103.9089992  78.8844990  59.4719997
 102.2079992  78.4174990  59.5559997 102.9139992  78.5884990  57.5309997
 102.7289992  79.6814990  57.4579997 102.0499992  78.1194990  57.0139997
 104.1479992  78.3694990  56.6829997 104.3969992  77.2864990  56.6529997
 105.0379992  78.8684990  57.1229997 104.0549992  78.8144990  55.2649997
 104.0399992  79.9204990  55.3709997 103.1469992  78.4634990  54.7309997
 105.1829992  78.4484990  54.1859997 106.1649992  78.9324990  54.3729997
 104.8229992  78.8324990  53.2069997 105.3879992  76.9414990  54.2469997
 104.4429992  76.3824990  54.0759997 105.8079992  76.6944990  55.2449997
 106.0519992  76.5474990  53.4479997  44.5389992  40.3944990  55.1959997
  43.4769992  40.1414990  54.9929997  45.0239992  39.7224990  55.9369997
  45.0109992  40.4614990  54.1929997  44.4329992  41.7894990  55.8249997
  45.3849992  42.3254990  56.0209997  43.9759992  42.4544990  55.0609997
  43.8199992  41.8504990  57.2639997  43.6449992  42.9274990  57.4719997
  42.9269992  41.1994990  57.1479997  44.5399992  41.2014990  58.4739997
  44.4919992  40.1054990  58.2989997  45.5739992  41.5974990  58.5609997
  43.7509992  41.4514990  59.7809997  44.1429992  42.4384990  60.1079997
  42.6739992  41.3924990  59.5109997  44.0279992  40.3944990  60.8649997
  45.0669992  40.3184990  61.2499997  43.4869992  40.7684990  61.7609997
  43.5439992  38.9994990  60.5879997  42.4699992  38.9384990  60.3069997
  44.1559992  38.5424990  59.7809997  43.8479992  38.1364990  61.8179997
  43.6709992  38.6854990  62.7669997  43.1289992  37.2914990  61.8689997
  45.2539992  37.5254990  61.8309997  45.3609992  36.5774990  61.2599997
  45.9589992  38.2864990  61.4339997  45.7069992  37.2204990  63.2369997
  46.6649992  36.6724990  63.1149997  45.8579992  38.1194990  63.8719997
  44.7769992  36.2694990  64.1469997  43.7109992  36.5604990  64.0349997
  44.8999992  35.2024990  63.8639997  45.1069992  36.3994990  65.6749997
  46.1789992  36.2084990  65.8919997  44.8729992  37.3924990  66.1149997
  44.4199992  35.2804990  66.4829997  43.3189992  35.4174990  66.5379997
  44.5859992  34.3054990  65.9769997  44.9929992  35.0894990  67.9359997
  44.4149992  34.2124990  68.2999997  46.0889992  34.9134990  67.8909997
  44.4559992  36.2134990  68.8089997  44.6959992  37.1974990  68.3529997
  43.3499992  36.1174990  68.8549997  45.1759992  36.0244990  70.1149997
  45.7319992  34.9984990  70.5039997  44.9449992  37.0824990  70.8399997
  45.4009992  37.1314990  72.1939997  44.7059992  36.6234990  72.8969997
  46.3979992  36.6784990  72.3809997  45.4679992  38.6224990  72.7409997
  46.4289992  39.0504990  72.3839997  45.3409992  38.6894990  74.3249997
  46.2549992  38.2094990  74.7379997  45.3429992  39.7654990  74.6009997
  44.1109992  38.1784990  74.7949997  43.1869992  38.7514990  75.8589997
  42.2169992  37.5264990  76.0939997  42.4289992  36.1944990  75.6379997
  43.1839992  36.1394990  74.8249997  42.9369992  35.6364990  76.4529997
  41.1419992  35.5804990  75.3449997  41.3389992  34.5224990  75.2519997
  40.4509992  35.8224990  76.1389997  40.5289992  35.8134990  73.9479997
  40.3579992  37.2544990  73.5799997  39.8249992  37.7374990  74.3849997
  41.3869992  37.5714990  73.4899997  39.8919992  37.4874990  72.6339997
  41.3389992  35.1084990  72.9319997  41.1249992  35.3414990  71.8999997
  42.3889992  35.2324990  73.1539997  41.1579992  34.0544990  73.0829997
  39.1509992  35.2864990  73.9809997  38.4519992  35.8374990  74.5929997
  39.1409992  34.2734990  74.3539997  38.7039992  35.3274990  72.9989997
  43.9939992  39.1034990  77.0249997  42.4189992  39.8464990  75.2739997
  44.3359992  39.3044990  72.1729997  44.5769992  40.6014990  71.7969997
  45.6059992  41.1754990  71.9669997  43.3849992  41.1924990  71.0749997
  43.6749992  42.1494990  70.5899997  42.4729992  41.3504990  71.6899997
  42.8189992  40.2214990  70.0469997  43.5729992  39.6354990  69.4789997
  42.4739992  40.9244990  69.2589997  41.7329992  39.2334990  70.4879997
  40.9379992  39.8424990  70.9699997  42.1419992  38.4084990  71.1099997
  41.2029992  38.3624990  69.3419997  41.9079992  38.1144990  68.5199997
  40.3199992  38.8644990  68.8929997  40.7129992  37.0274990  69.8149997
  40.2839992  37.2164990  70.8219997  41.4919992  36.2514990  69.9719997
  39.5579992  36.3734990  68.9469997  38.7709992  37.1064990  68.6669997
  39.0389992  35.5644990  69.5049997  40.0739992  35.7204990  67.6489997
  39.2319992  35.2614990  67.0889997  40.7049992  34.8894990  68.0319997
  40.9119992  36.4984990  66.5489997  41.8659992  36.9294990  66.8869997
  40.4679992  36.6644990  65.2609997  41.2019992  37.1644990  64.6119997
  39.1189992  36.1734990  64.6949997  38.8329992  36.9034990  63.9079997
  38.3189992  36.0354990  65.4529997  39.3299992  34.8344990  63.9399997
  38.2909992  34.5224990  63.7019997  39.8579992  34.0954990  64.5799997
  40.0299992  34.9094990  62.5349997  41.0369992  35.3464990  62.7049997
  39.4409992  35.5864990  61.8809997  40.0709992  33.6294990  61.7429997
  39.0599992  33.3034990  61.4169997  40.2889992  32.7824990  62.4289997
  41.1569992  33.6094990  60.6129997  41.1079992  32.5854990  60.1839997
  42.1759992  33.5994990  61.0549997  41.0549992  34.7594990  59.6249997
  41.2459992  35.6514990  60.2599997  40.0319992  34.6164990  59.2149997
  42.1119992  34.6404990  58.4799997  41.7569992  33.8934990  57.7379997
  43.1039992  34.4154990  58.9279997  42.2129992  35.9834990  57.6839997
  42.2329992  36.8384990  58.3929997  41.2849992  36.2094990  57.1159997
  43.1829992  36.0444990  57.1459997  74.0489992  35.3554990  56.5749997
  74.1939992  36.4454990  56.7309997  73.0149992  35.2924990  56.1739997
  74.7979992  35.0634990  55.8079997  74.0649992  34.4454990  57.8679997
  73.3189992  33.6384990  57.7049997  75.0719992  33.9754990  57.8879997
  73.5669992  35.0534990  59.1289997  73.9629992  36.0784990  59.2919997
  72.4659992  35.1344990  59.0089997  73.7319992  34.1544990  60.3529997
  73.0959992  34.4714990  61.2069997  73.2919992  33.1914990  60.0169997
  75.1499992  33.8424990  60.8919997  74.9619992  32.8744990  61.4029997
  75.9269992  33.7444990  60.1039997  75.6039992  34.8444990  61.9469997
  75.6889992  35.8214990  61.4229997  74.8529992  34.9454990  62.7589997
  76.9499992  34.4434990  62.6719997  76.8389992  34.5814990  63.7689997
  77.1119992  33.3544990  62.5259997  78.1229992  35.3384990  62.2079997
  79.0709992  34.7684990  62.3129997  77.9889992  35.5844990  61.1329997
  78.1899992  36.7974990  62.8659997  78.7859992  37.4704990  62.2129997
  77.1439992  37.1704990  62.8359997  78.8299992  36.7024990  64.2329997
  78.2209992  36.0144990  64.8569997  79.8129992  36.2234990  64.0339997
  79.1329992  38.0654990  64.9609997  79.3829992  37.8824990  66.0279997
  79.8889992  38.6394990  64.3839997  77.9009992  38.9594990  64.9659997
  78.1999992  39.9284990  65.4179997  77.7039992  39.2734990  63.9179997
  76.6369992  38.4254990  65.6029997  75.9179992  39.2014990  65.2629997
  76.4259992  37.4674990  65.0809997  76.7749992  38.3264990  67.1209997
  77.3239992  37.3854990  67.3399997  77.4119992  39.1444990  67.5219997
  75.4399992  38.1984990  67.9539997  74.8719992  39.1454990  67.8329997
  74.8559992  37.3314990  67.5789997  75.6719992  37.9324990  69.4699997
  75.5409992  36.8634990  70.0149997  76.1379992  39.0784990  70.1409997
  76.1409992  38.9124990  71.5729997  76.4459992  37.9054990  71.9309997
  76.8819992  39.5824990  72.0579997  74.7379992  39.3254990  72.0789997
  74.4379992  40.2614990  71.5589997  74.8089992  39.7444990  73.5049997
  75.5809992  40.4954990  73.7779997  73.8329992  40.1644990  73.8309997
  74.8969992  38.5654990  74.3009997  75.4109992  38.6234990  75.7709997
  75.5129992  37.1294990  76.2089997  74.4519992  36.2064990  75.9719997
  74.6639992  35.3494990  76.6459997  73.4849992  36.7114990  76.1849997
  74.3539992  35.6874990  74.4719997  73.5209992  35.0014990  74.4229997
  74.1369992  36.4784990  73.7699997  75.5249992  34.8394990  73.9539997
  75.6129992  33.5714990  74.8109997  76.2509992  32.8364990  74.3439997
  75.9179992  33.7594990  75.8299997  74.6419992  33.0974990  74.8319997
  75.3989992  34.5834990  72.4909997  74.5869992  33.9144990  72.2479997
  75.3199992  35.5254990  71.9669997  76.2609992  34.0674990  72.0959997
  76.8149992  35.6394990  74.1699997  76.8499992  36.6604990  73.8199997
  77.6749992  35.0784990  73.8369997  76.9819992  35.6034990  75.2369997
  76.7179992  39.3114990  75.6749997  74.4599992  39.3204990  76.6459997
  73.8149992  38.2344990  71.9079997  72.5039992  38.5004990  71.7819997
  71.9909992  39.5674990  71.5869997  71.6959992  37.1924990  71.8749997
  70.6449992  37.5544990  71.8669997  71.8039992  36.7384990  72.8819997
  71.9499992  36.1814990  70.7419997  71.8329992  35.1474990  71.1309997
  73.0179992  36.3704990  70.5029997  71.0349992  36.3794990  69.5919997
  69.9579992  36.5184990  69.8249997  70.9799992  35.4254990  69.0249997
  71.5049992  37.4364990  68.5529997  72.4669992  37.0964990  68.1149997
  71.6209992  38.3844990  69.1209997  70.4359992  37.6464990  67.4239997
  69.3949992  37.7234990  67.8039997  70.5299992  36.8754990  66.6289997
  70.7199992  39.0594990  66.8889997  70.5999992  39.8844990  67.6239997
  69.9549992  39.3424990  66.1339997  72.0939992  39.1134990  66.1239997
  71.9379992  38.5164990  65.1999997  72.9509992  38.5994990  66.6099997
  72.4829992  40.5894990  65.9529997  72.6199992  40.9954990  66.9659997
  72.9069992  41.2924990  64.9609997  73.2209992  42.3404990  65.0789997
  73.1399992  40.8224990  63.5099997  72.5509992  41.4914990  62.8469997
  72.7349992  39.8014990  63.3399997  74.6209992  40.8354990  62.9989997
  75.1359992  39.9894990  63.5029997  75.2709992  41.6864990  63.2939997
  74.5669992  40.8294990  61.4189997  73.9519992  41.7094990  61.1319997
  74.0049992  39.9074990  61.1589997  75.9029992  40.5794990  60.8029997
  76.4919992  39.9154990  61.4699997  76.4449992  41.5454990  60.7079997
  75.8319992  39.9614990  59.3969997  75.4739992  40.7064990  58.6549997
  75.1749992  39.0834990  59.2189997  77.1529992  39.6904990  58.6599997
  77.7929992  39.0784990  59.3309997  77.7919992  40.5404990  58.3379997
  77.0219992  38.9484990  57.3359997  76.6789992  37.9034990  57.4919997
  78.0929992  39.0714990  57.0659997  76.2159992  39.6344990  56.1849997
  76.3969992  40.7304990  56.1979997  75.1399992  39.5264990  56.4399997
  76.4499992  39.2194990  55.1819997  79.3419992 106.4374990  56.5199997
  80.4279992 106.2354990  56.4049997  79.3299992 106.6924990  57.6009997
  78.9959992 107.3334990  55.9609997  78.6069992 105.1804990  56.1509997
  78.6809992 105.0104990  55.0549997  79.0289992 104.2524990  56.5899997
  77.1289992 105.1934990  56.6019997  76.6769992 104.1964990  56.4109997
  77.0299992 105.2434990  57.7079997  76.2769992 106.2934990  55.8449997
  76.5779992 107.2984990  56.2109997  76.1689992 106.2104990  54.7429997
  74.7309992 106.1304990  56.2889997  74.1049992 106.4344990  55.4229997
  74.5119992 105.0504990  56.4239997  74.1809992 106.9634990  57.5029997
  74.6549992 107.9614990  57.3849997  73.1119992 107.1734990  57.2839997
  74.3659992 106.4154990  58.9319997  73.7369992 105.5084990  59.0569997
  75.4029992 106.0184990  58.9619997  73.9289992 107.3354990  60.0599997
  74.4319992 108.3244990  60.0129997  72.8459992 107.5344990  59.9169997
  74.1369992 106.6824990  61.4239997  73.4569992 107.2754990  62.0729997
  73.8129992 105.6234990  61.3349997  75.5789992 106.8564990  61.9499997
  76.2389992 106.1794990  61.3659997  75.8839992 107.9224990  61.8759997
  75.7539992 106.6164990  63.5199997  75.2179992 105.6724990  63.7539997
  76.8429992 106.4934990  63.7069997  75.2299992 107.7464990  64.4529997
  75.6899992 108.7414990  64.2739997  74.1509992 107.8764990  64.2249997
  75.3579992 107.2804990  65.9249997  74.6879992 108.0184990  66.4159997
  74.8009992 106.3324990  66.0869997  76.7219992 107.1844990  66.6309997
  77.3179992 106.5014990  65.9879997  77.2309992 108.1674990  66.5389997
  76.6129992 106.6474990  68.0509997  75.8939992 107.3464990  68.5309997
  76.3199992 105.5784990  67.9859997  77.9999992 106.8044990  68.5529997
  79.0019992 106.4854990  67.9929997  78.0109992 107.4794990  69.7069997
  79.3599992 107.6854990  70.2069997  80.0139992 106.7924990  70.1099997
  79.8349992 108.5564990  69.7069997  79.2999992 108.1484990  71.7569997
  80.3499992 108.3834990  72.0359997  78.8189992 106.9184990  72.5669997
  79.4949992 106.0544990  72.3909997  78.8749992 107.2404990  73.6289997
  77.4599992 106.5474990  72.1839997  76.1989992 106.7354990  73.0119997
  76.6389992 107.5354990  74.2699997  76.7659992 107.1244990  75.5879997
  77.0339992 106.0504990  75.6839997  77.6899992 107.6224990  75.9539997
  75.5039992 107.5184990  76.4669997  74.6629992 106.9884990  76.0449997
  75.6019992 106.9484990  77.3789997  75.2329992 108.9284990  76.7449997
  76.3129992 109.4244990  77.6209997  77.2769992 109.0284990  77.3379997
  76.4009992 110.4994990  77.5519997  76.2879992 108.9714990  78.6009997
  75.3519992 109.8144990  75.5039997  74.6599992 109.4344990  74.7669997
  75.1109992 110.7734990  75.9389997  76.3439992 109.8294990  75.0769997
  73.8829992 109.0924990  77.3479997  73.7779992 108.5964990  78.3019997
  73.0989992 108.6974990  76.7209997  73.6979992 110.1554990  77.3899997
  75.1789992 107.5224990  72.3149997  75.7699992 105.3904990  73.4169997
  78.2939992 109.1644990  72.0349997  78.5239992 110.3904990  71.6579997
  79.5599992 110.8494990  71.0959997  77.2019992 111.1674990  71.7879997
  77.0989992 111.2594990  72.8899997  76.3489992 110.5604990  71.4139997
  77.1439992 112.5054990  71.0709997  77.8739992 113.1934990  71.5469997
  76.1069992 112.8824990  71.1999997  77.3939992 112.4974990  69.5669997
  78.4939992 112.3474990  69.6079997  77.1919992 113.4854990  69.0999997
  76.7899992 111.3934990  68.6569997  75.6929992 111.5644990  68.6979997
  76.8389992 110.4044990  69.1609997  77.1849992 111.4004990  67.1619997
  77.1199992 112.4594990  66.8339997  76.4319992 110.7454990  66.6729997
  78.5789992 110.7214990  66.9839997  78.4519992 109.7634990  67.5319997
  79.4679992 111.2624990  67.3749997  78.9289992 110.3814990  65.4909997
  78.1269992 109.6754990  65.1869997  79.8499992 109.7724990  65.6139997
  79.0999992 111.6084990  64.6229997  79.9969992 112.2314990  64.7519997
  78.1609992 112.1464990  63.7869997  78.3919992 113.0544990  63.2109997
  76.7339992 111.5834990  63.5599997  75.9459992 112.3004990  63.8749997
  76.7639992 110.6934990  64.2239997  76.4139992 111.1364990  62.0459997
  76.4309992 112.1254990  61.5409997  75.3849992 110.7254990  62.1239997
  77.4099992 110.2624990  61.2419997  77.6369992 109.3374990  61.8139997
  78.3349992 110.8774990  61.2059997  76.9909992 110.0224990  59.7569997
  76.3239992 110.8194990  59.3639997  76.3979992 109.0854990  59.8339997
  78.1579992 109.8654990  58.7319997  78.0159992 108.9244990  58.1589997
  79.1099992 109.8394990  59.3029997  78.4459992 111.0574990  57.7759997
  79.4159992 110.9484990  57.2449997  78.5929992 111.9004990  58.4839997
  77.3429992 111.4494990  56.7549997  76.4009992 111.6764990  57.2979997
  77.2229992 110.7154990  55.9299997  77.6109992 112.7204990  55.8729997
  76.6389992 112.9734990  55.3969997  78.5529992 112.5944990  55.2979997
  77.7769992 113.4184990  56.7209997  39.3819992  77.2594990  57.5499997
  38.2849992  77.2574990  57.7269997  39.9259992  77.2604990  58.5189997
  39.6099992  76.2674990  57.1049997  39.9309992  78.3964990  56.6749997
  41.0289992  78.5514990  56.7329997  39.5779992  78.3204990  55.6239997
  39.3519992  79.8304990  57.0469997  39.7809992  80.4684990  56.2449997
  38.2729992  79.8664990  56.7829997  39.5489992  80.3444990  58.4859997
  38.9329992  79.6644990  59.1129997  40.6239992  80.2024990  58.7269997
  39.2249992  81.8894990  58.5629997  39.5259992  82.4044990  57.6249997
  38.1349992  82.0754990  58.6739997  39.8719992  82.6924990  59.7619997
  40.9499992  82.4394990  59.6649997  39.8529992  83.7924990  59.6099997
  39.1959992  82.5134990  61.1749997  38.2059992  82.9844990  60.9979997
  39.0149992  81.4224990  61.2839997  40.0029992  83.0414990  62.3879997
  40.1449992  84.1374990  62.2759997  39.4059992  82.7474990  63.2779997
  41.4219992  82.5104990  62.7019997  42.0479992  82.9154990  61.8779997
  41.8849992  82.8084990  63.6659997  41.4949992  80.9564990  62.7409997
  41.2249992  80.5534990  61.7409997  42.5789992  80.7574990  62.8839997
  40.6369992  80.4124990  63.8299997  39.6129992  80.8374990  63.8909997
  40.4389992  79.3264990  63.7099997  41.2379992  80.5784990  65.2859997
  42.1329992  80.0154990  65.6269997  41.4189992  81.6704990  65.3779997
  40.1879992  80.1284990  66.3429997  40.6269992  80.3784990  67.3329997
  39.1969992  80.4804990  65.9849997  39.9869992  78.5044990  66.3919997
  39.7249992  78.0754990  65.4009997  41.0549992  78.2664990  66.5859997
  39.1099992  78.1154990  67.5599997  38.4249992  78.9234990  67.8939997
  38.5149992  77.2864990  67.1219997  39.7669992  77.5844990  68.8709997
  40.3419992  76.5404990  68.9399997  39.4709992  78.4204990  69.8829997
  40.1379992  78.1574990  71.1649997  39.4919992  78.5344990  71.9859997
  40.3739992  77.0794990  71.2959997  41.5179992  78.9374990  71.1439997
  42.0839992  78.3634990  70.3799997  42.2539992  78.7954990  72.5119997
  42.1899992  77.7354990  72.8409997  43.2879992  78.8464990  72.1089997
  41.9029992  79.7824990  73.4439997  42.3589992  79.5494990  74.9549997
  42.2869992  80.9794990  75.6229997  42.7789992  82.1314990  74.8599997
  43.3009992  82.7974990  75.5789997  43.5569992  81.8974990  74.1029997
  41.7179992  83.0024990  74.1339997  42.1759992  83.6564990  73.4069997
  41.1389992  82.3564990  73.4919997  40.6949992  83.7284990  74.9689997
  41.2739992  84.4184990  76.1809997  41.8179992  85.2334990  75.7279997
  40.4289992  84.9134990  76.6359997  41.8279992  83.7844990  76.8579997
  40.0809992  84.8024990  74.0949997  40.8229992  85.5774990  73.9709997
  39.8399992  84.4504990  73.1029997  39.2279992  85.2834990  74.5509997
  39.5869992  82.8074990  75.5579997  40.1549992  82.1494990  76.1989997
  39.1229992  82.2274990  74.7739997  38.7779992  83.3794990  75.9879997
  41.4859992  78.5844990  75.6989997  43.8239992  79.2044990  74.9549997
  41.3089992  80.3114990  70.8169997  42.3439992  80.9374990  70.3009997
  43.3669992  80.4924990  69.9089997  41.9019992  82.4174990  70.2039997
  41.7679992  82.8014990  71.2379997  40.9489992  82.5144990  69.6399997
  42.9819992  83.1674990  69.3689997  43.9669992  82.9384990  69.8299997
  42.7219992  84.2114990  69.6429997  43.1169992  82.9164990  67.8379997
  42.3589992  83.4534990  67.2289997  43.1339992  81.8194990  67.6669997
  44.4709992  83.4514990  67.2199997  45.3619992  82.9454990  67.6489997
  44.5479992  84.5424990  67.4109997  44.5319992  83.2644990  65.6799997
  43.7429992  83.8274990  65.1369997  44.3099992  82.1794990  65.5889997
  46.0039992  83.5334990  65.1089997  46.7279992  82.8714990  65.6309997
  46.3649992  84.5534990  65.3619997  46.1059992  83.1144990  63.6319997
  45.6799992  82.1064990  63.4439997  47.1919992  83.1864990  63.4049997
  45.3339992  84.1224990  62.7869997  44.7199992  84.8154990  63.3809997
  45.2369992  84.2754990  61.4459997  44.5599992  85.0354990  61.0309997
  46.0079992  83.4044990  60.5119997  47.0259992  83.2404990  60.9249997
  46.1759992  84.1174990  59.6769997  45.3619992  82.0734990  60.1399997
  45.1439992  81.5254990  61.0819997  46.1089992  81.4134990  59.6489997
  44.1089992  82.2954990  59.2929997  44.1329992  82.9724990  58.4119997
  43.4409992  82.7284990  60.0689997  43.4669992  80.9974990  58.7429997
  42.6249992  81.2894990  58.0799997  43.0289992  80.3184990  59.5059997
  44.3069992  80.0164990  57.9249997  43.6839992  79.0994990  57.9949997
  45.3469992  79.8324990  58.2689997  44.5369992  80.3844990  56.5359997
  45.2369992  81.2454990  56.4819997  43.6449992  80.8184990  56.0359997
  45.0859992  79.1864990  55.6849997  44.2819992  78.4194990  55.6639997
  46.0309992  78.8394990  56.1549997  45.4379992  79.4704990  54.1929997
  44.5409992  79.4184990  53.5399997  46.1039992  78.6424990  53.8689997
  45.8249992  80.4964990  54.0119997  87.7519992  46.3734990  56.1459997
  88.1119992  45.4754990  56.6909997  88.6019992  46.7324990  55.5269997
  86.8079992  46.0694990  55.6449997  87.5579992  47.6134990  57.0559997
  87.2939992  48.4824990  56.4159997  86.6709992  47.3374990  57.6659997
  88.6449992  47.9634990  58.0929997  89.6629992  48.0394990  57.6539997
  88.3559992  49.0044990  58.3509997  88.6619992  47.0674990  59.3159997
  89.0469992  47.6794990  60.1599997  87.7019992  46.5524990  59.5379997
  89.6819992  45.8654990  59.1859997  89.3379992  45.2894990  58.3009997
  90.6769992  46.2514990  58.8779997  89.8699992  44.9944990  60.4529997
  90.0409992  45.7344990  61.2639997  89.0229992  44.3034990  60.6479997
  91.1399992  44.1874990  60.4329997  91.0849992  43.5644990  59.5139997
  91.9549992  44.9254990  60.2779997  91.3629992  43.3604990  61.6829997
  92.3059992  42.8114990  61.4709997  91.5929992  43.9074990  62.6209997
  90.3249992  42.2444990  61.9349997  89.3649992  42.7654990  62.1379997
  90.3489992  41.6194990  61.0159997  90.5539992  41.3154990  63.1549997
  89.6909992  40.6154990  63.1819997  91.4209992  40.6374990  63.0069997
  90.7839992  42.1404990  64.4429997  91.5869992  42.8934990  64.2929997
  89.7459992  42.4654990  64.6679997  91.2779992  41.2284990  65.5409997
  90.6199992  40.3334990  65.5709997  92.2239992  40.7134990  65.2699997
  91.3159992  41.8654990  66.9289997  91.8359992  42.8464990  66.8739997
  90.2379992  42.1034990  67.0579997  91.7289992  40.9444990  68.0309997
  91.2709992  39.9594990  67.7969997  92.8129992  40.7814990  67.8489997
  91.5119992  41.4184990  69.4989997  90.4099992  41.5104990  69.6089997
  91.8329992  40.7174990  70.2989997  92.1509992  42.8004990  69.8019997
  93.3369992  42.9684990  69.6829997  91.2409992  43.7684990  69.9739997
  91.8059992  45.1044990  70.1229997  92.8729992  45.1144990  70.4319997
  91.9249992  45.5534990  69.1139997  91.0299992  45.8764990  71.2499997
  91.4709992  46.8744990  71.4589997  91.0109992  45.1444990  72.6499997
  92.0059992  44.6814990  72.8219997  90.6759992  45.9064990  73.3859997
  90.1119992  44.0864990  72.5409997  89.5519992  43.3854990  73.9119997
  89.1539992  44.5814990  74.8339997  88.1789992  45.4514990  74.2609997
  88.3589992  46.4874990  74.6179997  88.1219992  45.5704990  73.1579997
  86.6819992  45.0484990  74.6519997  85.9809992  45.6894990  74.1389997
  86.4929992  44.0064990  74.4399997  86.3409992  45.0144990  76.1569997
  84.9649992  44.4884990  76.3729997  84.8309992  43.4564990  76.0839997
  84.6819992  44.3954990  77.4109997  84.3209992  45.0374990  75.7019997
  87.2609992  43.9904990  76.8129997  87.0909992  43.9724990  77.8789997
  87.1049992  43.0144990  76.3769997  88.2749992  44.3204990  76.6399997
  86.5359992  46.3414990  76.8409997  85.7029992  46.9484990  76.5179997
  87.4649992  46.8074990  76.5469997  86.4909992  46.1814990  77.9079997
  88.3979992  42.5304990  73.5769997  90.6689992  42.6494990  74.5099997
  89.6609992  46.1114990  70.8229997  89.4229992  46.9324990  69.7479997
  90.1749992  47.3374990  68.9099997  87.8399992  46.9444990  69.6759997
  87.6259992  47.8774990  69.1119997  87.3619992  46.8184990  70.6699997
  87.4059992  45.6384990  68.9519997  86.3039992  45.5164990  68.8869997
  87.7649992  44.7054990  69.4369997  87.7049992  45.6624990  67.3909997
  88.7779992  45.7654990  67.1209997  87.1189992  46.5574990  67.0899997
  87.0829992  44.5314990  66.4889997  85.9979992  44.5574990  66.7279997
  87.6269992  43.5844990  66.6869997  87.4319992  44.8824990  65.0169997
  88.5239992  44.7064990  64.9119997  87.0539992  45.8844990  64.7209997
  86.7729992  43.9614990  63.9779997  86.8649992  42.8984990  64.2869997
  87.2469992  44.1074990  62.9839997  85.3029992  44.3014990  63.7609997
  84.9519992  44.5944990  64.7739997  84.7059992  43.4614990  63.3469997
  85.2869992  45.5344990  62.8609997  85.8669992  46.3454990  63.3249997
  84.6529992  45.6124990  61.7179997  84.7469992  46.6314990  61.3139997
  83.8089992  44.6084990  60.9809997  82.7539992  44.9544990  61.0239997
  83.7469992  43.6284990  61.5009997  84.1179992  44.2884990  59.5089997
  83.9109992  45.2354990  58.9669997  83.4729992  43.4354990  59.2059997
  85.5679992  43.7434990  59.1809997  85.9229992  43.2284990  60.0989997
  86.1929992  44.6494990  59.0249997  85.6729992  42.9514990  57.9309997
  85.3699992  43.5544990  57.0479997  85.0059992  42.0634990  57.9539997
  87.1429992  42.4544990  57.6159997  87.7059992  43.4094990  57.6989997
  87.0229992  42.0944990  56.5719997  87.6239992  41.4784990  58.5549997
  86.9049992  40.6644990  58.7839997  87.8809992  42.0094990  59.4969997
  88.8979992  40.7484990  57.9449997  89.2129992  39.9564990  58.6589997
  89.7499992  41.4364990  57.7589997  88.6629992  39.9184990  56.6559997
  89.6169992  39.3714990  56.4959997  88.3559992  40.5114990  55.7679997
  87.8499992  39.1904990  56.8659997  38.3269992  50.0654990  57.5249997
  37.5469992  49.2864990  57.6639997  38.7459992  50.3234990  58.5209997
  38.9819992  49.7344990  56.6919997  37.4959992  51.2014990  56.9439997
  38.1779992  52.0764990  56.8699997  37.2009992  50.9194990  55.9109997
  36.2349992  51.4544990  57.8379997  35.5769992  50.5864990  57.6189997
  36.4479992  51.4294990  58.9279997  35.6299992  52.8664990  57.6859997
  36.2139992  53.6374990  58.2319997  35.7369992  53.0634990  56.5979997
  34.1339992  53.0114990  58.0579997  33.8699992  54.0354990  57.7179997
  33.5269992  52.2554990  57.5149997  34.0009992  53.0054990  59.5949997
  34.5259992  52.1744990  60.1119997  34.5139992  53.9084990  59.9899997
  32.5159992  52.9664990  60.1739997  31.9599992  53.8334990  59.7569997
  31.9199992  52.1554990  59.7029997  32.4069992  52.8984990  61.6839997
  33.0799992  53.7534990  61.9069997  31.3389992  53.1024990  61.9149997
  32.9899992  51.7164990  62.3729997  33.0679992  50.8764990  61.6509997
  33.9759992  51.9504990  62.8269997  32.0279992  51.1544990  63.4459997
  31.7579992  52.0564990  64.0359997  31.1459992  50.8304990  62.8519997
  32.6359992  49.9584990  64.2019997  32.6199992  49.1924990  63.3979997
  33.6489992  50.2314990  64.5659997  31.8899992  49.3814990  65.3969997
  30.8209992  49.6674990  65.2949997  31.9029992  48.2704990  65.4059997
  32.4609992  49.8744990  66.7049997  33.5449992  49.6924990  66.5429997
  32.3429992  50.9784990  66.6999997  31.7679992  49.2874990  67.9029997
  30.6909992  49.5374990  68.0169997  31.8029992  48.1784990  67.8329997
  32.3469992  49.7934990  69.2509997  32.3439992  50.9024990  69.1879997
  31.6709992  49.4834990  70.0769997  33.7749992  49.3054990  69.4759997
  34.7729992  49.7564990  68.8959997  33.8099992  48.2634990  70.2889997
  35.1079992  47.8584990  70.7239997  35.0099992  46.8244990  71.1179997
  35.8329992  47.9284990  69.8849997  35.5419992  48.5364990  72.0369997
  36.4099992  48.0164990  72.4949997  34.4359992  48.5654990  73.1169997
  33.9039992  47.5914990  73.1509997  34.8599992  48.6384990  74.1419997
  33.3749992  49.4994990  72.8089997  33.2269992  50.8444990  73.7189997
  34.4039992  50.7704990  74.7459997  35.0999992  51.9684990  75.0789997
  35.5729992  52.3184990  74.1369997  34.4529992  52.8334990  75.3359997
  36.0519992  51.8134990  76.2639997  36.5869992  52.7474990  76.3539997
  35.5189992  51.7074990  77.1969997  37.1249992  50.7834990  76.1019997
  38.1789992  51.0124990  77.1419997  37.9899992  50.8544990  78.1929997
  39.0759992  50.4334990  76.9819997  38.6429992  51.9824990  77.0479997
  36.6289992  49.3914990  76.3679997  37.4209992  48.7684990  75.9779997
  36.3889992  49.2574990  77.4119997  35.7139992  49.2454990  75.8119997
  37.7409992  50.8774990  74.7979997  38.1629992  51.8714990  74.7729997
  37.1089992  50.6174990  73.9609997  38.6769992  50.3394990  74.8009997
  33.3919992  52.0834990  72.9069997  32.0449992  50.7804990  74.5389997
  35.8279992  49.9154990  71.8469997  37.0529992  50.2304990  71.3629997
  37.7429992  49.4354990  70.7659997  37.1839992  51.7444990  71.3449997
  37.7279992  52.0764990  72.2549997  36.1479992  52.1434990  71.3049997
  37.9769992  52.3184990  70.1539997  38.9689992  51.8214990  70.0919997
  38.1689992  53.4084990  70.2429997  37.4059992  52.0094990  68.8379997
  36.3139992  52.2004990  68.7559997  37.5479992  50.9804990  68.4439997
  38.0829992  52.9424990  67.7799997  39.1239992  52.5564990  67.7989997
  38.0399992  53.9984990  68.1239997  37.4829992  52.9564990  66.3639997
  38.3229992  53.3164990  65.7319997  36.6009992  53.6094990  66.1919997
  36.9699992  51.5834990  65.9059997  36.1509992  51.3204990  66.6089997
  37.7899992  50.8334990  65.9279997  36.5849992  51.7444990  64.4499997
  36.0649992  52.7144990  64.2959997  35.7909992  51.0254990  64.1519997
  37.7309992  51.5984990  63.3729997  38.5569992  52.3164990  63.4789997
  37.8519992  50.5434990  62.5019997  38.7859992  50.4934990  61.9239997
  37.0009992  49.3314990  62.3229997  36.0969992  49.4314990  62.9599997
  37.4899992  48.3784990  62.6189997  36.4879992  49.2424990  60.9039997
  37.3299992  49.1704990  60.1829997  35.9689992  50.2064990  60.7119997
  35.4809992  48.1334990  60.6729997  34.8519992  48.2314990  61.5829997
  35.9619992  47.1334990  60.7359997  34.6659992  48.3474990  59.3419997
  35.2729992  48.1314990  58.4369997  34.3309992  49.4054990  59.2929997
  33.4029992  47.5764990  59.3949997  32.6269992  48.0474990  60.0349997
  33.4989992  46.5214990  59.7309997  32.8809992  47.5644990  57.9729997
  31.8509992  47.1494990  57.9579997  33.6209992  46.9704990  57.3949997
  32.7039992  48.9134990  57.2879997  33.7089992  49.2684990  56.9739997
  32.3299992  49.6384990  58.0429997  31.7979992  48.9484990  56.0929997
  32.1259992  48.2344990  55.3079997  31.7689992  49.9454990  55.6029997
  30.7419992  48.7824990  56.3949997  61.6059992  23.7894990  57.3589997
  61.1529992  24.7064990  57.7939997  60.7569992  23.0994990  57.1649997
  62.1579992  24.0964990  56.4449997  62.6789992  23.0894990  58.2619997
  62.1919992  23.2414990  59.2489997  62.8019992  22.0114990  58.0219997
  64.1469992  23.5524990  58.1729997  64.6269992  23.5304990  57.1709997
  64.1019992  24.6004990  58.5369997  64.9609992  22.7714990  59.1749997
  65.0749992  21.6934990  58.9319997  65.9839992  23.2044990  59.2009997
  64.4779992  22.9094990  60.6359997  63.7089992  23.7084990  60.7119997
  63.9479992  21.9764990  60.9219997  65.5459992  23.0754990  61.7449997
  65.0329992  22.9954990  62.7269997  66.3009992  22.2614990  61.6999997
  66.2599992  24.4654990  61.6319997  67.1949992  24.4864990  61.0329997
  65.6769992  25.1974990  61.0329997  66.7389992  25.1104990  62.9239997
  67.4009992  24.3694990  63.4199997  67.2749992  26.0454990  62.6539997
  65.6919992  25.5124990  63.9609997  64.8599992  26.1214990  63.5469997
  65.2819992  24.5684990  64.3779997  66.2619992  26.2664990  65.1769997
  67.2249992  25.8214990  65.5079997  66.5209992  27.2794990  64.8009997
  65.3919992  26.2704990  66.4339997  64.3209992  26.4014990  66.1719997
  65.4439992  25.2564990  66.8859997  65.9029992  27.1894990  67.5299997
  67.0019992  27.0234990  67.5219997  65.7549992  28.2614990  67.2779997
  65.5369992  26.8354990  69.0119997  66.0519992  27.5644990  69.6739997
  64.4439992  26.7364990  69.1809997  66.0679992  25.4894990  69.4699997
  65.5559992  24.5964990  69.0509997  67.1639992  25.4054990  69.3089997
  65.7009992  25.2474990  70.9929997  64.6299992  25.3784990  71.2569997
  65.7989992  24.1624990  71.2119997  66.5729992  26.1184990  71.8529997
  67.7849992  26.1444990  71.8679997  65.8119992  26.8594990  72.7169997
  66.5979992  27.8124990  73.4499997  67.5059992  27.4204990  73.9559997
  67.0359992  28.4594990  72.6609997  65.5839992  28.4074990  74.3739997
  65.9489992  29.4114990  74.6779997  65.4019992  27.4834990  75.5949997
  66.3789992  27.2764990  76.0809997  64.6489992  27.9904990  76.2359997
  64.8899992  26.1934990  75.1029997  64.7839992  25.1844990  76.2449997
  63.7699992  24.1094990  75.6629997  63.6509992  23.7464990  74.2599997
  64.6769992  23.6814990  73.8379997  63.0999992  22.7844990  74.3269997
  62.7919992  24.6814990  73.4349997  63.2769992  25.6454990  73.3869997
  62.7919992  24.2624990  72.4399997  61.3639992  24.9894990  73.8779997
  60.5739992  23.7004990  74.0679997  60.9649992  23.0574990  74.8429997
  59.6009992  24.0984990  74.3179997  60.6669992  23.1444990  73.1469997
  61.4209992  25.8244990  75.1029997  61.9919992  25.3734990  75.9019997
  61.8029992  26.8284990  74.9899997  60.3699992  25.8614990  75.3509997
  60.8029992  25.7944990  72.7499997  59.7299992  25.8414990  72.8649997
  60.9469992  25.2944990  71.8029997  61.2319992  26.7754990  72.6059997
  66.1149992  24.5994990  76.5209997  64.1599992  25.8054990  77.4459997
  64.3129992  28.5034990  73.6729997  64.2759992  29.4194990  72.6579997
  65.0409992  30.3544990  72.5259997  63.0869992  29.1734990  71.7659997
  62.1789992  29.3884990  72.3689997  63.0669992  28.1494990  71.3349997
  62.8879992  30.1994990  70.6689997  63.8269992  30.3244990  70.0879997
  62.5449992  31.1434990  71.1439997  61.7379992  29.9894990  69.6459997
  61.8989992  30.6944990  68.8019997  60.8589992  30.2074990  70.2889997
  61.7409992  28.5344990  69.0399997  61.4249992  27.8084990  69.8199997
  62.7609992  28.3414990  68.6459997  60.8389992  28.4514990  67.7659997
  60.9399992  29.4704990  67.3349997  59.7989992  28.4534990  68.1559997
  61.2499992  27.3394990  66.7889997  61.4489992  26.4144990  67.3719997
  62.1479992  27.6474990  66.2119997  60.1989992  27.0314990  65.6619997
  59.2319992  26.7194990  66.1099997  60.6139992  26.1714990  65.0939997
  59.8339992  28.2114990  64.7909997  59.4479992  29.1154990  65.2859997
  59.8709992  28.1954990  63.4379997  59.5879992  29.1554990  62.9829997
  60.2799992  27.0394990  62.5819997  59.3649992  26.7354990  62.0299997
  60.6829992  26.1754990  63.1519997  61.3809992  27.4144990  61.5569997
  61.0439992  28.3644990  61.0889997  61.3409992  26.5594990  60.8489997
  62.7289992  27.4384990  62.2009997  63.1379992  26.4144990  62.3329997
  62.5159992  27.8264990  63.2209997  63.8199992  28.2824990  61.5299997
  64.7299992  28.5264990  62.1199997  63.3479992  29.2694990  61.3379997
  64.2649992  27.6994990  60.2189997  63.5259992  28.1854990  59.5469997
  64.0919992  26.6024990  60.2349997  65.7949992  27.7914990  59.9289997
  66.3499992  27.3194990  60.7679997  66.2009992  28.8154990  59.7899997
  66.1669992  26.9954990  58.7269997  65.4049992  26.2644990  58.3819997
  67.0979992  26.5084990  59.0879997  66.5629992  27.9664990  57.5609997
  67.0279992  28.9174990  57.8979997  65.6509992  28.2044990  56.9729997
  67.3099992  27.5754990  56.8369997  65.2519992 108.5194990  55.4709997
  64.7729992 108.8074990  54.5119997  65.7089992 107.5224990  55.2909997
  66.0009992 109.2744990  55.7919997  63.9799992 108.3644990  56.4259997
  64.1619992 108.9244990  57.3689997  63.0799992 108.8004990  55.9429997
  63.3509992 106.9754990  56.7249997  63.3139992 106.5304990  55.7079997
  63.9109992 106.3354990  57.4399997  61.8329992 107.1644990  57.2119997
  61.2699992 107.8824990  56.5789997  61.3759992 106.1514990  57.1989997
  61.7569992 107.8654990  58.5549997  62.6099992 107.4674990  59.1439997
  61.9459992 108.9534990  58.4279997  60.4339992 107.7774990  59.2119997
  59.7709992 108.4704990  58.6499997  60.0509992 106.7424990  59.0829997
  60.4609992 108.1314990  60.6729997  61.1719992 107.3934990  61.1019997
  60.9439992 109.1144990  60.8639997  59.1169992 108.1614990  61.3459997
  58.6399992 109.1154990  61.0359997  58.5439992 107.2644990  61.0239997
  59.1199992 108.2474990  62.8949997  59.5399992 107.3414990  63.3819997
  59.8569992 109.0634990  63.0569997  57.7549992 108.4764990  63.4759997
  57.1679992 109.2494990  62.9339997  57.1269992 107.5604990  63.5079997
  57.8699992 108.9744990  64.9729997  58.4889992 109.8914990  65.0749997
  56.8299992 109.1924990  65.2989997  58.5049992 107.8964990  65.9679997
  57.8839992 106.9954990  65.7779997  59.4369992 107.5124990  65.4999997
  58.7609992 108.2164990  67.4019997  57.9399992 108.9174990  67.6639997
  58.8109992 107.2824990  68.0019997  60.1039992 108.9134990  67.5789997
  60.0959992 109.7534990  66.8519997  60.0959992 109.3774990  68.5879997
  61.2749992 107.9714990  67.2309997  60.9479992 106.9514990  67.5299997
  61.5619992 107.9874990  66.1579997  62.5169992 108.4204990  67.9859997
  63.6799992 108.2944990  67.6159997  62.1779992 108.7974990  69.2609997
  63.3029992 109.3104990  69.9359997  64.0269992 108.4794990  70.0759997
  63.7249992 110.1494990  69.3419997  62.9369992 109.7904990  71.3939997
  63.8079992 110.1194990  71.9989997  62.1949992 108.6324990  72.2449997
  62.5999992 107.6314990  71.9839997  62.4409992 108.7104990  73.3259997
  60.7869992 108.6364990  72.1189997  59.9199992 107.4954990  72.7749997
  59.8349992 107.9974990  74.3199997  59.9099992 107.0384990  75.3809997
  58.9029992 106.9894990  75.8489997  60.2519992 106.0384990  75.0389997
  60.8859992 107.5594990  76.4549997  60.6009992 106.9134990  77.2729997
  61.9199992 107.3814990  76.1979997  60.8789992 109.0224990  76.9829997
  61.9699992 109.0634990  78.0289997  61.6209992 108.7314990  78.9959997
  62.8689992 108.5414990  77.7369997  62.2159992 110.1064990  78.1679997
  61.2369992 110.0034990  75.8899997  60.4869992 109.9544990  75.1139997
  61.3799992 110.9694990  76.3519997  62.0949992 109.6844990  75.3179997
  59.4939992 109.3524990  77.5719997  58.7309992 109.3184990  76.8089997
  59.5579992 110.3634990  77.9459997  59.3979992 108.7084990  78.4339997
  58.5169992 107.4884990  72.2829997  60.7169992 106.2274990  72.6649997
  61.9929992 110.9104990  71.4029997  62.4399992 112.1054990  70.9629997
  63.5559992 112.2684990  70.4789997  61.3619992 113.1824990  70.9979997
  61.8959992 114.1414990  70.8249997  61.0109992 113.1944990  72.0519997
  60.1749992 113.0104990  70.0059997  59.3139992 113.7074990  70.0929997
  59.8739992 111.9774990  70.2839997  60.5479992 112.8724990  68.5409997
  61.3849992 112.1444990  68.4779997  60.9099992 113.8614990  68.1879997
  59.3589992 112.6764990  67.6249997  58.5679992 113.3954990  67.9309997
  58.8649992 111.7004990  67.8169997  59.7449992 112.8294990  66.1339997
  60.2349992 111.8624990  65.8879997  60.3949992 113.6974990  65.8919997
  58.5619992 112.8514990  65.1529997  57.8429992 113.6554990  65.4189997
  58.0659992 111.8844990  65.3849997  58.7649992 113.1174990  63.6629997
  59.2079992 114.1324990  63.5659997  57.8739992 113.1774990  63.0019997
  59.6839992 112.0414990  63.0549997  59.4399992 111.0064990  63.3339997
  60.6899992 112.1784990  62.1419997  61.4179992 111.3634990  62.0089997
  61.1629992 113.4364990  61.5029997  62.2039992 113.3214990  61.1309997
  61.1649992 114.3214990  62.1749997  60.4339992 113.8664990  60.2139997
  61.0369992 114.6834990  59.7619997  59.4099992 114.2454990  60.4189997
  60.2979992 112.7834990  59.1109997  59.7709992 111.9024990  59.5369997
  61.2449992 112.4284990  58.6519997  59.4659992 113.2114990  57.9139997
  60.0169992 114.0784990  57.4909997  58.3869992 113.2684990  58.1729997
  59.4699992 112.1074990  56.8059997  58.7159992 112.3864990  56.0389997
  58.9809992 111.1384990  57.0439997  60.8179992 111.9394990  56.0789997
  61.5249992 111.2234990  56.5499997  61.2819992 112.9484990  56.1079997
  60.7369992 111.5904990  54.6469997  60.0509992 112.2894990  54.1219997
  60.3799992 110.5494990  54.4959997  62.1319992 111.6254990  54.0359997
  62.4989992 112.6734990  54.0769997  62.0939992 111.3534990  52.9599997
  62.8059992 111.0004990  54.6589997  30.1299992  74.9824990  57.1349997
  29.5349992  74.3784990  56.4179997  29.9019992  74.4494990  58.0829997
  31.2009992  74.9304990  56.8449997  29.6169992  76.3914990  57.0889997
  29.8369992  76.9334990  56.1439997  28.5069992  76.3584990  57.0609997
  30.1719992  77.2354990  58.2579997  31.2789992  77.3324990  58.2359997
  29.8139992  78.2664990  58.0519997  29.6129992  76.7874990  59.6909997
  28.5259992  76.6124990  59.5439997  30.0589992  75.8754990  60.1419997
  29.7169992  77.8894990  60.7489997  29.0709992  78.7684990  60.5409997
  29.5489992  77.4454990  61.7539997  31.1939992  78.3884990  61.0379997
  31.8479992  77.4924990  61.0899997  31.6719992  78.9114990  60.1819997
  31.4369992  79.4454990  62.1219997  30.8659992  78.9944990  62.9619997
  32.5089992  79.3634990  62.4029997  30.9649992  80.8884990  61.8779997
  31.4179992  81.1994990  60.9129997  29.8569992  80.8524990  61.8049997
  31.4169992  81.7914990  63.0759997  32.5149992  81.9434990  63.0059997
  30.9779992  82.7594990  62.7529997  31.0039992  81.2154990  64.3299997
  29.9099992  81.0234990  64.3419997  31.5589992  80.3424990  64.7329997
  31.3909992  82.1564990  65.4849997  32.4879992  82.2494990  65.6349997
  31.1859992  83.1574990  65.0479997  30.6279992  81.8974990  66.8459997
  30.9409992  82.6634990  67.5869997  29.5289992  82.0204990  66.7379997
  30.9429992  80.5944990  67.5529997  31.2339992  79.7564990  66.8839997
  31.8709992  80.8174990  68.1209997  29.8489992  80.2244990  68.5009997
  29.6289992  81.0744990  69.1819997  28.9339992  80.0394990  67.8989997
  30.1279992  79.2064990  69.6319997  30.2699992  78.2354990  69.1099997
  31.0899992  79.4804990  70.1149997  28.9019992  78.9324990  70.5449997
  27.7739992  78.9054990  70.1479997  29.3239992  78.7404990  71.7909997
  28.4419992  78.8254990  72.8449997  28.1409992  79.8484990  73.1539997
  27.4719992  78.4124990  72.4939997  28.9019992  77.8664990  73.9459997
  28.0309992  77.6954990  74.6149997  30.0659992  78.4844990  74.7659997
  30.9689992  78.5504990  74.1229997  29.7929992  79.5554990  74.8809997
  30.2519992  77.8414990  76.0479997  31.7289992  77.4684990  76.6039997
  32.2239992  76.2954990  75.6449997  33.5349992  75.7204990  75.6979997
  34.0339992  75.9664990  76.6589997  33.4839992  74.6254990  75.5179997
  34.5189992  76.4614990  74.7269997  34.4849992  77.5114990  74.9749997
  35.4669992  75.9494990  74.8119997  34.1219992  76.4474990  73.2329997
  32.8219992  77.0414990  72.8789997  32.7499992  78.0314990  73.3049997
  32.8919992  77.1314990  71.8049997  31.9669992  76.4174990  73.0909997
  35.2819992  77.1784990  72.4779997  36.1679992  76.5884990  72.6599997
  35.0369992  77.2664990  71.4299997  35.3389992  78.1714990  72.8989997
  34.1009992  75.0264990  72.7479997  33.2029992  74.6354990  73.2019997
  35.0149992  74.5114990  73.0029997  33.8499992  75.0194990  71.6979997
  32.5679992  78.6814990  76.4159997  31.5719992  76.9854990  77.9949997
  29.3179992  76.6564990  73.3969997  28.4199992  75.8234990  72.9519997
  27.1929992  75.9454990  73.0439997  29.1929992  74.6484990  72.3389997
  28.4749992  73.8624990  72.0189997  29.9919992  74.2674990  73.0099997
  29.9939992  75.2464990  71.1489997  30.6509992  76.1044990  71.4069997
  29.2119992  75.6044990  70.4459997  30.7899992  74.1754990  70.4549997
  30.0549992  73.4104990  70.1239997  31.4159992  73.7164990  71.2489997
  31.3419992  74.5104990  69.0479997  32.0429992  73.6904990  68.7829997
  31.9439992  75.4434990  69.0759997  30.2209992  74.6524990  68.0419997
  29.6679992  75.5754990  68.3189997  29.4329992  73.8764990  68.1429997
  30.7809992  74.7374990  66.6239997  31.4949992  73.9184990  66.3929997
  31.4299992  75.6294990  66.7589997  29.8339992  75.1664990  65.4879997
  29.0239992  75.8794990  65.7529997  29.3259992  74.2044990  65.2639997
  30.4989992  75.8544990  64.3419997  30.5309992  76.9524990  64.3829997
  31.0629992  75.2164990  63.3229997  31.4259992  75.8594990  62.5069997
  31.2099992  73.7884990  62.9929997  30.7469992  73.4894990  62.0279997
  30.6359992  73.1664990  63.7119997  32.5939992  73.2104990  63.0889997
  32.5769992  72.1064990  62.9609997  33.0579992  73.4644990  64.0659997
  33.5829992  73.7824990  62.0649997  34.5249992  73.1994990  62.1489997
  33.8229992  74.8184990  62.3859997  33.1969992  73.8904990  60.6019997
  32.1549992  74.2714990  60.5429997  33.1749992  72.8374990  60.2489997
  34.2459992  74.6364990  59.7669997  33.9629992  74.3514990  58.7309997
  35.2729992  74.3284990  60.0589997  33.9219992  76.1224990  59.8379997
  34.1389992  76.3374990  60.9069997  32.8529992  76.3304990  59.6179997
  34.8059992  76.9354990  58.8769997  35.8429992  76.7284990  59.2179997
  34.7599992  78.0434990  58.9379997  34.6729992  76.6854990  57.4179997
  33.6699992  76.8144990  56.9579997  34.8819992  75.6244990  57.1639997
  35.2489992  77.3024990  56.6949997  69.7129992  31.4044990  58.1729997
  70.5299992  30.8974990  57.6169997  69.2779992  32.1964990  57.5259997
  68.9169992  30.6544990  58.3649997  70.4389992  32.0734990  59.3899997
  71.0269992  32.8734990  58.8929997  69.6749992  32.5754990  60.0219997
  71.2499992  31.1814990  60.3669997  70.5869992  30.5844990  61.0279997
  71.9779992  30.5084990  59.8669997  72.1159992  31.9944990  61.4409997
  73.1529992  31.6324990  61.6099997  72.2449992  33.0744990  61.2129997
  71.3869992  32.0884990  62.7809997  71.4079992  31.0284990  63.1139997
  71.8719992  32.6754990  63.5889997  69.8609992  32.6324990  62.7029997
  69.8349992  33.6294990  62.2129997  69.3589992  31.8674990  62.0739997
  69.1639992  32.5044990  64.0609997  69.5679992  33.0794990  64.9209997
  68.1749992  32.9984990  63.9539997  68.8999992  31.1054990  64.4499997
  68.1989992  30.6054990  63.7479997  69.7879992  30.4774990  64.6779997
  68.0999992  31.1074990  65.7729997  68.6779992  31.6794990  66.5299997
  67.1339992  31.6394990  65.6419997  67.7679992  29.7144990  66.2659997
  67.1999992  30.0024990  67.1759997  67.0519992  29.2364990  65.5639997
  69.0029992  28.8624990  66.6089997  69.4049992  28.8254990  65.5739997
  69.5849992  29.4114990  67.3789997  68.5889992  27.4704990  67.2209997
  67.9039992  27.4724990  68.0949997  67.9219992  27.0514990  66.4379997
  69.7699992  26.4974990  67.5649997  69.3719992  25.7914990  68.3249997
  70.1969992  25.9974990  66.6689997  70.9779992  27.2474990  68.2199997
  71.5459992  27.7044990  67.3819997  70.4769992  27.8514990  69.0069997
  72.0819992  26.3174990  68.7519997  71.7149992  25.5694990  69.4869997
  72.4289992  25.6134990  67.9649997  73.3199992  27.0534990  69.3009997
  73.8999992  27.9174990  68.7039997  73.4449992  26.8074990  70.6419997
  74.1969992  27.7844990  71.4139997  74.6879992  27.1324990  72.1679997
  74.9749992  28.3644990  70.8729997  73.2799992  28.7244990  72.2269997
  74.0439992  29.2664990  72.8249997  72.3499992  27.6954990  73.0049997
  71.7059992  27.0774990  72.3439997  72.8939992  27.1294990  73.7909997
  71.4269992  28.5544990  73.7239997  70.7179992  28.0514990  74.9899997
  70.1709992  29.3954990  75.8139997  71.1659992  30.3534990  76.1109997
  70.8979992  30.7504990  77.1139997  72.2069992  29.9854990  76.2349997
  71.1209992  31.6484990  75.2599997  71.6769992  32.3884990  75.8159997
  71.7499992  31.4704990  74.3999997  69.7749992  32.2374990  74.7099997
  68.8319992  32.4454990  75.8339997  68.4949992  31.4624990  76.1289997
  69.3029992  32.8544990  76.7149997  67.9819992  33.0524990  75.5609997
  70.1309992  33.5834990  74.1339997  70.8389992  33.3634990  73.3489997
  69.3359992  34.0104990  73.5419997  70.5489992  34.1574990  74.9479997
  69.2519992  31.3404990  73.6499997  68.3429992  31.6384990  73.1499997
  69.1619992  30.3374990  74.0409997  70.0499992  31.1774990  72.9409997
  69.5459992  27.2374990  74.4689997  71.6769992  27.2364990  75.7739997
  72.5619992  29.5494990  71.3369997  73.2289992  30.5954990  70.8149997
  74.3399992  30.9744990  71.2129997  72.4239992  31.2344990  69.6929997
  71.7029992  31.7904990  70.3289997  71.8739992  30.4984990  69.0679997
  73.3329992  32.2184990  68.9159997  73.9089992  32.9884990  69.4719997
  72.6399992  32.8164990  68.2869997  74.3629992  31.3734990  68.1509997
  73.8969992  30.3874990  67.9389997  75.3509992  31.3194990  68.6549997
  74.5419992  31.9854990  66.7449997  74.8049992  33.0644990  66.7229997
  73.6669992  31.8184990  66.0819997  75.7209992  31.2624990  66.0399997
  75.5859992  30.1594990  66.0449997  76.6199992  31.4854990  66.6529997
  76.0319992  31.7874990  64.6369997  77.1049992  31.5654990  64.4569997
  75.9049992  32.8854990  64.7479997  75.1699992  31.1444990  63.5949997
  75.1659992  31.7924990  62.6929997  74.1119992  31.1134990  63.9299997
  75.5719992  29.7434990  63.2569997  76.6059992  29.6234990  62.9019997
  74.9459992  28.5494990  63.5249997  75.4479992  27.6464990  63.1469997
  73.6089992  28.3004990  64.2149997  73.3059992  29.2414990  64.7219997
  73.7669992  27.5044990  64.9739997  72.5869992  27.8014990  63.1449997
  73.0819992  26.9964990  62.5599997  72.4059992  28.6604990  62.4649997
  71.3279992  27.3194990  63.8089997  71.0229992  28.1984990  64.4159997
  71.6549992  26.4724990  64.4499997  70.2159992  26.8764990  62.8669997
  69.7469992  27.7434990  62.3529997  69.4989992  26.4274990  63.5879997
  70.5149992  25.8294990  61.8229997  69.7379992  25.0424990  61.9349997
  71.4839992  25.3884990  62.1389997  70.5489992  26.3714990  60.3569997
  71.5389992  26.8434990  60.1789997  69.7619992  27.1504990  60.2629997
  70.4629992  25.2164990  59.3619997  69.6679992  24.5084990  59.6789997
  71.4249992  24.6614990  59.3719997  70.2189992  25.7074990  57.9259997
  71.0529992  26.3074990  57.5039997  69.2439992  26.2334990  57.8379997
  69.9529992  24.9274990  57.1809997  51.5699992  24.1614990  58.7989997
  50.8969992  24.0984990  57.9169997  51.5609992  23.2804990  59.4769997
  52.5419992  24.1944990  58.2629997  51.4289992  25.3864990  59.6519997
  52.1019992  25.1604990  60.5069997  51.7449992  26.2804990  59.0729997
  49.9899992  25.6694990  60.0929997  49.8719992  26.6994990  60.4919997
  49.3439992  25.6204990  59.1899997  49.3869992  24.7054990  61.1469997
  48.2909992  24.5764990  61.0179997  49.9209992  23.7374990  61.0399997
  49.5889992  25.1434990  62.5729997  50.6439992  25.2134990  62.9139997
  49.0739992  26.1204990  62.6939997  49.0639992  24.1964990  63.6779997
  49.0169992  24.7394990  64.6459997  48.0119992  23.9494990  63.4189997
  49.8379992  22.8954990  63.7759997  49.9699992  22.3704990  62.8069997
  50.8029992  23.3114990  64.1359997  49.4459992  21.9504990  64.9149997
  49.1249992  22.6344990  65.7279997  48.5969992  21.3644990  64.5019997
  50.6239992  21.0994990  65.4389997  50.9039992  20.3294990  64.6879997
  51.4449992  21.7884990  65.7319997  50.2219992  20.3624990  66.7349997
  51.0989992  19.8424990  67.1769997  49.7189992  21.1184990  67.3749997
  49.1889992  19.2354990  66.4299997  48.2089992  19.5594990  66.0179997
  49.6589992  18.5404990  65.7019997  48.8849992  18.3034990  67.6589997
  48.5459992  17.3224990  67.2629997  49.8729992  18.1474990  68.1409997
  47.7149992  18.7194990  68.6099997  46.8109992  18.9434990  68.0049997
  47.4289992  17.7944990  69.1549997  48.0459992  19.8144990  69.6329997
  48.3029992  20.8154990  69.2249997  47.0249992  19.9374990  70.0539997
  49.1179992  19.4204990  70.6479997  48.6549992  19.6014990  71.6419997
  49.3539992  18.3354990  70.6079997  50.4469992  20.1624990  70.6559997
  50.9189992  20.6944990  69.6749997  50.7709992  20.4374990  71.9159997
  51.9769992  21.1044990  72.1249997  52.5359992  20.5374990  72.8989997
  52.5759992  21.3534990  71.2229997  51.7369992  22.4694990  72.7709997
  52.7179992  22.9884990  72.8309997  51.0639992  22.4114990  74.1749997
  50.3129992  21.6054990  74.0319997  51.8539992  22.2504990  74.9389997
  50.2839992  23.5644990  74.5449997  49.3719992  23.4504990  75.8979997
  47.9489992  23.0024990  75.3379997  47.2489992  23.6424990  74.2619997
  46.5859992  24.4554990  74.6279997  47.9489992  24.0174990  73.4839997
  46.3939992  22.5994990  73.4599997  45.8449992  23.0764990  72.6609997
  47.0239992  21.9424990  72.8789997  45.3849992  21.7164990  74.2149997
  44.4959992  20.9054990  73.3219997  45.0979992  20.0954990  72.9359997
  43.7229992  20.5064990  73.9619997  44.0459992  21.4414990  72.4989997
  46.1049992  20.7254990  75.1079997  45.3759992  20.1384990  75.6469997
  46.7739992  20.1514990  74.4849997  46.6609992  21.2974990  75.8359997
  44.5019992  22.5394990  75.1999997  43.8959992  23.1644990  74.5629997
  45.0709992  23.1244990  75.9079997  43.7829992  21.9004990  75.6909997
  49.9979992  22.4494990  76.7339997  49.2729992  24.8334990  76.3899997
  50.9339992  23.3004990  71.9169997  51.4139992  24.0894990  70.9329997
  52.6059992  24.1524990  70.6089997  50.2449992  24.8504990  70.3389997
  50.2529992  25.8684990  70.7839997  49.3329992  24.2974990  70.6479997
  50.4769992  24.7884990  68.8149997  50.9499992  23.8514990  68.4499997
  51.1329992  25.6324990  68.5109997  49.1239992  24.8674990  68.0389997
  48.4439992  24.0914990  68.4499997  49.2249992  24.4204990  67.0259997
  48.4599992  26.2344990  68.2219997  49.0279992  26.8194990  67.4669997
  48.5009992  26.7944990  69.1809997  47.0079992  26.1774990  67.7289997
  46.8209992  25.5794990  66.8109997  46.7009992  27.1344990  67.2559997
  46.0089992  25.5814990  68.7409997  45.2929992  26.3774990  69.0369997
  46.4839992  25.3214990  69.7109997  45.2069992  24.4054990  68.1649997
  44.8579992  24.7314990  67.1619997  44.2629992  24.3854990  68.7499997
  45.7449992  22.9894990  68.2039997  45.9299992  22.6594990  69.2369997
  45.9979992  22.1684990  67.1939997  46.5289992  21.2174990  67.3429997
  45.8119992  22.5314990  65.7529997  46.7319992  23.0784990  65.4529997
  44.9509992  23.2114990  65.5819997  45.5959992  21.3434990  64.8479997
  44.6279992  20.8454990  65.0689997  46.4309992  20.6134990  64.7849997
  45.5509992  21.7714990  63.3659997  46.4489992  22.3324990  63.0309997
  44.7019992  22.4804990  63.2689997  45.4609992  20.5434990  62.4159997
  44.6019992  19.8714990  62.6279997  46.4459992  20.0434990  62.5269997
  45.1829992  20.9164990  60.9039997  44.2539992  21.5194990  61.0009997
  44.8979992  19.9234990  60.4959997  46.3089992  21.6044990  60.1189997
  47.1289992  20.8664990  59.9889997  46.6719992  22.3964990  60.8079997
  45.8559992  22.2044990  58.7959997  46.7219992  22.6974990  58.3049997
  45.1879992  23.0434990  59.0879997  44.9659992  21.3314990  57.8359997
  44.9559992  21.8174990  56.8359997  43.9499992  21.1524990  58.2489997
  45.4889992  20.3724990  57.6359997  95.9319992  93.2184990  55.1499997
  95.7989992  94.3044990  54.9569997  96.0719992  92.7354990  54.1589997
  96.7839992  93.0784990  55.8499997  94.6409992  92.5354990  55.6819997
  93.7389992  92.7134990  55.0569997  94.8169992  91.4394990  55.6509997
  94.4069992  92.8654990  57.1759997  95.2209992  92.3454990  57.7259997
  94.4809992  93.9344990  57.4679997  93.2529992  92.1104990  57.6789997
  92.3369992  92.4104990  57.1279997  93.4509992  91.0494990  57.4129997
  92.9509992  92.3794990  59.1749997  92.1049992  91.7164990  59.4569997
  93.7429992  91.8844990  59.7779997  92.9169992  93.8604990  59.6869997
  93.9509992  94.2354990  59.8429997  92.4359992  94.4244990  58.8599997
  92.0259992  94.0034990  60.9339997  91.0239992  93.5554990  60.7629997
  92.5409992  93.4514990  61.7499997  91.7929992  95.4034990  61.4169997
  91.1049992  96.0184990  60.7989997  91.3659992  95.3294990  62.4399997
  93.0869992  96.2964990  61.4289997  93.5319992  96.2754990  60.4119997
  92.7429992  97.3054990  61.7419997  94.2239992  95.7624990  62.3659997
  94.3239992  94.6714990  62.1839997  95.0949992  96.4414990  62.2509997
  93.8819992  95.8544990  63.8659997  93.0249992  95.1564990  63.9799997
  94.7339992  95.3044990  64.3189997  93.7359992  97.2264990  64.4369997
  94.6409992  97.7774990  64.1029997  92.9589992  97.8734990  63.9759997
  93.6209992  97.3324990  66.0269997  93.6099992  98.4104990  66.2949997
  92.5999992  96.9654990  66.2659997  94.7909992  96.7044990  66.8059997
  94.9529992  95.6434990  66.5209997  95.7699992  97.1454990  66.5189997
  94.5309992  96.8564990  68.2799997  95.4829992  96.6664990  68.8199997
  94.1419992  97.8784990  68.4749997  93.6239992  95.8424990  68.8339997
  93.1969992  94.8324990  68.2159997  93.4309992  96.1054990  70.1149997
  92.6599992  95.0604990  70.8519997  92.4989992  95.5454990  71.8379997
  91.7299992  94.9294990  70.2579997  93.6079992  93.8094990  71.1519997
  93.4599992  93.1814990  70.2479997  93.0399992  93.0434990  72.3289997
  92.3809992  93.7044990  72.9319997  92.3649992  92.2364990  71.9709997
  94.0769992  92.4884990  73.1589997  94.3599992  93.1924990  74.5439997
  94.6399992  94.6604990  74.1719997  94.4309992  95.7414990  75.0569997
  94.1019992  96.5804990  74.4069997  93.6019992  95.5464990  75.7699997
  95.6069992  96.1534990  75.9239997  95.2029992  97.0884990  76.2809997
  95.6509992  95.5954990  76.8469997  97.0059992  96.3944990  75.3539997
  97.0569992  97.5994990  74.5129997  96.5739992  98.4084990  75.0399997
  98.0769992  97.7484990  74.1929997  96.4259992  97.4814990  73.6439997
  97.9569992  96.5264990  76.5709997  97.3769992  96.8964990  77.4039997
  98.1539992  95.5254990  76.9239997  98.8719992  97.0904990  76.4649997
  97.6049992  95.1414990  74.6759997  97.1259992  94.7644990  73.7839997
  97.4449992  94.4034990  75.4479997  98.6539992  95.3474990  74.5209997
  93.0339992  93.2494990  75.2299997  95.5259992  92.6424990  75.2739997
  94.9589992  94.3324990  71.2779997  95.8529992  93.4854990  71.0339997
  95.7699992  92.3574990  70.5459997  97.1549992  94.0404990  71.5059997
  97.4509992  93.4734990  72.4149997  96.9589992  95.1274990  71.6229997
  98.2399992  93.8944990  70.4249997  98.2789992  92.8104990  70.1859997
  99.2379992  94.2044990  70.8039997  97.9989992  94.5744990  69.0909997
  98.1139992  95.6634990  69.2749997  96.9619992  94.4804990  68.7039997
  98.9649992  94.1284990  68.0389997  98.9199992  93.0184990  68.0199997
  99.9949992  94.5114990  68.2029997  98.5099992  94.5974990  66.6649997
  98.4189992  95.7044990  66.6839997  97.4859992  94.2114990  66.4749997
  99.4709992  94.1914990  65.5289997  99.7629992  93.1204990  65.5049997
 100.3709992  94.8264990  65.6709997  98.7689992  94.3164990  64.1359997
  98.1289992  93.4084990  64.1539997  99.5959992  94.2034990  63.4019997
  97.8329992  95.5934990  64.0329997  97.0819992  95.7114990  64.8289997
  97.8379992  96.4134990  62.9979997  97.1459992  97.2664990  63.0519997
  98.6859992  96.3164990  61.7259997  99.6239992  95.7334990  61.8449997
  99.0549992  97.3514990  61.5649997  97.8579992  95.9584990  60.4789997
  97.3389992  94.9764990  60.5009997  98.5619992  95.8724990  59.6239997
  96.8869992  97.0164990  59.9669997  97.4489992  97.9434990  59.7269997
  96.0859992  97.1584990  60.7229997  96.2139992  96.6314990  58.6159997
  95.5409992  97.4784990  58.3639997  95.6659992  95.6814990  58.7919997
  97.2289992  96.4744990  57.4529997  96.6409992  96.3934990  56.5139997
  97.8779992  95.5784990  57.5559997  98.2369992  97.6224990  57.3269997
  98.9889992  97.5384990  58.1409997  97.6479992  98.5634990  57.3619997
  99.0409992  97.3394990  56.0739997  98.5199992  97.5074990  55.1069997
  99.3349992  96.2704990  56.1389997 100.4389992  97.9144990  56.0929997
 100.9629992  97.6474990  55.1499997 101.1019992  97.5024990  56.8839997
 100.5039992  99.0234990  56.1009997  47.7399992  97.5894990  57.2469997
  47.0779992  96.8124990  57.6849997  48.0339992  97.4334990  56.1869997
  47.2829992  98.6014990  57.1979997  49.0239992  97.5924990  58.1389997
  49.6459992  96.6904990  57.9529997  49.5729992  98.5424990  57.9689997
  48.7369992  97.5164990  59.6379997  48.1129992  98.3394990  60.0479997
  48.0709992  96.6284990  59.6869997  49.9449992  97.3594990  60.4629997
  50.2759992  96.3154990  60.2729997  50.7789992  98.0234990  60.1519997
  49.6999992  97.5284990  61.9309997  50.6289992  97.3584990  62.5159997
  49.4019992  98.5954990  62.0099997  48.6739992  96.7234990  62.7179997
  48.7279992  96.9854990  63.7959997  47.6999992  97.0784990  62.3179997
  48.8779992  95.2154990  62.6929997  49.1129992  94.8584990  61.6669997
  49.7969992  94.9054990  63.2349997  47.6659992  94.3804990  63.1379997
  46.7189992  94.7284990  62.6729997  47.6769992  93.2794990  62.9939997
  47.3779992  94.4274990  64.6199997  47.2369992  95.5184990  64.7769997
  46.5089992  93.8484990  64.9999997  48.5999992  93.9994990  65.4939997
  48.5719992  92.8904990  65.5409997  49.5569992  94.3104990  65.0239997
  48.5229992  94.6304990  66.8929997  47.4559992  94.7634990  67.1729997
  48.9009992  93.9184990  67.6579997  49.2969992  95.9774990  66.8989997
  50.3129992  95.8364990  66.4709997  48.7729992  96.7144990  66.2539997
  49.5539992  96.5304990  68.4159997  50.0019992  95.6764990  68.9679997
  50.3859992  97.2514990  68.5649997  48.2399992  96.9674990  69.1109997
  47.6529992  97.8124990  68.6929997  47.5649992  96.0884990  69.0309997
  48.5059992  97.2324990  70.5889997  47.6409992  96.9284990  71.2159997
  49.4199992  96.7404990  70.9839997  48.5129992  98.7004990  70.9229997
  47.8589992  99.5384990  70.3309997  49.2999992  98.9354990  71.9349997
  49.3679992 100.2804990  72.4849997  50.3689992 100.5314990  72.8969997
  49.1309992 101.1484990  71.8329997  48.4029992 100.3294990  73.7049997
  48.6309992 101.2974990  74.1999997  48.5949992  99.0824990  74.6519997
  48.1299992  98.4234990  73.8879997  49.6829992  98.8624990  74.7149997
  47.7929992  99.1474990  75.8589997  47.3529992  97.7604990  76.4869997
  46.5189992  97.0754990  75.3839997  45.1719992  97.3124990  75.2339997
  44.5489992  96.8004990  75.9979997  44.8849992  98.3774990  75.0989997
  44.7539992  96.6864990  73.9019997  43.6809992  96.7254990  73.7929997
  45.0559992  97.4264990  73.1759997  45.0299992  95.2804990  73.4109997
  46.5199992  95.1934990  73.0759997  46.7019992  95.9244990  72.3019997
  47.0019992  95.4604990  74.0049997  46.7389992  94.1554990  72.8769997
  44.8779992  94.2994990  74.5609997  45.6639992  94.4874990  75.2779997
  43.9429992  94.4724990  75.0719997  44.9129992  93.2414990  74.3489997
  44.1309992  94.8664990  72.2879997  44.2569992  93.8104990  72.1019997
  44.2889992  95.5274990  71.4489997  43.0819992  94.9334990  72.5389997
  48.6059992  96.9664990  76.5399997  46.5979992  98.0554990  77.7309997
  47.0159992 100.3314990  73.2439997  46.1429992 100.9034990  74.0579997
  46.2989992 101.4944990  75.1249997  44.7619992 100.8154990  73.3879997
  44.5249992 101.8654990  73.1129997  43.9569992 100.6184990  74.1269997
  44.4939992 100.0234990  71.9929997  44.6579992  98.9774990  72.3289997
  45.2949992 100.2254990  71.2499997  43.0849992 100.2584990  71.4059997
  43.0439992 101.3354990  71.1349997  42.2969992 100.0394990  72.1589997
  42.8039992  99.4444990  70.1799997  43.5749992  99.5344990  69.3849997
  41.8479992  99.8244990  69.7599997  42.7289992  97.9734990  70.6389997
  42.1109992  97.8174990  71.5489997  43.7669992  97.6154990  70.8069997
  41.9519992  96.9714990  69.7179997  40.9079992  97.3434990  69.7899997
  41.9689992  95.9954990  70.2489997  42.3429992  96.8764990  68.2509997
  42.3039992  97.9474990  67.9559997  41.5869992  96.2614990  67.7169997
  43.7169992  96.2224990  67.9889997  43.9309992  95.2594990  68.4759997
  44.6979992  96.8174990  67.1789997  45.6279992  96.2464990  67.0469997
  44.7229992  98.1314990  66.3569997  45.5649992  98.7884990  66.6619997
  43.8349992  98.7274990  66.6579997  44.8219992  97.9754990  64.8459997
  44.3169992  97.0504990  64.4949997  45.8839992  97.9704990  64.5209997
  44.1359992  99.1584990  64.0869997  44.6159992 100.1334990  64.3169997
  43.1469992  99.2564990  64.5839997  43.9809992  99.0544990  62.5859997
  43.2779992  99.7874990  62.1359997  43.6369992  98.0184990  62.3789997
  45.2929992  99.1064990  61.7119997  45.9229992  98.2054990  61.8729997
  45.9279992  99.9094990  62.1439997  45.1149992  99.5114990  60.1679997
  44.7019992  98.6574990  59.5899997  46.1189992  99.7764990  59.7719997
  44.2969992 100.8104990  59.9229997  44.5989992 101.5734990  60.6719997
  43.2269992 100.6704990  60.1889997  44.4579992 101.2954990  58.4919997
  44.2939992 102.3884990  58.3809997  43.6829992 100.8304990  57.8459997
  45.4569992 101.0804990  58.0549997 102.0289992  90.8174990  56.6809997
 102.3589992  89.7694990  56.8459997 102.9339992  91.2364990  56.1899997
 101.2439992  91.0464990  55.9289997 101.5109992  91.6114990  57.8859997
 101.3399992  92.6374990  57.4969997 100.5359992  91.1224990  58.0969997
 102.5589992  91.6694990  58.9819997 103.4909992  91.2134990  58.5859997
 102.7069992  92.6894990  59.3969997 102.0479992  90.8174990  60.1549997
 101.9009992  89.7554990  59.8639997 102.7899992  90.9614990  60.9699997
 100.6819992  91.3244990  60.6159997 100.5599992  92.4244990  60.5189997
  99.8809992  90.8694990  59.9939997 100.4699992  90.9794990  62.0799997
 101.1699992  91.5304990  62.7439997  99.5139992  91.4124990  62.4449997
 100.3719992  89.5664990  62.3369997  99.3489992  89.1924990  62.1209997
 100.9659992  89.0214990  61.5719997 100.8839992  89.1244990  63.7659997
 101.0819992  88.0384990  63.6419997 101.8259992  89.6764990  63.9709997
  99.7919992  89.2504990  64.7819997  99.9119992  90.3014990  65.1219997
  98.7589992  89.2134990  64.3759997  99.9579992  88.2604990  65.9399997
  99.1129992  88.3434990  66.6559997  99.9799992  87.1884990  65.6489997
 101.2269992  88.6564990  66.8029997 102.1229992  88.4754990  66.1709997
 101.1089992  89.7264990  67.0779997 101.5249992  87.8484990  68.0839997
 100.7979992  88.1324990  68.8749997 101.4319992  86.7654990  67.8509997
 102.9309992  88.1114990  68.6059997 103.0969992  89.2104990  68.6349997
 102.8929992  87.9204990  69.6999997 104.0699992  87.2364990  68.0829997
 103.6329992  86.2344990  67.8909997 104.4049992  87.7124990  67.1369997
 105.2759992  87.1054990  69.0699997 105.0149992  86.6904990  70.0669997
 106.1539992  86.5474990  68.6789997 105.7649992  88.4834990  69.4449997
 106.7119992  89.0394990  68.9419997 105.0669992  88.9044990  70.4199997
 105.4849992  90.0684990  71.1359997 105.8609992  89.7734990  72.1389997
 106.2069992  90.7084990  70.5849997 104.1019992  90.8004990  71.4419997
 104.2039992  91.7294990  72.0419997 103.1779992  89.8634990  72.3039997
 103.2589992  88.8434990  71.8709997 103.6929992  89.7294990  73.2789997
 101.9009992  90.3854990  72.4179997 101.3119992  90.9854990  73.7929997
 102.0809992  90.1334990  74.9679997 101.3739992  89.2574990  75.8319997
 100.8249992  89.8664990  76.5819997 100.6119992  88.7904990  75.1719997
 102.2029992  88.2794990  76.6899997 102.8699992  88.7704990  77.3819997
 101.5229992  87.7464990  77.3379997 102.9699992  87.2054990  75.9129997
 101.8469992  86.5574990  75.0839997 101.1939992  85.9504990  75.6919997
 101.2719992  87.3214990  74.5809997 102.3029992  85.8884990  74.3689997
 104.0839992  87.7044990  75.1119997 103.7599992  88.5714990  74.5559997
 104.8329992  88.0844990  75.7909997 104.5399992  87.0034990  74.4289997
 103.5229992  86.2534990  76.8589997 103.9369992  85.4194990  76.3129997
 102.7189992  85.9264990  77.5029997 104.3429992  86.7584990  77.3469997
 101.7529992  92.4024990  73.9339997  99.8209992  90.6994990  73.8699997
 103.4549992  91.1744990  70.1269997 103.9849992  92.0114990  69.3519997
 105.0749992  92.6154990  69.5689997 103.1139992  92.2454990  68.1329997
 102.1859992  92.7824990  68.4249997 102.7389992  91.3074990  67.6709997
 103.8879992  93.1264990  67.1429997 104.3149992  94.0854990  67.5049997
 103.2219992  93.5644990  66.3689997 104.9809992  92.4704990  66.2559997
 105.8649992  92.1314990  66.8359997 105.3759992  93.2514990  65.5709997
 104.4389992  91.2374990  65.5209997 103.5679992  91.5184990  64.8909997
 104.0309992  90.5064990  66.2519997 105.4689992  90.4444990  64.6899997
 105.7019992  90.9284990  63.7169997 104.8409992  89.5614990  64.4469997
 106.7269992  89.9674990  65.4549997 106.3919992  89.6274990  66.4589997
 107.4039992  90.8074990  65.7199997 107.6299992  88.9834990  64.6999997
 108.5799992  88.8214990  65.2529997 107.7879992  89.3594990  63.6669997
 106.8919992  87.6414990  64.6459997 106.8839992  87.0924990  65.5989997
 106.3659992  87.0534990  63.5099997 105.8919992  86.0614990  63.5549997
 106.3889992  87.6784990  62.1379997 107.0649992  87.1164990  61.4579997
 106.8569992  88.6834990  62.0659997 105.0969992  88.1394990  61.4659997
 105.2699992  88.7154990  60.5319997 104.5509992  88.8934990  62.0739997
 104.1009992  87.0424990  61.2589997 103.1529992  87.4834990  60.8839997
 103.6359992  86.6334990  62.1819997 104.6249992  85.8734990  60.4739997
 105.2289992  85.2244990  61.1429997 105.1909992  86.3084990  59.6219997
 103.5699992  84.8064990  59.8339997 103.2189992  84.2894990  60.7529997
 104.1549992  84.0544990  59.2619997 102.3469992  85.4954990  59.1269997
 102.5369992  86.5324990  58.7749997 101.6149992  85.4594990  59.9619997
 101.7769992  84.8514990  57.8849997 100.7709992  85.2954990  57.7229997
 101.4919992  83.7854990  58.0139997 102.5139992  85.1724990  56.6029997
 102.3999992  86.2394990  56.3159997 102.0209992  84.6364990  55.7639997
 103.5759992  84.8874990  56.7589997  49.0269992 105.8834990  55.8259997
  48.6859992 106.4284990  54.9199997  50.0869992 106.2024990  55.9209997
  48.5289992 106.4224990  56.6609997  48.6179992 104.3434990  55.8389997
  48.7999992 103.8214990  56.8029997  47.5399992 104.3474990  55.5709997
  49.4309992 103.4014990  54.8219997  49.3949992 103.9864990  53.8779997
  50.4579992 103.3704990  55.2449997  49.0059992 101.9974990  54.4609997
  48.0669992 102.0004990  53.8679997  49.7519992 101.3764990  53.9189997
  48.7359992 101.2034990  55.7379997  47.9099992 101.7064990  56.2849997
  48.3629992 100.1854990  55.4929997  49.8899992 101.0424990  56.7219997
  50.8019992 100.5244990  56.3549997  50.1279992 102.0834990  57.0309997
  49.5219992 100.3164990  58.0519997  48.5339992 100.6634990  58.4249997
  49.3599992  99.2234990  57.9399997  50.5859992 100.6214990  59.1299997
  50.2179992 100.0054990  59.9779997  51.5939992 100.2024990  58.9219997
  50.6589992 102.0364990  59.6379997  51.2269992 102.1324990  60.5869997
  51.3539992 102.6074990  58.9859997  49.2799992 102.7234990  59.8779997
  49.5069992 103.7944990  60.0669997  48.6419992 102.6104990  58.9749997
  48.5419992 102.2524990  61.1359997  47.5279992 102.7054990  61.1119997
  48.3359992 101.1674990  61.2599997  49.2159992 102.6574990  62.3969997
  50.0059992 101.9034990  62.6039997  49.5599992 103.7124990  62.4439997
  48.3399992 102.5104990  63.6399997  47.5679992 103.3104990  63.6369997
  47.9019992 101.4944990  63.5379997  49.1089992 102.6514990  65.0069997
  49.9639992 101.9474990  65.0849997  49.7089992 103.5674990  64.8189997
  48.2309992 102.7984990  66.2119997  47.5779992 103.6754990  66.0169997
  47.6379992 101.8614990  66.2789997  49.1329992 102.8334990  67.3809997
  50.2569992 103.2954990  67.2829997  48.5129992 102.4434990  68.4989997
  49.2359992 102.7934990  69.7529997  50.2649992 103.1684990  69.5649997
  48.6279992 103.5544990  70.2879997  49.2219992 101.4864990  70.6189997
  48.2009992 101.0494990  70.6069997  49.6859992 101.5124990  72.1129997
  49.4869992 102.4314990  72.7059997  49.1499992 100.6944990  72.6399997
  51.0489992 101.2114990  72.2319997  52.0139992 102.3794990  72.7119997
  51.4999992 102.7484990  74.1789997  51.3029992 101.6554990  75.1209997
  50.3329992 101.6584990  75.6639997  51.4949992 100.7074990  74.5749997
  52.4329992 101.7524990  76.3169997  52.1629992 100.9424990  76.9779997
  53.3249992 101.4664990  75.7799997  52.5339992 103.0714990  77.0819997
  52.9169992 104.2194990  76.1659997  52.1169992 104.6894990  75.6139997
  53.3409992 104.9094990  76.8819997  53.7559992 103.9154990  75.5569997
  51.1649992 103.4114990  77.6509997  50.3579992 103.5294990  76.9429997
  50.9399992 102.6494990  78.3829997  51.2519992 104.3044990  78.2509997
  53.5599992 102.9614990  78.1409997  53.3129992 102.2114990  78.8789997
  53.6709992 103.9114990  78.6409997  54.4849992 102.7054990  77.6459997
  53.3829992 101.9324990  72.9759997  51.8179992 103.6004990  71.8949997
  50.1899992 100.6524990  69.9539997  49.8319992  99.4984990  69.4789997
  48.7699992  98.9634990  69.6579997  50.9909992  98.9394990  68.5769997
  51.2389992  97.8684990  68.7339997  51.9019992  99.4534990  68.9499997
  50.7089992  99.3664990  67.0849997  50.5709992 100.4424990  66.8459997
  49.7759992  98.8554990  66.7649997  51.9269992  98.8624990  66.2359997
  52.2229992  97.8064990  66.4129997  52.8129992  99.4934990  66.4609997
  51.6479992  98.8624990  64.7009997  50.9689992  99.7124990  64.4769997
  51.0919992  97.9274990  64.4759997  52.9989992  98.9104990  63.9799997
  53.4579992  97.9194990  64.1829997  53.6959992  99.6254990  64.4669997
  52.8459992  99.3974990  62.5299997  53.5179992 100.2544990  62.3109997
  51.9129992  99.9404990  62.2679997  52.9499992  98.3044990  61.4119997
  52.4259992  98.8044990  60.5699997  52.2339992  97.4714990  61.5769997
  54.2959992  97.7584990  61.2209997  54.4529992  96.7464990  61.6209997
  55.4189992  98.3834990  60.7149997  56.2779992  97.7304990  60.4969997
  55.5649992  99.7874990  60.2229997  56.2499992 100.4564990  60.7869997
  54.5549992 100.2384990  60.1189997  56.0669992  99.7874990  58.7649997
  55.3729992  99.1724990  58.1529997  57.0759992  99.3414990  58.6309997
  56.0059992 101.2344990  58.1999997  56.9869992 101.7334990  58.3509997
  55.2249992 101.8364990  58.7099997  55.5219992 101.3584990  56.6969997
  54.5549992 100.8534990  56.4869997  56.3079992 100.8704990  56.0809997
  55.3059992 102.8654990  56.3409997  56.2699992 103.4174990  56.3839997
  54.6359992 103.3094990  57.1079997  54.7239992 103.0024990  54.8819997
  54.4609992 104.0714990  54.7289997  53.8499992 102.3424990  54.6949997
  55.6459992 102.6244990  53.7059997  55.0819992 102.7264990  52.7539997
  56.1939992 101.6624990  53.7919997  56.6079992 103.7494990  53.5539997
  56.9759992 103.9134990  54.5899997  56.1299992 104.6564990  53.1259997
  57.4289992 103.5034990  52.8469997 109.0979992  78.1934990  58.3399997
 109.5149992  79.0764990  58.8699997 108.2689992  78.6314990  57.7429997
 109.8489992  77.7254990  57.6669997 108.5389992  77.2814990  59.3839997
 107.6789992  77.7404990  59.9159997 108.0979992  76.3734990  58.9199997
 109.5149992  76.7864990  60.4349997 110.2119992  77.6304990  60.6239997
 108.9639992  76.6144990  61.3839997 110.3109992  75.5274990  59.9799997
 110.7019992  75.7394990  58.9619997 111.1139992  75.3034990  60.7139997
 109.5079992  74.1784990  59.9589997 108.6659992  74.2694990  59.2399997
 110.2879992  73.4184990  59.7409997 108.7859992  73.9574990  61.2849997
 108.1299992  74.8254990  61.5079997 108.0789992  73.1014990  61.3409997
 109.7419992  73.7764990  62.5229997 110.3569992  72.8704990  62.3349997
 110.3539992  74.7024990  62.4799997 108.9249992  73.6744990  63.8059997
 109.6799992  73.8724990  64.5959997 108.0629992  74.3734990  63.8649997
 108.3699992  72.2914990  64.1969997 107.8189992  71.9074990  63.3119997
 109.2669992  71.6424990  64.2859997 107.5269992  72.2724990  65.4739997
 106.5349992  72.7294990  65.2689997 107.3599992  71.2244990  65.8019997
 108.0049992  72.9774990  66.7439997 109.1049992  72.9164990  66.8829997
 107.7989992  74.0514990  66.5509997 107.0979992  72.7274990  67.9679997
 106.0359992  73.0194990  67.8189997 107.1289992  71.6574990  68.2659997
 107.6409992  73.4894990  69.1469997 107.9119992  74.5624990  69.0509997
 106.9159992  73.5284990  69.9869997 108.8549992  72.7274990  69.6889997
 108.5639992  71.6984990  69.9909997 109.5709992  72.6124990  68.8479997
 109.6079992  73.5604990  70.7579997 109.0309992  74.1534990  71.4999997
 110.1419992  72.8094990  71.3779997 110.7499992  74.3974990  70.1799997
 111.1059992  74.5754990  69.0349997 111.2599992  75.0084990  71.2599997
 112.3939992  75.8634990  71.0699997 113.1799992  75.7134990  71.8409997
 112.8219992  75.7404990  70.0519997 111.8639992  77.3724990  71.3359997
 112.7419992  78.0314990  71.1629997 111.4009992  77.5974990  72.7879997
 112.2199992  77.2934990  73.4739997 111.1779992  78.6744990  72.9429997
 110.2409992  76.7764990  73.1729997 109.3719992  77.3394990  74.4319997
 109.0629992  76.0174990  75.2819997 108.8329992  74.7574990  74.6909997
 108.4079992  74.0214990  75.4059997 108.2949992  74.9684990  73.7419997
 110.1939992  74.0854990  74.3729997 109.9439992  73.2534990  73.7299997
 110.8629992  74.7134990  73.8039997 111.0079992  73.5964990  75.5609997
 111.5329992  74.7044990  76.4509997 112.0139992  74.1344990  77.2319997
 112.2219992  75.2974990  75.8679997 110.6559992  75.2764990  76.7149997
 110.2849992  72.6384990  76.4929997 109.9239992  71.8414990  75.8589997
 110.9359992  72.1474990  77.2009997 109.5219992  73.1874990  77.0249997
 112.1179992  72.9374990  74.7939997 111.7059992  72.2014990  74.1199997
 112.8909992  72.5644990  75.4489997 112.6369992  73.6534990  74.1739997
 110.2779992  78.1974990  75.2999997 108.0969992  77.9104990  73.9219997
 110.8369992  77.7094990  70.3859997 110.3549992  78.9714990  70.2089997
 110.8519992  79.9804990  70.7499997 109.0089992  79.0524990  69.4459997
 109.1289992  79.9504990  68.8019997 108.2219992  78.9794990  70.2269997
 108.8029992  77.8924990  68.3759997 107.7179992  77.9094990  68.1389997
 109.0929992  76.9024990  68.7879997 109.6159992  78.3224990  67.1769997
 110.6619992  78.5934990  67.4339997 109.1909992  79.2794990  66.8039997
 109.6229992  77.1754990  66.1309997 108.5829992  76.8444990  65.9189997
 110.1809992  76.3334990  66.5949997 110.2599992  77.4664990  64.8209997
 109.8829992  78.4064990  64.3659997 109.9129992  76.6134990  64.1989997
 111.7669992  77.6604990  64.7789997 111.9439992  78.6524990  65.2469997
 112.1449992  77.8744990  63.7569997 112.6569992  76.6454990  65.4799997
 112.3029992  76.5414990  66.5279997 113.6849992  77.0544990  65.5749997
 112.7439992  75.3444990  64.7349997 112.0069992  74.5794990  65.0219997
 113.6479992  74.9744990  63.7919997 113.6409992  73.9704990  63.3439997
 114.7249992  75.8844990  63.2939997 115.7319992  75.6704990  63.7109997
 114.4469992  76.9314990  63.5409997 114.7079992  75.7854990  61.7839997
 113.7079992  75.9954990  61.3459997 114.9139992  74.7634990  61.3999997
 115.6439992  76.7914990  61.1049997 116.6699992  76.5544990  61.4589997
 115.3849992  77.8114990  61.4619997 115.5889992  76.7354990  59.5719997
 115.7049992  75.6914990  59.2099997 116.4739992  77.2104990  59.0969997
 114.3559992  77.4124990  58.9349997 114.4259992  78.4264990  59.3819997
 113.4559992  76.7924990  59.1349997 114.4029992  77.4514990  57.4059997
 114.5879992  76.3894990  57.1349997 115.3229992  77.8984990  56.9729997
 113.1369992  77.8944990  56.7859997 113.0369992  78.9974990  56.8819997
 112.2699992  77.4924990  57.3529997 113.0329992  77.3414990  55.3999997
 113.7929992  77.8944990  54.8079997 111.9559992  77.4574990  55.1509997
 113.1389992  76.2364990  55.3509997  55.8659992  15.9274990  56.4519997
  56.1079992  16.9934990  56.2519997  54.8939992  15.8294990  55.9229997
  56.5549992  15.1764990  56.0119997  55.7529992  15.7734990  57.9649997
  55.5659992  14.6884990  58.1169997  56.7769992  15.7664990  58.3959997
  54.8039992  16.6864990  58.6819997  55.0599992  17.7624990  58.5799997
  53.7239992  16.5534990  58.4569997  54.7609992  16.3324990  60.1629997
  54.2049992  15.3784990  60.2859997  55.7789992  16.1154990  60.5499997
  54.1679992  17.5044990  61.0229997  53.7739992  18.2684990  60.3179997
  53.3019992  17.1174990  61.6009997  55.3119992  18.0214990  61.9459997
  55.8549992  17.1394990  62.3469997  56.0769992  18.5644990  61.3519997
  54.8129992  18.8564990  63.0679997  54.4139992  19.8534990  62.7829997
  53.9799992  18.3234990  63.5739997  55.7919992  19.1814990  64.2159997
  56.6929992  19.6864990  63.8059997  55.2479992  19.9304990  64.8299997
  56.1569992  18.0404990  65.1379997  55.2519992  17.4814990  65.4589997
  56.8239992  17.3364990  64.5959997  56.7519992  18.5744990  66.4029997
  57.5909992  19.2284990  66.0819997  56.1069992  19.1974990  67.0579997
  57.3479992  17.5194990  67.3729997  57.4959992  18.1074990  68.3039997
  56.5099992  16.8284990  67.6089997  58.5279992  16.6164990  67.0019997
  58.5739992  16.4504990  65.9049997  59.4379992  17.0764990  67.4449997
  58.3039992  15.1814990  67.5799997  57.3109992  14.7604990  67.3149997
  58.9219992  14.4264990  67.0489997  58.4719992  15.0314990  69.1279997
  57.6059992  15.4854990  69.6559997  58.4469992  13.9404990  69.3369997
  59.7349992  15.6134990  69.6809997  60.6169992  15.1934990  69.1539997
  59.6989992  16.7134990  69.5269997  59.9679992  15.1874990  71.1019997
  59.7209992  14.1264990  71.5999997  60.4359992  16.2454990  71.6719997
  60.3579992  16.2784990  73.1379997  59.3099992  16.1584990  73.4859997
  61.0449992  15.4914990  73.5169997  60.9189992  17.6074990  73.6709997
  62.0219992  17.4794990  73.7039997  60.3969992  17.7204990  75.1679997
  59.9429992  16.7414990  75.4349997  61.3059992  17.7764990  75.8039997
  59.5419992  18.8624990  75.4009997  58.0819992  18.6854990  76.0569997
  57.5469992  17.3364990  75.4549997  56.3079992  16.7394990  75.8339997
  56.5529992  15.7944990  76.3639997  55.7469992  17.4004990  76.5289997
  55.2609992  16.4354990  74.7139997  55.5729992  15.5044990  74.2639997
  54.3369992  16.2734990  75.2489997  54.8939992  17.5274990  73.7079997
  56.1959992  17.8504990  72.9139997  56.3399992  16.9774990  72.2939997
  55.9799992  18.7694990  72.3879997  56.9149992  17.9894990  73.7069997
  53.8479992  17.0424990  72.7299997  53.8989992  17.6654990  71.8499997
  54.2389992  16.1104990  72.3479997  52.9069992  16.9994990  73.2589997
  54.4559992  18.6704990  74.5459997  55.1799992  18.8294990  75.3309997
  53.5199992  18.4424990  75.0339997  54.2879992  19.5594990  73.9569997
  58.2649992  18.5564990  77.4979997  57.1259992  19.7914990  75.6139997
  60.5469992  18.6384990  72.7619997  61.1919992  19.7934990  73.0269997
  61.9139992  20.0134990  73.9829997  60.5319992  20.8704990  72.1019997
  60.4449992  21.8334990  72.6499997  59.5089992  20.4764990  71.9229997
  61.2589992  21.2024990  70.7809997  61.8109992  20.3024990  70.4319997
  62.0399992  21.9914990  70.7359997  60.3079992  21.6134990  69.6579997
  59.6779992  22.4344990  70.0639997  59.5209992  20.8544990  69.4619997
  60.9889992  22.1454990  68.3289997  61.5879992  23.0634990  68.5029997
  60.2099992  22.5054990  67.6229997  61.8629992  21.0344990  67.7179997
  62.4989992  20.7774990  68.5919997  62.5469992  21.2904990  66.8809997
  61.1509992  19.7804990  67.1109997  60.5429992  19.3054990  67.9109997
  61.9059992  19.0644990  66.7209997  60.2019992  20.0764990  65.9459997
  59.4189992  20.7914990  66.2779997  59.6859992  19.0934990  65.9199997
  60.8809992  20.3224990  64.6649997  61.0609992  21.4034990  64.5619997
  61.2989992  19.5304990  63.6859997  61.7149992  19.9874990  62.7759997
  61.1889992  18.0114990  63.6069997  61.2739992  17.5154990  64.5979997
  62.0589992  17.5694990  63.0749997  59.8999992  17.4154990  63.0559997
  59.1229992  17.4224990  63.8499997  60.1219992  16.3474990  62.8449997
  59.3879992  17.9734990  61.7359997  60.0899992  18.6304990  61.1789997
  58.6889992  18.8164990  61.9209997  58.7659992  16.9164990  60.7799997
  58.2659992  17.3454990  59.8849997  58.1009992  16.1434990  61.2219997
  59.8409992  16.0034990  60.1419997  59.4989992  14.9464990  60.1799997
  60.7239992  16.1824990  60.7919997  60.2319992  16.3694990  58.7459997
  59.3799992  16.6324990  58.0839997  60.7819992  15.4724990  58.3899997
  61.1569992  17.6674990  58.5929997  60.7789992  18.5854990  59.0919997
  61.2109992  18.0154990  57.5389997  62.5379992  17.3594990  59.0419997
  63.2579992  18.1684990  58.7929997  63.0649992  16.5124990  58.5529997
  62.4639992  17.1934990  60.1379997  85.1469992 113.1614990  57.0039997
  84.5259992 112.2404990  57.0339997  85.4309992 113.5284990  55.9949997
  84.4739992 113.9474990  57.4069997  86.4249992 112.9044990  57.8719997
  86.8429992 111.8884990  57.7079997  87.1749992 113.6764990  57.5949997
  86.1619992 112.9044990  59.4119997  87.1289992 112.6394990  59.8899997
  85.9309992 113.9714990  59.6219997  84.9899992 112.0354990  59.7969997
  84.0519992 112.6174990  59.6739997  85.0419992 111.0934990  59.2089997
  85.0309992 111.8034990  61.3579997  85.9119992 111.1854990  61.6319997
  84.9229992 112.7404990  61.9439997  83.7379992 110.9824990  61.8399997
  83.8799992 109.9204990  61.5459997  83.8529992 110.8174990  62.9329997
  82.3789992 111.4464990  61.3869997  82.2409992 111.0934990  60.3429997
  81.5769992 110.8734990  61.8989997  82.0449992 112.9024990  61.6399997
  82.6469992 113.6394990  61.0669997  80.9879992 113.1254990  61.3819997
  82.1439992 113.4154990  63.1009997  83.2019992 113.2414990  63.3929997
  81.8109992 114.4744990  63.0499997  81.2939992 112.5314990  64.0329997
  80.3059992 112.2564990  63.6069997  81.7619992 111.5244990  64.0259997
  81.2869992 113.1194990  65.4169997  80.8749992 114.1504990  65.3629997
  80.4179992 112.6234990  65.8979997  82.6639992 113.3364990  66.1759997
  83.2599992 114.0954990  65.6259997  82.3119992 113.8244990  67.1089997
  83.4639992 112.1694990  66.6149997  83.5639992 111.4754990  65.7539997
  84.5309992 112.4414990  66.7669997  82.9349992 111.3614990  67.8599997
  83.0429992 112.1024990  68.6819997  81.8719992 111.1654990  67.6029997
  83.6159992 110.0584990  68.2469997  82.9439992 109.5754990  68.9879997
  83.7229992 109.3934990  67.3629997  85.0069992 110.3784990  68.7999997
  85.9919992 110.6884990  68.1659997  84.9309992 110.1214990  70.1169997
  86.1069992 110.3024990  70.8659997  86.1649992 109.4764990  71.6069997
  87.0139992 110.2044990  70.2319997  86.2379992 111.6984990  71.6699997
  87.2579992 111.6754990  72.1099997  85.1119992 111.8664990  72.7339997
  85.1539992 111.0034990  73.4319997  85.2949992 112.8144990  73.2829997
  83.7939992 111.8514990  72.1919997  82.8539992 113.0624990  72.6149997
  82.9259992 112.9024990  74.1749997  82.3259992 113.8764990  75.0449997
  83.0209992 114.7414990  75.0869997  81.3419992 114.2674990  74.7079997
  82.0649992 113.3514990  76.4519997  81.7899992 114.1344990  77.1429997
  81.1959992 112.7114990  76.4039997  83.1729992 112.6774990  77.1779997
  83.6539992 111.3304990  76.5949997  84.2089992 110.7694990  77.3329997
  82.7659992 110.7824990  76.3179997  84.2789992 111.4214990  75.7189997
  84.3519992 113.6114990  77.3339997  84.8229992 113.9594990  76.4269997
  83.9649992 114.3624990  78.0069997  85.2299992 113.2434990  77.8429997
  82.7549992 112.3794990  78.5639997  82.4979992 113.2784990  79.1059997
  83.5239992 111.8454990  79.1019997  81.8619992 111.7724990  78.5379997
  83.4869992 114.2944990  72.1979997  81.5139992 112.8034990  72.1239997
  86.1169992 112.7994990  70.7909997  86.8189992 113.9164990  71.1589997
  87.3719992 114.0594990  72.2479997  86.7769992 115.0444990  70.1109997
  87.8139992 115.4264990  69.9969997  86.2519992 115.9614990  70.4529997
  86.2909992 114.6124990  68.7939997  85.1989992 114.4214990  68.8719997
  86.7799992 113.6404990  68.5669997  86.6049992 115.5424990  67.5909997
  87.6939992 115.7314990  67.6979997  86.0509992 116.5034990  67.6519997
  86.3959992 114.9224990  66.2399997  85.3289992 114.6734990  66.0559997
  86.9639992 113.9794990  66.0889997  87.1059992 115.7964990  65.1649997
  88.1659992 115.8154990  65.4999997  86.7099992 116.8244990  65.3059997
  86.9609992 115.2254990  63.7259997  87.3509992 114.1844990  63.7139997
  87.5379992 115.8644990  63.0229997  85.4859992 115.1724990  63.3019997
  84.9279992 114.4054990  63.8799997  85.6129992 114.6134990  62.3499997
  84.7139992 116.4154990  63.0799997  84.3239992 116.9634990  63.9519997
  84.4329992 117.0144990  61.8649997  83.8309992 117.9294990  61.9639997
  84.8009992 116.5784990  60.5019997  84.9779992 115.4824990  60.4629997
  85.7729992 117.0504990  60.2439997  83.8139992 116.8894990  59.3499997
  84.3739992 116.6534990  58.4199997  83.5959992 117.9774990  59.3989997
  82.6029992 115.9334990  59.4359997  82.2359992 115.8994990  60.4839997
  82.7729992 114.8794990  59.1289997  81.4719992 116.4924990  58.5969997
  81.3479992 117.5884990  58.7349997  80.4459992 116.0984990  58.7599997
  81.7359992 116.3184990  57.0729997  82.7049992 116.7494990  56.7439997
  81.0149992 116.9144990  56.4729997  81.5449992 114.9254990  56.4999997
  80.7029992 114.4494990  57.0469997  82.4109992 114.3334990  56.8669997
  81.6389992 114.8824990  54.9809997  82.6089992 115.4084990  54.8469997
  80.9499992 115.5494990  54.4199997  81.4579992 113.4354990  54.3889997
  80.7009992 112.7864990  54.8789997  82.4339992 112.9124990  54.4809997
  81.2879992 113.5424990  53.2959997  92.2769992  56.4344990  54.9239997
  91.5619992  57.2824990  54.9779997  91.7549992  55.5264990  55.2949997
  92.5969992  56.2234990  53.8809997  93.4959992  56.8704990  55.7849997
  94.2909992  56.1174990  55.6009997  93.9229992  57.8554990  55.4959997
  93.1369992  56.9274990  57.3199997  92.4559992  57.7664990  57.5759997
  92.6449992  55.9954990  57.6729997  94.3269992  57.1824990  58.3289997
  94.9219992  56.2464990  58.2739997  94.9099992  58.0424990  57.9339997
  93.8449992  57.3174990  59.7509997  93.6659992  58.4014990  59.9159997
  93.1169992  56.4994990  59.9369997  95.0249992  57.0814990  60.7729997
  94.7739992  57.2114990  61.8479997  95.6449992  56.2014990  60.5009997
  95.9749992  58.3084990  60.5759997  96.5199992  58.2214990  59.6109997
  95.4129992  59.2654990  60.6269997  97.1539992  58.3314990  61.5809997
  97.7789992  57.4534990  61.3109997  97.8349992  59.1874990  61.3859997
  96.7749992  58.3564990  63.0399997  96.0319992  59.1824990  63.0609997
  96.2249992  57.4024990  63.1849997  97.7609992  58.7824990  64.0529997
  98.5089992  57.9664990  64.1439997  98.2439992  59.7244990  63.7129997
  97.1349992  59.0834990  65.4799997  96.4429992  59.9124990  65.2199997
  96.6109992  58.1534990  65.7899997  98.0199992  59.5074990  66.6989997
  98.6429992  58.6544990  67.0439997  98.7319992  60.2844990  66.3469997
  97.2109992  60.0794990  67.9159997  97.9109992  60.2124990  68.7679997
  96.8829992  61.1064990  67.6459997  95.9809992  59.2834990  68.3649997
  95.5649992  59.8854990  69.2009997  95.3769992  59.2424990  67.4329997
  96.0959992  57.8384990  68.7859997  96.6109992  57.2604990  67.9889997
  96.6459992  57.8114990  69.7509997  94.7529992  57.1784990  69.0579997
  93.6329992  57.5004990  68.5949997  94.9559992  56.0984990  69.9039997
  93.7819992  55.5524990  70.5189997  93.0089992  56.3164990  70.7499997
  93.3419992  54.7824990  69.8489997  94.2559992  54.8064990  71.8829997
  93.2969992  54.3724990  72.2379997  94.6429992  55.7384990  73.0269997
  94.0129992  56.6514990  72.9679997  94.4889992  55.3214990  74.0449997
  96.0429992  56.1364990  72.9159997  96.5199992  57.6534990  72.7119997
  96.6409992  58.1804990  74.2389997  97.4849992  57.5224990  75.1639997
  98.1979992  56.8624990  74.6249997  98.0259992  58.3384990  75.6889997
  96.7029992  56.5494990  76.1169997  96.2839992  55.7194990  75.5669997
  97.5099992  56.1974990  76.7409997  95.6329992  57.0574990  77.0709997
  94.4239992  57.4564990  76.3209997  93.7769992  57.8544990  77.0879997
  94.6579992  58.2364990  75.6109997  93.9949992  56.6454990  75.7509997
  95.3209992  55.9524990  78.1379997  95.0329992  55.1494990  77.4749997
  96.2289992  55.7054990  78.6689997  94.4569992  56.2384990  78.7189997
  96.1689992  58.2554990  77.7099997  95.3909992  58.7274990  78.2919997
  96.5209992  59.0234990  77.0359997  96.9339992  57.9274990  78.3969997
  97.8559992  57.7544990  72.0149997  95.4229992  58.4754990  72.0709997
  95.2569992  53.8054990  71.4189997  96.1559992  53.3744990  72.1959997
  96.1629992  53.2604990  73.3949997  97.3839992  52.8984990  71.4189997
  97.2559992  51.8164990  71.2039997  98.2619992  53.1514990  72.0519997
  97.5179992  53.6574990  70.1219997  97.2389992  54.7284990  70.2169997
  96.8869992  53.1554990  69.3579997  98.9339992  53.5694990  69.5419997
  99.2479992  52.5284990  69.3139997  99.6449992  53.8364990  70.3519997
  99.2009992  54.3654990  68.2339997 100.0379992  53.8414990  67.7259997
  99.3539992  55.4364990  68.4859997  98.0559992  54.2164990  67.3199997
  97.1239992  54.7114990  67.6669997  97.9259992  53.1314990  67.1159997
  98.3419992  54.9914990  65.8769997  99.2869992  54.4834990  65.5899997
  98.4689992  56.0584990  66.1609997  97.2959992  54.7284990  64.7759997
  97.4239992  55.2164990  63.7859997  96.2789992  55.1034990  65.0219997
  97.0029992  53.2974990  64.3499997  96.0699992  52.9074990  64.7819997
  97.7769992  52.5034990  63.6629997  97.4189992  51.4794990  63.4819997
  99.1199992  52.6974990  63.0519997  99.7599992  51.8764990  63.4409997
  99.6229992  53.6144990  63.4259997  99.1539992  52.7924990  61.4729997
  98.8869992  51.7764990  61.1129997 100.2239992  52.9344990  61.2119997
  98.2559992  53.8024990  60.8049997  98.6269992  54.8224990  61.0449997
  97.2129992  53.6304990  61.1439997  98.2639992  53.7104990  59.2319997
  97.8759992  52.6884990  59.0329997  99.3019992  53.6114990  58.8479997
  97.4759992  54.6854990  58.3869997  97.7139992  55.7354990  58.6619997
  96.3869992  54.5834990  58.5819997  97.8589992  54.5594990  56.8499997
  98.9379992  54.5364990  56.5889997  97.3279992  55.4464990  56.4429997
  97.4859992  53.1684990  56.2029997  96.5809992  52.7174990  56.6649997
  98.3099992  52.4494990  56.3989997  96.9809992  53.1664990  54.7089997
  97.2659992  52.1944990  54.2539997  97.6219992  53.9254990  54.2119997
  95.9059992  53.3944990  54.5429997  97.9959992  50.8574990  57.6029997
  98.7149992  50.3414990  56.9319997  97.7919992  50.2334990  58.4989997
  98.5469992  51.7454990  57.9819997  96.7229992  51.2584990  56.8959997
  96.2339992  52.0344990  57.5229997  97.1099992  51.7744990  55.9909997
  95.7919992  50.1204990  56.5229997  95.0599992  50.4444990  55.7529997
  96.4099992  49.4514990  55.8879997  95.1109992  49.4034990  57.6759997
  95.7909992  49.2134990  58.5329997  94.2409992  49.9684990  58.0749997
  94.7989992  47.9874990  57.2559997  93.8869992  47.9194990  56.6249997
  95.6179992  47.4904990  56.6919997  94.4309992  47.0364990  58.4609997
  93.5799992  47.3824990  59.0859997  94.0109992  46.1004990  58.0349997
  95.6559992  46.5434990  59.3039997  96.4239992  45.9624990  58.7499997
  96.1989992  47.3944990  59.7679997  95.2309992  45.5644990  60.3959997
  94.6479992  46.1804990  61.1149997  94.5519992  44.7764990  60.0079997
  96.3949992  44.9704990  61.1599997  96.7869992  44.0464990  60.6819997
  97.2469992  45.6834990  61.1439997  95.9589992  44.6354990  62.5389997
  95.8169992  45.6364990  62.9999997  95.0409992  44.0104990  62.4929997
  97.0689992  44.0784990  63.4539997  96.7389992  43.5884990  64.3949997
  97.5869992  43.3034990  62.8489997  98.0739992  45.1374990  63.9189997
  98.9339992  44.5884990  64.3579997  98.5119992  45.6084990  63.0129997
  97.6949992  46.0804990  65.0539997  98.6499992  46.5024990  65.4339997
  96.9749992  46.8234990  64.6499997  97.0689992  45.3424990  66.2439997
  96.0029992  45.1654990  65.9849997  97.6109992  44.3904990  66.4259997
  97.1579992  46.1164990  67.6269997  96.6489992  47.0864990  67.4449997
  96.5729992  45.4964990  68.3399997  98.6039992  46.2364990  68.0169997
  99.3989992  45.2854990  67.8929997  98.8279992  47.2614990  68.8409997
  99.9719992  47.3574990  69.7179997 100.4419992  46.3564990  69.8239997
 100.7189992  48.0184990  69.2279997  99.5799992  47.8124990  71.1359997
 100.4959992  47.7064990  71.7559997  98.4029992  46.8534990  71.7269997
  97.5819992  47.0134990  70.9949997  98.6319992  45.7664990  71.6989997
  97.9299992  47.2004990  73.0159997  96.7569992  46.3574990  73.6769997
  96.5539992  47.1094990  74.9649997  95.8499992  48.4304990  75.0259997
  95.1079992  48.6094990  74.2189997  95.2019992  48.4224990  75.9289997
  96.9759992  49.4804990  75.1339997  97.5059992  49.5734990  74.1969997
  96.4479992  50.4134990  75.2639997  98.1029992  49.5574990  76.2249997
  99.2389992  48.6064990  75.8129997  99.8259992  48.9424990  74.9709997
  99.9279992  48.4074990  76.6199997  98.7089992  47.6734990  75.6879997
  98.6539992  50.9564990  76.3119997  99.4869992  50.9984990  76.9979997
  98.7939992  51.3644990  75.3219997  97.9529992  51.6144990  76.8049997
  97.6979992  49.1214990  77.5659997  97.0339992  48.2704990  77.6169997
  97.1829992  49.9534990  78.0219997  98.5609992  48.9774990  78.1979997
  95.5179992  46.4824990  72.8309997  97.2459992  45.0024990  73.9079997
  99.1239992  49.2184990  71.1299997  99.9899992  50.1784990  71.0719997
 101.1719992  50.0504990  71.2049997  99.2329992  51.4284990  70.6939997
  99.8039992  52.3114990  71.0519997  98.1899992  51.5024990  71.0679997
  99.2169992  51.6094990  69.1099997 100.1609992  51.2514990  68.6449997
  99.1699992  52.6794990  68.8159997  98.0329992  50.9334990  68.3329997
  97.0849992  51.3704990  68.7119997  97.9339992  49.8654990  68.6229997
  98.1199992  51.0424990  66.6959997  98.0739992  52.0934990  66.3409997
  97.1789992  50.5534990  66.3619997  99.2859992  50.3494990  66.0979997
  99.1899992  49.2804990  66.3839997 100.1969992  50.8304990  66.5139997
  99.2579992  50.4174990  64.6229997  99.0239992  51.4774990  64.3869997
  98.4239992  49.7864990  64.2469997 100.5849992  50.0394990  63.9599997
 101.4129992  50.5914990  64.4529997 100.6129992  50.3844990  62.9039997
 100.7599992  48.5824990  64.0279997 100.7179992  48.1674990  65.0459997
 100.8579992  47.6854990  63.0279997 100.9199992  46.6244990  63.3109997
 100.8819992  47.8534990  61.5119997 101.2839992  48.8544990  61.2439997
  99.8669992  47.8274990  61.0609997 101.7919992  46.8324990  60.9009997
 101.3019992  45.8434990  61.0159997 102.7149992  46.7914990  61.5179997
 102.3159992  47.1644990  59.4909997 103.1059992  46.4274990  59.2329997
 102.8669992  48.1284990  59.4619997 101.2859992  47.1194990  58.4619997
 101.9589992  47.2954990  57.5959997 100.5859992  47.9794990  58.5329997
 100.6369992  45.7544990  58.1219997  99.7679992  45.7394990  58.8149997
 101.3479992  44.9334990  58.3569997  99.9899992  45.7714990  56.7159997
 100.7389992  45.9464990  55.9139997  99.4059992  46.7144990  56.6749997
  99.3099992  44.4404990  56.3429997  98.4089992  44.3914990  56.9919997
  99.8589992  43.5014990  56.5709997  98.7939992  44.4284990  54.9359997
  98.2799992  43.4584990  54.7639997  99.6639992  44.4394990  54.2449997
  98.1059992  45.2474990  54.6379997  65.3749992 112.4224990  54.1229997
  64.8179992 113.3834990  54.1069997  64.7989992 111.5124990  54.3969997
  65.7909992 112.2044990  53.1159997  66.4789992 112.5734990  55.1119997
  66.9229992 111.5574990  55.1709997  67.0979992 113.4334990  54.7799997
  65.9899992 112.7504990  56.5049997  65.2879992 111.9564990  56.8369997
  66.9439992 112.7154990  57.0739997  65.1639992 114.0694990  56.8299997
  65.7629992 115.0054990  56.8179997  64.2849992 113.9644990  56.1579997
  64.5809992 113.8584990  58.2729997  63.7119992 114.5464990  58.3509997
  64.0679992 112.8744990  58.3189997  65.4709992 113.9214990  59.5249997
  66.3779992 113.3404990  59.2529997  65.7829992 114.9864990  59.5849997
  64.9169992 113.5934990  60.8779997  64.1639992 112.7934990  60.7149997
  65.7129992 113.2734990  61.5849997  64.2469992 114.8464990  61.3759997
  65.1489992 115.4714990  61.5499997  63.6929992 115.3884990  60.5799997
  63.3489992 114.6644990  62.6829997  63.1639992 115.7194990  62.9769997
  62.3919992 114.1594990  62.4309997  63.9629992 113.7154990  63.7279997
  64.2299992 112.7184990  63.3159997  64.9669992 114.0504990  64.0649997
  62.9699992 113.3994990  64.8609997  62.6089992 114.3994990  65.1829997
  62.0689992 112.8354990  64.5369997  63.4559992 112.6774990  66.1099997
  62.6449992 112.0094990  66.4709997  64.4129992 112.1324990  65.9689997
  63.8269992 113.6364990  67.3109997  62.9109992 114.1144990  67.7209997
  64.2349992 113.0364990  68.1519997  64.8159992 114.7244990  67.0139997
  65.7539992 114.1884990  66.7569997  64.4829992 115.2644990  66.1019997
  64.9119992 115.8414990  68.1599997  65.1359992 116.7674990  67.5879997
  63.9569992 116.1114990  68.6599997  66.0449992 115.4914990  69.2199997
  67.1399992 115.0064990  68.9969997  65.7069992 116.0684990  70.3349997
  66.5079992 115.9954990  71.6069997  67.4909992 115.4854990  71.5099997
  66.7869992 117.0094990  71.9639997  65.8669992 115.1974990  72.8219997
  64.8169992 115.5384990  72.9499997  66.6729992 115.4444990  74.1299997
  67.7649992 115.2384990  74.1119997  66.4789992 116.5274990  74.2869997
  65.9979992 114.7724990  75.1879997  66.4419992 113.3694990  75.7929997
  67.5149992 112.7824990  74.7599997  68.9259992 113.0924990  74.9499997
  69.3169992 113.6654990  74.0819997  69.1229992 113.7344990  75.8339997
  69.7579992 111.7944990  75.1999997  70.8069992 112.0504990  75.1649997
  69.5229992 111.3264990  76.1439997  69.4739992 110.6864990  74.1749997
  70.4739992 109.6224990  74.4179997  71.4839992 110.0014990  74.4799997
  70.2399992 109.1504990  75.3609997  70.4999992 108.8024990  73.7169997
  68.1009992 110.0784990  74.2549997  67.9499992 109.3324990  73.4879997
  67.9249992 109.5744990  75.1939997  67.4109992 110.8974990  74.1119997
  69.7059992 111.2864990  72.7599997  70.7299992 111.4994990  72.4899997
  69.1099992 112.1694990  72.5819997  69.4899992 110.4924990  72.0599997
  67.0949992 113.5824990  77.1039997  65.2109992 112.5294990  75.8699997
  65.7879992 113.7834990  72.5719997  64.7749992 113.3914990  71.8259997
  63.8769992 114.0664990  71.3699997  65.0199992 111.9204990  71.3619997
  64.3179992 111.7164990  70.5249997  64.9379992 111.2874990  72.2719997
  66.3799992 111.5874990  70.7189997  67.2499992 112.0584990  71.2249997
  66.5439992 112.1434990  69.7709997  66.4559992 110.0804990  70.4059997
  65.5219992 109.6804990  70.8549997  67.2199992 109.5794990  71.0379997
  66.5929992 109.8034990  68.8929997  66.1899992 110.7154990  68.4039997
  65.9459992 108.9454990  68.6109997  68.0659992 109.4834990  68.4889997
  68.4039992 108.6634990  69.1589997  68.7529992 110.3324990  68.6899997
  68.2779992 109.0644990  66.9799997  67.8089992 108.0574990  66.9599997
  69.3479992 108.7794990  66.8979997  67.8289992 110.0474990  65.7869997
  66.7219992 110.1324990  65.8179997  68.1999992 109.4444990  64.9309997
  68.5029992 111.3524990  66.0159997  68.0239992 112.0634990  66.7049997
  69.6859992 111.8744990  65.4769997  69.8999992 112.9504990  65.5559997
  70.5609992 111.1084990  64.5239997  70.5679992 110.0154990  64.7229997
  71.5939992 111.4964990  64.6569997  70.1659992 111.2234990  63.0089997
  70.0829992 112.3124990  62.8029997  69.1489992 110.7954990  62.8809997
  71.0039992 110.3244990  62.0559997  71.0079992 109.2914990  62.4649997
  72.0329992 110.7174990  61.9099997  70.2449992 110.1744990  60.7019997
  69.1509992 110.0854990  60.8789997  70.5569992 109.1994990  60.2719997
  70.4549992 111.3144990  59.7269997  71.5599992 111.3764990  59.6399997
  69.9959992 112.2734990  60.0499997  69.9819992 110.9304990  58.3809997
  68.8719992 110.9254990  58.3519997  70.3419992 109.9004990  58.1689997
  70.4789992 111.9484990  57.2829997  69.6679992 111.7074990  56.5629997
  71.5259992 111.7384990  56.9769997  70.4339992 113.4134990  57.7049997
  71.2249992 113.6544990  58.4469997  69.4889992 113.8274990  58.1179997
  70.5549992 114.0234990  56.7839997  44.1079992  27.7774990  57.8189997
  44.9399992  28.4524990  58.1149997  44.1769992  27.7524990  56.7109997
  44.2759992  26.8134990  58.3449997  42.6569992  28.3084990  58.2639997
  42.3439992  29.1444990  57.6029997  41.9789992  27.4544990  58.0479997
  42.4469992  28.7604990  59.6639997  43.2889992  29.4634990  59.8419997
  41.4359992  29.2184990  59.6979997  42.6259992  27.6164990  60.6309997
  41.9039992  26.8204990  60.3499997  43.6699992  27.2434990  60.5569997
  42.4629992  27.9884990  62.1279997  43.2939992  28.6814990  62.3799997
  41.5049992  28.5494990  62.1729997  42.4439992  26.8864990  63.1869997
  41.7309992  26.0434990  63.0579997  43.4469992  26.4934990  63.4569997
  41.9269992  27.4824990  64.5689997  40.8649992  27.7384990  64.3679997
  41.8649992  26.6714990  65.3259997  42.8519992  28.5394990  65.1109997
  43.7189992  28.0934990  65.6429997  43.2239992  29.2734990  64.3639997
  42.1139992  29.3454990  66.1669997  41.1649992  29.8554990  65.8959997
  41.8149992  28.6384990  66.9709997  42.9839992  30.3954990  66.8119997
  43.9219992  29.9384990  67.1949997  43.3419992  31.0534990  65.9919997
  42.3899992  31.0934990  68.0629997  42.9049992  32.0554990  68.2749997
  41.4059992  31.5074990  67.7559997  42.1329992  30.2914990  69.3759997
  41.4919992  29.4084990  69.1679997  43.1039992  29.8894990  69.7349997
  41.5059992  31.2024990  70.4649997  41.9339992  30.8674990  71.4339997
  41.8749992  32.2414990  70.3319997  39.9629992  31.2024990  70.6379997
  39.4439992  31.7124990  69.7979997  39.7129992  30.1204990  70.6729997
  39.4989992  31.7994990  71.9889997  40.0989992  31.2644990  72.7559997
  39.7509992  32.8814990  71.9989997  38.0489992  31.4934990  72.2209997
  37.3139992  30.8184990  71.5759997  37.7129992  31.9134990  73.5229997
  36.4579992  31.6274990  73.9849997  36.0699992  32.3524990  74.7319997
  35.6719992  31.7264990  73.2059997  36.3809992  30.2964990  74.7329997
  35.2899992  30.1924990  74.9109997  37.2949992  30.2654990  75.9719997
  37.3819992  31.3204990  76.3069997  36.8239992  29.6344990  76.7559997
  38.5749992  29.7604990  75.6399997  39.5649992  29.2644990  76.6789997
  40.5519992  28.2354990  76.0619997  40.0999992  27.2784990  75.1189997
  39.6539992  26.4444990  75.7019997  39.4089992  27.7014990  74.3589997
  41.1519992  26.4984990  74.2579997  41.8149992  25.9754990  74.9309997
  40.6659992  25.6684990  73.7659997  41.9719992  27.2544990  73.2379997
  40.9589992  27.6244990  72.1889997  41.4829992  28.2374990  71.4709997
  40.5549992  26.6664990  71.8969997  40.1819992  28.2164990  72.6489997
  42.6149992  28.4964990  73.8229997  41.8269992  29.1494990  74.1679997
  43.2949992  28.3514990  74.6489997  43.0949992  29.0174990  73.0079997
  42.9169992  26.1974990  72.6619997  43.6689992  26.0334990  73.4189997
  43.3789992  26.4784990  71.7279997  42.3749992  25.2694990  72.5589997
  40.3869992  30.4274990  77.0289997  38.8569992  28.5254990  77.7719997
  36.7369992  29.2824990  73.7999997  36.3909992  28.0654990  74.1059997
  35.6449992  27.7334990  75.0329997  37.0159992  26.9564990  73.1379997
  37.0359992  25.9544990  73.6179997  38.0639992  27.2724990  72.9499997
  36.2849992  26.9804990  71.8259997  36.2599992  28.0014990  71.3889997
  35.2029992  26.7384990  71.8959997  37.0999992  26.1254990  70.8219997
  36.8119992  25.0654990  70.9879997  38.1879992  26.2744990  70.9949997
  36.7759992  26.3514990  69.3029997  35.6699992  26.2904990  69.2219997
  37.0919992  25.4664990  68.7109997  37.4709992  27.6254990  68.6889997
  38.5429992  27.5434990  68.9669997  37.0339992  28.5704990  69.0769997
  37.4039992  27.6874990  67.1209997  36.3309992  27.6074990  66.8459997
  37.8469992  26.7214990  66.7979997  38.1039992  28.8314990  66.4709997
  37.7989992  28.8724990  65.4029997  39.1929992  28.6284990  66.5599997
  37.9399992  30.2464990  67.1419997  38.6019992  30.5084990  67.9809997
  37.1569992  31.2164990  66.8129997  37.2169992  32.2054990  67.2899997
  36.1939992  31.1584990  65.7029997  35.2949992  31.8014990  65.8139997
  35.8459992  30.1034990  65.6819997  36.9369992  31.5964990  64.4589997
  37.8749992  31.0144990  64.5829997  37.0249992  32.7034990  64.4379997
  36.2529992  30.9704990  63.2299997  35.3019992  31.5344990  63.1209997
  36.0769992  29.9044990  63.4899997  37.2259992  31.1054990  62.0569997
  38.1799992  30.6284990  62.3679997  37.5299992  32.1724990  62.1059997
  36.5829992  30.6894990  60.6859997  35.8049992  31.4764990  60.5849997
  36.2619992  29.6284990  60.7539997  37.4729992  30.8544990  59.3939997
  38.3849992  30.2304990  59.5089997  37.8339992  31.9044990  59.3379997
  36.7289992  30.5854990  58.0879997  37.2849992  31.1764990  57.3299997
  35.7639992  31.1244990  58.2059997  36.6709992  29.1164990  57.6819997
  35.6219992  28.8144990  57.8889997  37.3309992  28.5594990  58.3809997
  36.9519992  29.0774990  56.6079997  92.5699992 101.2544990  57.8529997
  92.0229992 101.5544990  56.9339997  91.8059992 100.6844990  58.4239997
  93.4029992 100.5854990  57.5499997  93.1479992 102.4314990  58.6669997
  93.5969992 101.9184990  59.5439997  93.9909992 102.8534990  58.0779997
  92.2339992 103.5894990  59.1179997  92.7729992 104.3094990  59.7709997
  91.8209992 104.1314990  58.2409997  91.0139992 103.3164990  60.0149997
  90.2829992 104.1334990  60.1949997  90.3489992 102.5374990  59.5849997
  91.4499992 102.5854990  61.2609997  91.8079992 101.5584990  61.0319997
  92.2789992 103.0974990  61.7949997  90.1739992 102.2994990  62.0329997
  89.7979992 103.2154990  62.5369997  89.3929992 101.7404990  61.4749997
  90.3709992 101.3724990  63.1879997  90.3889992 100.3074990  62.8719997
  91.3279992 101.6644990  63.6689997  89.3189992 101.5794990  64.2729997
  89.4819992 102.6084990  64.6579997  88.2879992 101.4494990  63.8789997
  89.5659992 100.7184990  65.4839997  89.0419992  99.7554990  65.3049997
  90.6479992 100.4874990  65.5939997  89.0529992 101.4014990  66.7029997
  89.7259992 102.2584990  66.9209997  88.0169992 101.7054990  66.4409997
  89.0289992 100.5644990  68.0329997  88.6889992 101.2744990  68.8169997
  88.2419992  99.8024990  67.8509997  90.3759992 100.0344990  68.4899997
  90.8839992  99.5054990  67.6569997  91.0319992 100.8394990  68.8859997
  90.2479992  99.2254990  69.8279997  89.3319992  98.5984990  69.8849997
  91.1009992  98.5154990  69.7929997  90.1519992 100.1124990  71.1169997
  90.1729992 101.1954990  70.8689997  89.1749992  99.9934990  71.6329997
  91.2179992  99.9294990  72.1339997  91.0149992 100.7184990  72.8889997
  91.1799992  98.9474990  72.6519997  92.6179992 100.1294990  71.6649997
  93.5439992  99.3114990  71.6539997  92.7809992 101.4034990  71.3209997
  94.1449992 101.8864990  71.0439997  94.7759992 101.7144990  71.9419997
  94.6119992 101.4014990  70.1599997  94.1349992 103.3774990  70.8929997
  95.1989992 103.6934990  70.9319997  93.4089992 104.0944990  72.0029997
  93.7729992 103.6584990  72.9579997  93.6109992 105.1864990  71.9849997
  91.9919992 103.9844990  71.9919997  91.1379992 103.8794990  73.3349997
  92.0539992 103.0704990  74.3409997  91.8869992 103.0374990  75.7629997
  92.5819992 103.8034990  76.1699997  90.8369992 103.3094990  75.9989997
  92.0339992 101.5884990  76.3279997  91.6069992 101.6614990  77.3169997
  91.3269992 100.9064990  75.8799997  93.3779992 100.9364990  76.3869997
  93.9219992 100.6614990  75.0669997  94.9449992 100.3324990  75.1659997
  93.2089992  99.9354990  74.7029997  94.0069992 101.5394990  74.4429997
  94.3679992 101.7554990  77.1389997  94.6159992 102.6304990  76.5559997
  94.0579992 102.0134990  78.1409997  95.2829992 101.1904990  77.2369997
  93.2159992  99.7214990  77.3009997  92.8859992  99.9904990  78.2939997
  94.1279992  99.1534990  77.4079997  92.3689992  99.2114990  76.8669997
  90.9829992 105.2614990  73.7299997  89.9289992 103.0784990  73.0899997
  93.5499992 103.7294990  69.6399997  94.1759992 103.4204990  68.5429997
  95.3449992 103.0284990  68.4999997  93.2349992 103.6684990  67.3899997
  93.1049992 104.7654990  67.2699997  92.2929992 103.1134990  67.5859997
  93.7449992 103.1594990  66.0159997  92.8249992 102.7944990  65.5119997
  94.4239992 102.3414990  66.3399997  94.4329992 104.3294990  65.2769997
  95.1779992 104.8764990  65.8939997  93.5889992 104.9734990  64.9469997
  95.2949992 103.9524990  63.9909997  94.5639992 103.5204990  63.2749997
  96.0519992 103.2294990  64.3629997  96.0079992 105.1334990  63.3009997
  96.4869992 105.7154990  64.1179997  95.2639992 105.8824990  62.9539997
  97.0249992 104.7644990  62.2139997  97.7119992 103.9404990  62.5019997
  97.7109992 105.6374990  62.1649997  96.4419992 104.5244990  60.8139997
  97.2759992 104.5184990  60.0799997  95.6659992 105.2994990  60.6349997
  95.7309992 103.2264990  60.7129997  94.7389992 103.1114990  61.1729997
  96.2579992 102.1164990  60.2359997  95.6759992 101.2034990  60.4269997
  97.6189992 101.9164990  59.5939997  97.9889992 100.9164990  59.9039997
  98.2779992 102.7124990  60.0029997  97.6619992 101.9114990  58.0469997
  96.7749992 101.4594990  57.5529997  98.5929992 101.3774990  57.7609997
  97.5679992 103.3484990  57.4929997  98.3559992 103.9084990  58.0389997
  96.6179992 103.8634990  57.7509997  97.7999992 103.5164990  55.9979997
  96.9519992 103.1434990  55.3849997  98.6249992 102.7964990  55.8129997
  98.3349992 104.8604990  55.4719997  98.7259992 104.8194990  54.4339997
  99.1129992 104.9224990  56.2629997  97.4619992 106.0294990  55.7419997
  97.1869992 106.0984990  56.8159997  96.4869992 105.9744990  55.2109997
  98.0049992 107.3944990  55.1269997  97.1939992 108.1494990  55.0589997
  98.3069992 107.1804990  54.0799997  99.2449992 107.8974990  55.8769997
 100.1199992 107.3424990  55.4769997  99.1819992 107.7524990  56.9769997
  99.4259992 108.9794990  55.7029997 103.5859992  60.2154990  55.1159997
 103.8389992  61.2374990  54.7619997 103.2789992  59.6274990  54.2249997
 104.4909992  59.8434990  55.6429997 102.3629992  60.3574990  56.1249997
 102.5599992  61.1614990  56.8659997 101.4319992  60.5224990  55.5419997
 101.9479992  59.1304990  56.9559997 100.8599992  58.9574990  57.0969997
 102.4769992  58.2494990  56.5339997 102.5849992  59.0124990  58.3859997
 102.2359992  58.0254990  58.7589997 103.6949992  58.9724990  58.4089997
 102.0749992  60.1864990  59.3559997 102.4259992  61.1794990  59.0039997
 100.9889992  60.0004990  59.2109997 102.5089992  59.8404990  60.7999997
 102.0319992  58.8824990  61.0999997 103.6099992  59.7354990  60.6949997
 102.1639992  60.9404990  61.8299997 102.8259992  61.7824990  61.5329997
 101.1749992  61.4244990  61.6849997 102.3919992  60.5494990  63.2449997
 101.9259992  59.6414990  63.6839997 103.4509992  60.2154990  63.2709997
 102.2709992  61.6784990  64.2199997 102.3739992  62.6814990  63.7529997
 101.2309992  61.5754990  64.5949997 102.9759992  61.5144990  65.6239997
 104.0499992  61.2744990  65.4729997 102.9919992  62.4844990  66.1649997
 102.3979992  60.3814990  66.4959997 101.3199992  60.6154990  66.6299997
 102.4499992  59.4464990  65.8989997 103.1589992  60.2624990  67.7969997
 104.2349992  60.0164990  67.6739997 103.1899992  61.1704990  68.4349997
 102.4449992  59.1354990  68.5129997 101.5599992  59.6104990  68.9879997
 102.1709992  58.3374990  67.7909997 103.2209992  58.6154990  69.7019997
 104.1379992  58.1214990  69.3169997 103.6979992  59.4484990  70.2599997
 102.4919992  57.7194990  70.6759997 101.9329992  58.3344990  71.4139997
 101.8419992  56.9764990  70.1669997 103.5099992  56.9804990  71.5109997
 103.9989992  55.9454990  71.1469997 103.7739992  57.7024990  72.6109997
 104.7299992  57.0484990  73.5569997 104.4769992  57.1124990  74.6369997
 104.7159992  55.9454990  73.4299997 106.1089992  57.6784990  73.2839997
 106.8439992  57.0734990  73.8569997 106.0859992  59.1544990  73.6869997
 105.5519992  59.1784990  74.6609997 107.0599992  59.6414990  73.9049997
 105.4229992  59.9594990  72.7369997 104.4309992  61.1354990  73.0899997
 105.0519992  61.7174990  74.4029997 104.6039992  63.0144990  74.8309997
 105.3379992  63.4034990  75.5689997 104.3789992  63.7534990  74.0319997
 103.1529992  62.8964990  75.5829997 102.8959992  63.9184990  75.8169997
 102.4389992  62.5134990  74.8689997 102.9359992  62.1924990  76.8109997
 101.4849992  62.2694990  77.1769997 101.3809992  61.9134990  78.1909997
 101.1119992  63.2824990  77.2049997 100.8459992  61.6864990  76.5309997
 103.3549992  60.7524990  76.6779997 102.8849992  60.2654990  77.5189997
 102.9099992  60.3934990  75.7619997 104.4349992  60.7694990  76.6649997
 103.7079992  62.9224990  77.8969997 103.4419992  63.9694990  77.8939997
 104.7869992  62.9334990  77.8619997 103.5249992  62.5414990  78.8899997
 104.5739992  62.1774990  72.0739997 103.0639992  60.5704990  73.1919997
 106.3919992  57.4694990  71.9309997 107.4459992  57.9464990  71.3329997
 108.4779992  58.3764990  71.8029997 107.2139992  57.8274990  69.8349997
 106.2889992  58.4014990  69.6119997 106.8919992  56.7744990  69.6819997
 108.3869992  58.1774990  68.9919997 109.1169992  57.4144990  69.3369997
 108.6229992  59.2304990  69.2549997 108.1299992  58.0954990  67.4799997
 107.6209992  57.1264990  67.2889997 109.1499992  58.1804990  67.0479997
 107.2469992  59.3294990  66.9939997 107.9479992  60.1494990  66.7289997
 106.7219992  59.5194990  67.9549997 106.0829992  59.1104990  65.9619997
 105.4959992  60.0534990  65.9879997 105.4529992  58.3074990  66.4029997
 106.4899992  58.5924990  64.5949997 105.6449992  58.3774990  63.9059997
 106.8169992  57.5404990  64.7359997 107.4539992  59.5064990  63.9699997
 107.6199992  58.9344990  63.0319997 108.4439992  59.4544990  64.4709997
 107.0129992  60.9384990  63.5699997 106.5469992  61.5134990  64.3839997
 107.2269992  61.5614990  62.4049997 106.9109992  62.6154990  62.3749997
 107.9499992  61.0614990  61.1379997 108.8549992  60.4834990  61.4209997
 108.1209992  61.8294990  60.3529997 107.0849992  60.1004990  60.3669997
 106.1289992  60.6514990  60.2379997 106.8959992  59.0924990  60.7959997
 107.5609992  59.8364990  58.9419997 107.5329992  60.7244990  58.2749997
 106.8079992  59.1204990  58.5499997 108.9129992  59.0554990  58.9529997
 108.7079992  58.0694990  59.4219997 109.6319992  59.5224990  59.6599997
 109.6329992  58.9374990  57.6239997 110.4719992  58.2434990  57.8439997
 110.0439992  59.8584990  57.1579997 108.8289992  58.1874990  56.4449997
 109.6009992  58.1664990  55.6459997 107.9469992  58.8274990  56.2279997
 108.4059992  56.7164990  56.6869997 107.7289992  56.6944990  57.5679997
 109.3589992  56.1474990  56.6319997 107.5739992  56.1354990  55.5569997
 108.2669992  56.0214990  54.6969997 106.6929992  56.7424990  55.2559997
 107.1719992  55.1414990  55.8459997  22.8949992  61.1044990  55.0969997
  22.1089992  61.4314990  55.8099997  23.2179992  60.0504990  55.2379997
  22.5079992  61.1414990  54.0559997  24.2069992  61.9464990  55.1129997
  24.8449992  61.8774990  54.2059997  23.9179992  62.9724990  55.4279997
  25.1789992  61.5134990  56.2709997  25.5079992  60.5104990  55.9249997
  26.1029992  62.1264990  56.3419997  24.5699992  61.3084990  57.6649997
  23.8069992  60.5014990  57.6229997  25.3729992  61.0714990  58.3949997
  24.0389992  62.6054990  58.2669997  24.8819992  63.3194990  58.1529997
  23.3079992  62.9774990  57.5169997  23.4469992  62.4284990  59.6869997
  22.4049992  62.0454990  59.6319997  24.0529992  61.7034990  60.2709997
  23.4189992  63.6124990  60.6579997  23.0549992  63.1424990  61.5969997
  24.4089992  64.0734990  60.8619997  22.4719992  64.7554990  60.3999997
  22.8609992  65.2484990  59.4839997  21.4129992  64.4644990  60.2359997
  22.5009992  65.7114990  61.6159997  23.5459992  65.9134990  61.9329997
  22.1909992  66.7544990  61.3919997  21.7329992  65.2394990  62.8919997
  20.6369992  65.0864990  62.7919997  22.1219992  64.2584990  63.2389997
  21.9229992  66.2854990  64.0099997  22.0459992  67.3154990  63.6109997
  21.0989992  66.3284990  64.7539997  23.1529992  65.9564990  64.8829997
  22.8959992  65.0844990  65.5209997  24.0719992  65.6744990  64.3249997
  23.4609992  67.0474990  65.9579997  24.1529992  67.7924990  65.5089997
  22.6009992  67.7004990  66.2159997  24.3019992  66.5804990  67.1969997
  23.7189992  65.7204990  67.5899997  25.2809992  66.1384990  66.9119997
  24.4599992  67.7134990  68.1959997  24.9029992  68.5664990  67.6379997
  23.4739992  67.9304990  68.6589997  25.3859992  67.4074990  69.3399997
  25.1249992  67.9054990  70.4189997  26.4899992  66.7264990  68.9999997
  27.3659992  66.5514990  70.1119997  28.3369992  66.1324990  69.7719997
  27.5269992  67.5064990  70.6569997  26.8739992  65.4114990  70.9789997
  25.9599992  65.8084990  71.4719997  27.8309992  65.0684990  72.1039997
  28.8049992  64.8984990  71.5979997  28.0169992  65.9174990  72.7959997
  27.5059992  63.8214990  72.7339997  27.2769992  63.7024990  74.2849997
  25.7599992  64.1904990  74.3189997  24.7439992  63.4044990  73.7219997
  23.9679992  64.0864990  73.3129997  25.1129992  62.9254990  72.7899997
  24.0029992  62.3964990  74.5089997  23.0259992  62.3234990  74.0539997
  24.4279992  61.4074990  74.4219997  23.7209992  62.6734990  76.0289997
  22.6029992  61.7754990  76.4969997  22.0869992  62.1304990  77.3769997
  21.9089992  61.6944990  75.6729997  22.9899992  60.7684990  76.5409997
  25.0369992  62.5704990  76.7859997  25.2219992  61.5354990  77.0309997
  25.8459992  62.8994990  76.1499997  25.0039992  63.0594990  77.7479997
  23.2409992  64.1324990  76.0699997  22.1849992  64.1994990  75.8519997
  23.8529992  64.7214990  75.4029997  23.3599992  64.4624990  77.0909997
  27.2729992  62.2734990  74.6499997  28.2279992  64.6364990  74.8709997
  26.7539992  64.2574990  70.1719997  25.4499992  63.8384990  69.9519997
  24.4549992  64.5304990  70.1069997  25.5009992  62.3414990  69.5579997
  25.4429992  61.8124990  70.5329997  26.4279992  62.1404990  68.9789997
  24.3139992  61.9964990  68.6459997  23.4129992  62.3934990  69.1599997
  24.3339992  60.8994990  68.4749997  24.4429992  62.5444990  67.2089997
  24.2659992  63.6254990  67.3949997  23.5339992  62.1784990  66.6869997
  25.6489992  62.1824990  66.3409997  25.8329992  61.0864990  66.3539997
  26.5549992  62.7514990  66.6419997  25.1719992  62.4924990  64.8759997
  24.6469992  63.4714990  64.8629997  24.5729992  61.6524990  64.4629997
  26.2709992  62.6354990  63.7639997  25.6909992  62.8804990  62.8489997
  26.9119992  61.7404990  63.6109997  27.3519992  63.7384990  63.8989997
  27.8879992  63.6244990  62.9319997  28.0379992  63.5534990  64.7519997
  26.8549992  65.1114990  64.2399997  26.5739992  65.1764990  65.3009997
  26.7469992  66.1414990  63.4549997  26.4119992  67.0774990  63.9259997
  27.0279992  66.1514990  61.9719997  26.2479992  66.7304990  61.4319997
  27.0279992  65.1154990  61.5709997  28.4179992  66.8294990  61.7499997
  29.1559992  66.1444990  62.2199997  28.4879992  67.8894990  62.0749997
  28.7629992  66.9854990  60.2849997  29.4689992  67.8354990  60.1639997
  27.9159992  67.3124990  59.6449997  29.2949992  65.7954990  59.5369997
  28.7559992  64.8594990  59.7959997  30.3959992  65.7414990  59.6799997
  29.0709992  65.8424990  58.0289997  29.5429992  66.7314990  57.5589997
  27.9629992  65.8174990  57.9529997  29.7089992  64.5424990  57.3679997
  30.7869992  64.4704990  57.6269997  29.5669992  64.7504990  56.2859997
  29.0679992  63.2014990  57.7809997  27.9919992  63.4194990  57.9529997
  29.5619992  63.0124990  58.7579997  29.3799992  61.9544990  56.8819997
  28.9119992  60.9774990  57.1279997  30.4759992  61.7994990  56.9759997
  29.2199992  62.2384990  55.8199997  34.1859992  43.2504990  57.6809997
  34.7679992  42.8294990  56.8329997  34.0139992  44.3344990  57.5089997
  33.2909992  42.5924990  57.6779997  34.9489992  43.0854990  59.0239997
  35.3219992  42.0464990  59.1519997  35.7959992  43.7854990  58.8649997
  33.9889992  43.4594990  60.1589997  33.6329992  44.5084990  60.0809997
  33.1879992  42.6914990  60.1139997  34.5139992  43.2674990  61.5829997
  35.1809992  44.1324990  61.7879997  33.6409992  43.4014990  62.2569997
  35.1949992  41.9354990  61.8829997  34.7669992  41.0954990  61.2949997
  36.2729992  42.0124990  61.6239997  35.0639992  41.5164990  63.3619997
  33.9789992  41.3964990  63.5689997  35.6129992  40.5694990  63.5529997
  35.7189992  42.5084990  64.3949997  36.7549992  42.5804990  64.0009997
  35.0969992  43.4224990  64.2799997  35.5869992  42.0954990  65.8679997
  34.5099992  41.8504990  65.9879997  36.2229992  41.1874990  65.9379997
  36.0769992  43.1574990  66.8259997  37.1279992  43.4524990  66.6179997
  35.4379992  44.0644990  66.7689997  36.0689992  42.6894990  68.2639997
  36.1999992  41.5954990  68.1209997  36.9399992  43.1714990  68.7589997
  34.7869992  42.9474990  69.0149997  33.9859992  42.4314990  68.4439997
  34.7969992  42.2734990  69.8979997  34.6109992  44.3644990  69.4599997
  35.5639992  44.8754990  69.7129997  34.2039992  45.0014990  68.6449997
  33.8389992  44.4664990  70.7839997  32.7609992  44.2224990  70.6739997
  34.1989992  43.7534990  71.5569997  33.7849992  45.9344990  71.2669997
  34.7649992  46.2454990  71.6869997  33.4559992  46.5574990  70.4089997
  32.9159992  46.2734990  72.4459997  33.2569992  45.7254990  73.3499997
  33.0469992  47.3464990  72.7009997  31.4239992  45.8674990  72.0899997
  30.7419992  46.4594990  71.2649997  31.0799992  44.8224990  72.8789997
  29.7039992  44.5064990  72.9989997  29.2879992  45.0474990  73.8759997
  29.1309992  44.9124990  72.1369997  29.3969992  42.9744990  73.0419997
  28.2929992  42.8484990  73.0399997  30.0619992  42.3584990  74.2909997
  29.9529992  43.1084990  75.1019997  29.5499992  41.3914990  74.4829997
  31.4779992  42.1474990  74.1379997  32.2359992  41.3494990  75.2719997
  33.4799992  42.2494990  75.4799997  34.1489992  42.7184990  74.3209997
  33.4399992  42.9434990  73.4959997  34.4649992  43.7624990  74.5299997
  35.2089992  41.8394990  73.7679997  34.8419992  40.8854990  73.4209997
  35.7189992  42.3474990  72.9629997  36.2739992  41.3144990  74.8059997
  36.9499992  42.4834990  75.4549997  36.2639992  42.9984990  76.1109997
  37.7509992  42.1234990  76.0839997  37.4719992  43.1214990  74.7579997
  35.7699992  40.4264990  75.8839997  35.2439992  41.1174990  76.5259997
  35.1769992  39.6394990  75.4409997  36.6179992  40.0694990  76.4499997
  37.3079992  40.5814990  74.0289997  37.8769992  41.3354990  73.5039997
  36.7539992  39.9624990  73.3379997  38.0179992  40.1154990  74.6949997
  31.4479992  41.3544990  76.5629997  32.7089992  40.0244990  74.7559997
  30.0009992  42.2944990  71.8959997  29.3129992  42.4894990  70.7349997
  28.3009992  43.1514990  70.6059997  30.0239992  41.7784990  69.5619997
  30.2159992  40.7304990  69.8769997  30.9189992  42.4104990  69.3789997
  29.2369992  41.7154990  68.2729997  29.1349992  42.7794990  67.9709997
  28.3129992  41.1234990  68.4449997  29.9959992  41.0344990  67.0759997
  29.2479992  41.0244990  66.2549997  30.4269992  40.0674990  67.4139997
  31.1919992  41.8454990  66.4069997  31.5829992  41.2344990  65.5649997
  31.9879992  41.8594990  67.1829997  30.9879992  43.2984990  65.9089997
  30.9689992  43.8754990  66.8579997  29.9679992  43.3624990  65.4709997
  32.0599992  43.9484990  64.9649997  32.1999992  43.3774990  64.0219997
  32.9259992  43.8774990  65.6559997  31.7629992  45.3884990  64.5819997
  32.5639992  45.6064990  63.8429997  31.8099992  45.8924990  65.5719997
  30.3349992  45.5894990  64.0649997  29.5589992  45.2344990  64.7589997
  29.9439992  46.1804990  62.8949997  28.9019992  46.5234990  62.8119997
  30.8749992  46.7514990  61.8429997  31.8849992  47.0464990  62.1999997
  30.3679992  47.5894990  61.3199997  31.0289992  45.6904990  60.7109997
  31.5259992  44.7934990  61.1389997  31.6229992  46.1114990  59.8719997
  29.6479992  45.3524990  60.0729997  29.1229992  46.2464990  59.6739997
  28.9999992  44.9364990  60.8739997  29.7869992  44.3314990  58.8939997
  30.4379992  43.5074990  59.2579997  30.2709992  44.8844990  58.0609997
  28.4069992  43.8904990  58.4859997  27.7719992  44.7764990  58.2699997
  27.9229992  43.3474990  59.3259997  28.5019992  42.8454990  57.3279997
  27.6409992  42.1564990  57.1979997  29.3979992  42.2264990  57.5499997
  28.8919992  43.4864990  55.9939997  29.7569992  44.1824990  56.0079997
  28.0189992  44.1014990  55.6879997  29.1149992  42.4314990  54.8659997
  28.3659992  41.6114990  54.8829997  30.1199992  42.0354990  55.1279997
  29.1609992  42.9554990  53.8879997 110.2899992  85.9124990  54.9189997
 111.3909992  86.0464990  54.9859997 109.7749992  86.6104990  54.2249997
 110.0779992  84.8924990  54.5319997 109.7849992  85.9254990  56.3499997
 110.0849992  86.9164990  56.7519997 108.6769992  85.9384990  56.2719997
 110.3499992  84.8694990  57.2069997 109.9479992  83.9094990  56.8169997
 111.4599992  84.9214990  57.2079997 110.0119992  85.2184990  58.7349997
 110.4739992  86.2154990  58.9019997 108.9059992  85.2134990  58.8369997
 110.7449992  84.2694990  59.7069997 110.4169992  83.2124990  59.6089997
 111.8389992  84.2734990  59.5129997 110.5089992  84.7064990  61.2109997
 110.7509992  83.7654990  61.7509997 111.2759992  85.5004990  61.3379997
 109.0669992  85.1444990  61.5929997 108.7439992  86.0304990  61.0049997
 108.4859992  84.2134990  61.4239997 108.8619992  85.5444990  63.0289997
 109.7349992  86.0994990  63.4329997 107.9229992  86.1374990  62.9779997
 108.5969992  84.3104990  63.8659997 107.6419992  83.8244990  63.5709997
 109.3919992  83.5414990  63.7649997 108.5309992  84.6904990  65.3739997
 109.5849992  84.9924990  65.5529997 107.9229992  85.6174990  65.4439997
 108.1469992  83.4724990  66.2819997 107.2209992  82.9884990  65.9039997
 108.9839992  82.7424990  66.2919997 107.9769992  84.0184990  67.7579997
 108.9359992  84.0184990  68.3179997 107.7429992  85.1024990  67.6879997
 106.7549992  83.3764990  68.5039997 106.2989992  84.1184990  69.1939997
 106.0009992  83.1904990  67.7109997 107.1659992  81.9914990  69.1159997
 106.2569992  81.4794990  69.4969997 107.4899992  81.4124990  68.2239997
 108.1509992  81.9724990  70.2259997 109.0949992  82.4034990  69.8279997
 107.8419992  82.5104990  71.1469997 108.7659992  80.6334990  70.5029997
 108.4319992  79.6284990  69.9189997 109.8129992  80.8164990  71.3609997
 110.8059992  79.7964990  71.3629997 110.4639992  78.9774990  72.0309997
 110.8799992  79.4004990  70.3279997 112.1849992  80.2914990  71.7889997
 112.8119992  79.3764990  71.7269997 112.1279992  80.7624990  73.3079997
 111.6189992  79.9954990  73.9289997 113.1279992  80.8324990  73.7869997
 111.3719992  81.9384990  73.2609997 111.1819992  82.8724990  74.5069997
 109.6939992  83.3434990  74.5759997 109.0089992  84.1464990  73.6339997
 109.6589992  84.4754990  72.7949997 108.2579992  83.4684990  73.1749997
 108.5539992  85.4414990  74.3479997 109.3609992  86.1384990  74.5219997
 107.8149992  85.8114990  73.6529997 107.8639992  85.3034990  75.7039997
 108.7919992  84.8444990  76.7999997 109.3779992  85.6644990  77.1889997
 108.1089992  84.5014990  77.5629997 109.4599992  84.0774990  76.4389997
 107.2819992  86.6434990  76.1289997 106.8789992  86.5164990  77.1229997
 108.0649992  87.3874990  76.1249997 106.4769992  86.9524990  75.4779997
 106.7689992  84.2324990  75.6009997 107.3289992  83.3224990  75.4459997
 106.1329992  84.5454990  74.7859997 106.2639992  84.2864990  76.5539997
 111.5519992  82.0754990  75.7489997 111.9769992  84.0884990  74.1639997
 112.6399992  81.3884990  70.9159997 113.7819992  81.8344990  71.2129997
 114.6969992  81.2024990  71.8659997 113.9989992  83.2314990  70.5919997
 114.9999992  83.5964990  70.9089997 113.3099992  83.9944990  71.0119997
 113.8569992  83.4434990  69.1079997 114.2889992  82.6254990  68.4929997
 114.2939992  84.4584990  68.9839997 112.3909992  83.5414990  68.6609997
 112.1349992  84.6194990  68.5799997 111.7479992  83.0124990  69.3969997
 112.2449992  82.8414990  67.2349997 111.2419992  82.3644990  67.2379997
 112.8799992  81.9304990  67.2749997 112.4729992  83.7504990  66.0959997
 113.5399992  84.0584990  66.0449997 111.8609992  84.6514990  66.3129997
 112.1069992  83.2124990  64.7489997 112.1359992  84.0454990  64.0149997
 111.0999992  82.7574990  64.6339997 113.2149992  82.2234990  64.1909997
 114.2359992  82.6464990  64.0829997 112.9019992  81.9644990  63.1569997
 113.3919992  80.8474990  64.9069997 114.2389992  80.8394990  65.6089997
 112.6429992  79.7094990  64.6859997 112.8569992  78.7914990  65.2529997
 111.4939992  79.6814990  63.6929997 111.4489992  78.6654990  63.2449997
 111.6819992  80.3434990  62.8209997 110.0919992  79.9864990  64.2759997
 110.0569992  81.0404990  64.6259997 109.9009992  79.2414990  65.0769997
 108.9419992  79.8554990  63.2809997 107.9889992  80.2574990  63.6879997
 108.8579992  78.7844990  62.9989997 109.1179992  80.6464990  62.0089997
 109.9099992  80.3074990  61.3069997 109.3349992  81.7094990  62.2459997
 107.8629992  80.6244990  61.0869997 106.9809992  80.8094990  61.7369997
 107.6649992  79.6024990  60.6989997 107.9969992  81.6244990  59.8549997
 108.6509992  81.0664990  59.1509997 108.6019992  82.5164990  60.1269997
 106.6589992  82.2284990  59.3539997 106.3499992  82.9444990  60.1449997
 105.9879992  81.3674990  59.1439997 106.8589992  82.9974990  58.0669997
 105.8679992  83.4524990  57.8559997 107.1529992  82.2844990  57.2669997
 107.5299992  83.8834990  58.0859997  36.8539992  94.9424990  57.6639997
  37.2919992  94.9334990  56.6429997  36.2059992  95.8384990  57.7679997
  36.1639992  94.0764990  57.7559997  37.9169992  94.9884990  58.7749997
  38.5469992  95.8874990  58.6029997  37.3749992  95.1034990  59.7369997
  38.7709992  93.6394990  58.8819997  38.2269992  92.6714990  58.9149997
  39.3779992  93.5594990  57.9549997  39.6519992  93.8344990  60.1159997
  40.0199992  94.8704990  60.2739997  39.0729992  93.4814990  60.9959997
  40.9719992  93.0654990  59.9159997  41.4749992  93.2994990  58.9539997
  41.6569992  93.5574990  60.6399997  40.9599992  91.5304990  60.1789997
  40.1929992  91.0984990  59.5009997  41.9209992  91.0274990  59.9399997
  40.6349992  91.0074990  61.6329997  41.4049992  91.4554990  62.2979997
  39.6279992  91.3804990  61.9169997  40.6319992  89.4524990  61.8109997
  39.9509992  88.9974990  61.0599997  41.5989992  88.9384990  61.6229997
  40.0839992  89.1444990  63.2449997  40.6709992  89.8524990  63.8669997
  38.9919992  89.3024990  63.3799997  40.3889992  87.7924990  63.7279997
  39.7679992  87.0734990  63.1529997  41.4039992  87.3924990  63.5189997
  39.9959992  87.5694990  65.2179997  39.0629992  88.1234990  65.4569997
  39.8349992  86.4744990  65.3099997  41.0889992  87.9344990  66.2379997
  42.0849992  87.6814990  65.8169997  40.9489992  89.0194990  66.4289997
  40.9719992  87.2694990  67.5959997  40.0409992  87.4214990  68.1829997
  40.9079992  86.1694990  67.4509997  42.1439992  87.6144990  68.4699997
  42.9929992  87.0754990  67.9989997  42.3789992  88.6964990  68.3869997
  42.1149992  86.9664990  69.8789997  41.6999992  85.9704990  69.6139997
  43.1539992  86.9734990  70.2699997  41.2219992  87.6994990  70.7399997
  40.5189992  87.1304990  71.5679997  41.3739992  89.0284990  70.5889997
  40.6379992  89.9474990  71.4509997  39.6279992  89.5674990  71.7169997
  41.1369992  90.0634990  72.4369997  40.4519992  91.4194990  70.9449997
  41.4149992  91.8884990  70.6479997  39.8849992  92.2474990  72.1049997
  40.6179992  92.2184990  72.9389997  39.8329992  93.3054990  71.7709997
  38.5859992  91.7354990  72.5749997  37.9989992  92.0874990  73.9629997
  39.2209992  91.4604990  74.7899997  39.1219992  90.0854990  75.3409997
  38.1349992  90.0094990  75.8449997  39.1069992  89.3434990  74.5149997
  40.1849992  89.8394990  76.4169997  40.2539992  90.7084990  77.0549997
  39.9099992  88.9424990  76.9519997  41.5879992  89.6164990  75.8399997
  42.1309992  90.8164990  75.1949997  41.6779992  90.9494990  74.2229997
  41.7469992  91.5804990  75.8549997  43.2079992  90.8524990  75.1149997
  42.4879992  89.4174990  77.0799997  42.3729992  88.3864990  77.3809997
  43.4969992  89.5994990  76.7429997  42.1579992  90.0774990  77.8679997
  41.5809992  88.4064990  74.8929997  41.0669992  87.6734990  75.4969997
  42.6189992  88.2434990  74.6449997  41.1089992  88.7144990  73.9719997
  37.9219992  93.5494990  74.2259997  36.7379992  91.3394990  74.1519997
  39.6119992  91.2744990  69.8669997  39.3389992  92.2774990  69.0149997
  39.6389992  93.4594990  69.1369997  38.3789992  91.5854990  68.0419997
  37.3389992  91.4624990  68.4119997  38.8239992  90.5944990  67.8089997
  38.2409992  92.3824990  66.7209997  39.2129992  92.3824990  66.1819997
  37.9139992  93.4374990  66.8359997  37.2439992  91.7074990  65.7949997
  36.2539992  91.7664990  66.2959997  37.6069992  90.6574990  65.7899997
  37.0829992  92.2824990  64.3719997  37.9699992  92.2454990  63.7039997
  36.7049992  93.3264990  64.3809997  35.9339992  91.4804990  63.6479997
  35.8319992  91.9714990  62.6559997  34.9849992  91.6834990  64.1879997
  36.1269992  89.9724990  63.4749997  36.2689992  89.4464990  64.4439997
  37.0079992  89.7754990  62.8269997  34.9559992  89.2954990  62.8049997
  34.4339992  89.9464990  62.0709997  34.2099992  89.0664990  63.5959997
  35.4129992  88.0084990  62.0479997  35.4679992  87.1904990  62.7809997
  35.9009992  87.9564990  60.7759997  36.2879992  86.9804990  60.4449997
  36.0679992  89.1564990  59.8489997  36.0019992  90.0794990  60.4629997
  35.2609992  89.1154990  59.0869997  37.4339992  89.2414990  59.1639997
  38.1419992  89.2764990  60.0189997  37.4199992  90.2154990  58.6289997
  37.9049992  88.2364990  58.1029997  37.0539992  88.2214990  57.3889997
  38.0519992  87.2074990  58.4959997  39.2239992  88.6184990  57.3469997
  40.1409992  88.5444990  57.9689997  39.1419992  89.7144990  57.1829997
  39.3599992  87.8574990  55.9609997  39.2389992  86.7564990  56.0469997
  40.3999992  88.0974990  55.6539997  38.4159992  88.2284990  54.8639997
  38.8359992  89.1974990  54.5189997  37.3669992  88.4104990  55.1839997
  38.6979992  87.4084990  53.5349997  39.7769992  87.2424990  53.3299997
  38.4169992  88.0114990  52.6449997  38.0549992  85.9334990  53.3539997
  38.5039992  85.3064990  54.1549997  38.5499992  85.6484990  52.4009997
  36.9459992  85.9904990  53.3749997  23.9199992  72.9984990  56.3629997
  22.9679992  73.4134990  55.9679997  24.1419992  71.9794990  55.9799997
  24.7969992  73.5454990  55.9549997  24.0549992  73.0284990  57.9079997
  25.1019992  72.7774990  58.1859997  23.7439992  74.0364990  58.2569997
  23.1569992  71.9064990  58.5349997  23.4409992  71.0044990  57.9519997
  23.5719992  71.7954990  59.5589997  21.5889992  72.1744990  58.6399997
  21.3379992  72.7494990  57.7229997  21.0049992  71.2354990  58.5339997
  21.1489992  72.9234990  59.9519997  21.9639992  73.6154990  60.2549997
  20.2689992  73.4994990  59.5939997  20.9479992  71.9244990  61.1099997
  20.1649992  71.2054990  60.7859997  21.8439992  71.3314990  61.3899997
  20.2879992  72.5224990  62.3159997  19.5589992  73.2924990  61.9859997
  19.6129992  71.7304990  62.7049997  21.2679992  73.0274990  63.3549997
  22.0099992  72.2554990  63.6489997  21.8609992  73.8644990  62.9279997
  20.5039992  73.5504990  64.5509997  19.6269992  74.1404990  64.2089997
  19.8709992  72.7054990  64.8959997  21.1899992  74.1674990  65.7599997
  22.0539992  74.7194990  65.3309997  20.5429992  74.9034990  66.2829997
  21.8589992  73.0644990  66.5739997  21.1529992  72.2924990  66.9479997
  22.4489992  72.4984990  65.8219997  22.7379992  73.6774990  67.6959997
  23.2139992  72.7864990  68.1579997  23.5609992  74.2464990  67.2129997
  22.0959992  74.7174990  68.6949997  22.8259992  74.9864990  69.4879997
  21.8789992  75.6084990  68.0679997  20.8009992  74.0774990  69.3309997
  20.4339992  74.7834990  70.1069997  19.9539992  73.8624990  68.6449997
  21.2019992  72.8044990  70.1239997  21.3019992  71.8594990  69.5469997
  22.1329992  73.1044990  70.6489997  20.0819992  72.3764990  71.1849997
  19.5179992  73.1034990  71.9319997  20.0429992  71.0084990  71.0949997
  19.2959992  70.3124990  72.0699997  18.7149992  70.9704990  72.7519997
  18.5349992  69.7204990  71.5179997  20.1899992  69.3664990  72.8269997
  19.4879992  68.8094990  73.4829997  21.1879992  70.2054990  73.7169997
  20.5779992  70.9464990  74.2769997  21.6829992  69.5784990  74.4889997
  22.2709992  70.9694990  73.1169997  22.8919992  72.3084990  73.6679997
  23.7509992  71.6754990  74.8399997  24.9709992  70.9424990  74.6679997
  25.0479992  70.1004990  75.3889997  24.9739992  70.4794990  73.6579997
  26.2169992  71.8444990  74.8719997  27.1309992  71.4114990  74.4929997
  26.0899992  72.7704990  74.3309997  26.5299992  72.3944990  76.3079997
  26.8529992  71.3544990  77.3239997  26.9929992  71.8014990  78.2969997
  26.0359992  70.6524990  77.3989997  27.6899992  70.7184990  77.0769997
  27.8119992  73.3504990  76.0699997  28.2579992  73.4224990  77.0509997
  28.5499992  72.8204990  75.4869997  27.4209992  74.2144990  75.5529997
  25.3679992  73.2464990  76.8199997  25.0949992  73.8764990  75.9859997
  25.7219992  73.8594990  77.6359997  24.6539992  72.4824990  77.0889997
  23.8689992  72.8744990  72.6799997  21.7859992  73.1664990  74.1059997
  20.9079992  68.6244990  71.8409997  21.8209992  67.8124990  72.3339997
  22.2469992  67.6684990  73.4329997  22.4539992  67.0674990  71.1949997
  21.7389992  66.5804990  70.4989997  23.0569992  66.2234990  71.5929997
  23.2519992  68.0984990  70.3889997  24.0899992  68.5844990  70.9339997
  22.5879992  68.9244990  70.0559997  23.7729992  67.3994990  69.0659997
  23.7399992  68.2014990  68.2979997  23.0149992  66.6444990  68.7659997
  25.1559992  66.7454990  69.1309997  25.0969992  65.7584990  69.6389997
  25.7979992  67.4024990  69.7559997  25.8479992  66.3424990  67.7399997
  25.3069992  65.6444990  67.0669997  26.7969992  65.8254990  67.9999997
  26.2839992  67.4774990  66.7649997  26.9589992  68.0414990  67.4429997
  25.3429992  67.9884990  66.4699997  27.1239992  66.9584990  65.5749997
  27.8039992  66.2434990  66.0849997  27.6159992  67.8164990  65.0679997
  26.3249992  66.3204990  64.4499997  26.3979992  65.2254990  64.3729997
  25.5489992  66.8654990  63.4929997  24.9099992  66.2984990  62.8009997
  25.3549992  68.3394990  63.3329997  26.0219992  68.9694990  63.9599997
  24.3499992  68.6464990  63.6919997  25.6769992  68.7424990  61.8879997
  25.4949992  69.8204990  61.6909997  25.0049992  68.2004990  61.1889997
  27.1859992  68.4004990  61.4789997  27.4829992  67.3574990  61.7189997
  27.7409992  69.0334990  62.2039997  27.5989992  68.9264990  60.0929997
  28.6009992  69.4044990  60.0549997  26.8719992  69.7544990  59.9539997
  27.3899992  67.9924990  58.9449997  26.6589992  67.2024990  59.2169997
  28.2819992  67.3344990  58.8729997  27.0009992  68.6604990  57.5919997
  27.9229992  69.1804990  57.2529997  26.0849992  69.2874990  57.6169997
  26.9179992  67.6584990  56.3839997  26.1069992  66.9284990  56.5949997
  27.9249992  67.2014990  56.2739997  26.6619992  68.4504990  55.0509997
  27.3239992  69.3334990  54.9269997  25.5959992  68.7554990  54.9829997
  26.8049992  67.8204990  54.1469997  84.4769992  31.5894990  57.9809997
  83.4819992  31.7744990  57.5229997  84.4659992  30.5084990  58.2389997
  85.2389992  31.7414990  57.1869997  84.8379992  32.4194990  59.1829997
  84.1629992  32.2804990  60.0559997  85.8749992  32.1824990  59.5039997
  84.6989992  33.9054990  58.9329997  85.0739992  34.1614990  57.9199997
  83.6109992  34.0524990  58.7609997  85.1599992  34.8844990  60.0989997
  84.6819992  35.8864990  60.1509997  84.9389992  34.2734990  60.9999997
  86.6889992  35.1754990  60.0199997  87.2229992  34.2064990  59.9189997
  86.9689992  35.7414990  59.1059997  87.2659992  35.9144990  61.1989997
  88.1699992  36.4994990  60.9249997  86.4919992  36.6924990  61.3739997
  87.4699992  35.0544990  62.3659997  86.5719992  34.5254990  62.7499997
  88.2569992  34.3484990  62.0259997  87.9289992  35.8154990  63.6639997
  88.1339992  35.0784990  64.4699997  88.8649992  36.3794990  63.4639997
  86.8299992  36.8194990  64.0669997  86.7399992  37.5734990  63.2559997
  85.9039992  36.2054990  64.0739997  87.0209992  37.6344990  65.3259997
  88.0369992  38.0414990  65.5179997  86.3349992  38.5054990  65.2609997
  86.5609992  36.7694990  66.6219997  85.5319992  36.3994990  66.4249997
  87.3259992  35.9634990  66.6569997  86.5759992  37.5984990  67.8539997
  86.8059992  36.9634990  68.7359997  87.4739992  38.2204990  67.6519997
  85.3319992  38.5484990  68.0809997  85.5199992  39.2944990  68.8829997
  85.2489992  39.0944990  67.1169997  83.9699992  37.8624990  68.5179997
  83.2239992  38.6664990  68.3379997  83.7949992  36.9344990  67.9329997
  83.8219992  37.5674990  70.0009997  84.3739992  36.6514990  70.3029997
  84.1439992  38.3494990  70.7219997  82.3129992  37.2084990  70.2499997
  81.3649992  37.8534990  69.7219997  82.3329992  36.2634990  71.1769997
  81.0429992  35.7124990  71.5699997  80.6799992  36.3644990  72.3929997
  80.3999992  35.7464990  70.6649997  81.1909992  34.2624990  71.9889997
  80.1859992  33.8714990  72.2559997  82.0979992  34.2004990  73.2239997
  81.8949992  35.1404990  73.7799997  81.9409992  33.3524990  73.9259997
  83.4019992  34.0804990  72.6929997  84.7809992  34.6954990  73.2579997
  84.1799992  35.7584990  74.2259997  84.2369992  35.4334990  75.5719997
  83.5219992  36.1414990  76.0459997  83.8849992  34.4074990  75.8119997
  85.6109992  35.5894990  76.3569997  85.4299992  35.2284990  77.3589997
  86.2909992  35.0014990  75.7579997  86.0879992  37.0464990  76.5329997
  85.0079992  38.0594990  76.9109997  84.1409992  37.8694990  76.2949997
  84.8089992  37.9854990  77.9699997  85.4079992  39.0474990  76.7379997
  87.2429992  37.1144990  77.4759997  87.7879992  38.0364990  77.3409997
  86.8159992  36.9594990  78.4559997  87.8829992  36.2634990  77.2959997
  86.6389992  37.5294990  75.2479997  87.4169992  36.8014990  75.0729997
  87.0049992  38.5454990  75.2629997  85.9289992  37.3924990  74.4459997
  85.4719992  33.6724990  74.0869997  85.5029992  35.2874990  72.1109997
  81.5979992  33.5024990  70.8359997  81.6949992  32.2354990  70.9479997
  81.6979992  31.5784990  71.9859997  81.9659992  31.5544990  69.5869997
  81.1709992  30.7834990  69.5019997  82.9019992  30.9574990  69.6229997
  82.1249992  32.5374990  68.4109997  83.2059992  32.7884990  68.4559997
  81.6529992  33.5234990  68.6119997  81.5009992  31.9504990  67.1099997
  80.3919992  32.0184990  67.1149997  81.7939992  30.8794990  67.0789997
  82.0119992  32.7974990  65.9719997  82.4039992  32.0334990  65.2679997
  82.9569992  33.2884990  66.2879997  81.0749992  33.7464990  65.2499997
  80.6719992  34.5484990  65.9049997  80.1179992  33.2214990  65.0429997
  81.5529992  34.4524990  63.9619997  81.6189992  33.6774990  63.1689997
  82.4579992  35.0174990  64.2749997  80.5949992  35.5484990  63.3969997
  79.6929992  34.9314990  63.1969997  81.1299992  35.8924990  62.4849997
  80.4499992  36.6234990  64.4349997  79.5909992  36.5484990  65.1179997
  81.2049992  37.7044990  64.5159997  81.0549992  38.3814990  65.3689997
  82.3579992  38.1104990  63.6159997  82.7349992  37.2624990  63.0059997
  83.2229992  38.5084990  64.1899997  82.0599992  39.2834990  62.6979997
  81.6309992  40.1634990  63.2229997  81.2569992  38.9804990  61.9929997
  83.2559992  39.6984990  61.8759997  84.1799992  39.3364990  62.3759997
  83.2639992  40.8094990  61.8969997  83.3869992  39.1624990  60.4359997
  82.4259992  39.4544990  59.9609997  83.4809992  38.0554990  60.4599997
  84.6059992  39.7564990  59.6959997  85.5339992  39.2814990  60.0789997
  84.6249992  40.8474990  59.9069997  84.5469992  39.6774990  58.1369997
  85.3699992  40.3094990  57.7399997  83.5619992  40.0434990  57.7769997
  84.4689992  38.1914990  57.6319997  83.4309992  37.8984990  57.8989997
  85.2449992  37.6674990  58.2299997  84.6859992  37.9344990  56.1309997
  84.3109992  38.7164990  55.4369997  84.3009992  36.9294990  55.8569997
  85.7859992  37.8194990  56.0199997  24.2599992  55.1724990  56.3489997
  24.8989992  55.9634990  55.9029997  23.1939992  55.4814990  56.2959997
  24.3139992  54.2224990  55.7759997  24.5949992  55.0144990  57.8719997
  25.6649992  54.7154990  57.8989997  24.2779992  55.9034990  58.4579997
  23.7949992  53.8144990  58.4639997  24.0449992  53.8284990  59.5459997
  22.7169992  54.0514990  58.5919997  23.9449992  52.4594990  57.7369997
  23.3049992  51.8574990  58.4179997  23.4709992  52.5054990  56.7339997
  25.3779992  51.8544990  57.4809997  25.3889992  50.9724990  56.8049997
  25.9059992  52.6784990  56.9549997  26.0269992  51.5354990  58.7669997
  25.9759992  52.4344990  59.4179997  25.4109992  50.7064990  59.1769997
  27.5189992  51.1274990  58.7049997  27.6029992  50.1794990  58.1309997
  28.0029992  52.0354990  58.2849997  28.0159992  50.9924990  60.1269997
  27.6359992  51.8164990  60.7679997  27.5869992  50.0724990  60.5779997
  29.5189992  51.0534990  60.2779997  29.9399992  50.2004990  59.7049997
  29.9029992  51.9244990  59.7049997  30.0109992  50.9664990  61.7329997
  29.2519992  50.5164990  62.4089997  30.8669992  50.2604990  61.7929997
  30.5449992  52.2584990  62.3679997  31.3349992  52.7054990  61.7279997
  29.6279992  52.8844990  62.3999997  30.9199992  51.9924990  63.8509997
  31.5649992  51.0884990  63.8199997  31.4939992  52.8294990  64.3019997
  29.8189992  51.6064990  64.8129997  29.1539992  52.4524990  65.0899997
  29.0619992  51.0234990  64.2449997  30.1549992  50.7784990  66.0969997
  29.7949992  49.7284990  66.1259997  31.2389992  50.5594990  66.2049997
  29.4249992  51.3614990  67.3309997  28.3359992  51.4874990  67.1529997
  29.4509992  50.6274990  68.1649997  30.1099992  52.6934990  67.7569997
  31.0869992  53.1604990  67.1689997  29.6499992  53.0564990  68.9029997
  30.1759992  54.2344990  69.5029997  31.0439992  53.9474990  70.1329997
  30.4749992  55.0374990  68.7959997  29.0399992  54.8424990  70.3799997
  29.3349992  55.8344990  70.7829997  28.7029992  53.9334990  71.5779997
  29.0459992  52.9384990  71.2219997  29.2759992  54.0414990  72.5229997
  27.3789992  53.6674990  72.0269997  26.4789992  54.6814990  72.7429997
  25.9869992  53.9224990  74.0289997  26.8189992  53.0454990  74.7219997
  26.2919992  52.0914990  74.9349997  27.7429992  52.8034990  74.1549997
  27.4839992  53.7014990  75.9019997  28.4019992  53.2204990  76.2049997
  27.8769992  54.6074990  75.4659997  26.6379992  53.9864990  77.1929997
  27.6389992  54.5144990  78.1859997  28.4009992  53.7934990  78.4399997
  28.0279992  55.4564990  77.8269997  27.1899992  54.6714990  79.1549997
  25.7059992  55.1794990  77.0119997  25.2359992  55.5234990  77.9219997
  26.3019992  55.9464990  76.5399997  24.9329992  54.8024990  76.3599997
  25.7539992  52.8774990  77.6479997  25.1509992  53.1084990  78.5129997
  26.3269992  52.0204990  77.9689997  25.0969992  52.5934990  76.8389997
  27.2819992  55.8454990  73.1529997  25.3219992  55.0104990  71.8569997
  27.8229992  54.9934990  69.6509997  27.5349992  56.1904990  69.1299997
  28.2379992  57.1954990  69.0309997  25.9959992  56.2714990  68.7999997
  25.5329992  57.0224990  69.4749997  25.5389992  55.2804990  69.0079997
  25.6889992  56.5974990  67.3749997  26.1509992  57.5804990  67.1399997
  24.6089992  56.7504990  67.1629997  26.2839992  55.5554990  66.3249997
  25.9019992  54.5124990  66.2929997  27.2959992  55.3494990  66.7339997
  26.5069992  56.1754990  64.9389997  26.5899992  57.2824990  65.0019997
  25.5859992  55.8624990  64.4019997  27.7459992  55.6264990  64.2219997
  27.7309992  54.5154990  64.2559997  28.5529992  55.9334990  64.9219997
  28.0239992  56.2484990  62.8469997  29.1119992  56.3044990  62.6279997
  27.7229992  57.3144990  62.9369997  27.2759992  55.5574990  61.6919997
  26.1869992  55.5234990  61.9129997  27.5739992  54.4954990  61.5559997
  27.3949992  56.3234990  60.3249997  26.8249992  57.2434990  60.1229997
  28.1139992  56.0064990  59.2659997  28.0399992  56.5584990  58.3179997
  29.0219992  54.8314990  59.0999997  28.4999992  54.2044990  58.3469997
  29.1679992  54.3454990  60.0879997  30.5469992  55.0064990  58.7239997
  30.9169992  53.9774990  58.5269997  31.0989992  55.3524990  59.6239997
  30.9409992  55.8274990  57.5749997  32.0369992  55.8154990  57.3949997
  30.6089992  56.8874990  57.6129997  30.4029992  55.2484990  56.2069997
  30.5629992  56.0944990  55.5039997  29.3139992  55.0874990  56.3599997
  31.0979992  53.9934990  55.7349997  31.0719992  53.1714990  56.4809997
  32.1659992  54.2344990  55.5429997  30.5279992  53.3984990  54.4859997
  30.7789992  54.1384990  53.6969997  29.4169992  53.3954990  54.4849997
  31.0849992  51.9924990  54.1519997  30.4979992  51.6484990  53.2729997
  30.7789992  51.2444990  54.9139997  32.5759992  51.8644990  53.8369997
  32.7069992  50.8494990  53.4049997  33.1039992  51.9244990  54.8119997
  32.9279992  52.6144990  53.0959997 110.2119992  69.7594990  55.5759997
 110.5659992  70.8014990  55.4219997 109.2059992  69.5834990  55.1399997
 110.8959992  69.0424990  55.0729997 110.3439992  69.3564990  57.0349997
 110.6219992  68.2894990  57.1679997 111.1369992  69.9914990  57.4859997
 109.0819992  69.6324990  57.8689997 108.9219992  70.7294990  57.9269997
 108.2359992  69.1984990  57.2929997 109.0339992  69.0044990  59.2549997
 108.0539992  69.3634990  59.6369997 109.0719992  67.8974990  59.1749997
 109.9719992  69.4844990  60.3099997 110.9799992  69.1814990  59.9519997
 109.9499992  70.5734990  60.5249997 109.8069992  68.8634990  61.7019997
 108.8539992  68.3374990  61.9269997 110.5489992  68.0374990  61.7309997
 110.1089992  69.8034990  62.9189997 111.1739992  70.1174990  62.8889997
 109.5199992  70.7214990  62.7109997 109.7789992  69.2144990  64.2579997
 108.7499992  68.7964990  64.2769997 110.4179992  68.3134990  64.3729997
 109.8979992  70.1884990  65.4219997 110.9629992  70.3414990  65.6989997
 109.4139992  71.1864990  65.3689997 109.3299992  69.4574990  66.6189997
 108.2439992  69.2304990  66.5639997 109.9059992  68.5194990  66.7649997
 109.5429992  70.2184990  67.9439997 110.5889992  70.5754990  68.0489997
 109.0609992  71.2164990  68.0179997 109.2039992  69.4614990  69.2339997
 109.4629992  70.2314990  69.9919997 108.1249992  69.2204990  69.3429997
 110.0289992  68.1384990  69.5529997 109.6639992  67.7564990  70.5299997
 109.5999992  67.5114990  68.7419997 111.5369992  68.1454990  69.4989997
 111.9719992  67.1894990  69.1379997 111.9249992  68.9294990  68.8139997
 112.2069992  68.3774990  70.8969997 111.8159992  67.6324990  71.6219997
 113.3119992  68.4514990  70.8119997 111.9299992  69.7494990  71.5059997
 112.5149992  70.8044990  71.1829997 110.9419992  69.6674990  72.4139997
 110.6389992  70.9004990  73.0339997 111.5149992  71.2714990  73.6079997
 110.3579992  71.6584990  72.2719997 109.3509992  70.6614990  73.9109997
 108.8059992  71.6244990  74.0129997 109.6939992  70.1294990  75.3609997
 110.3609992  70.8744990  75.8459997 108.8179992  70.1904990  76.0409997
 110.1509992  68.7304990  75.2779997 110.9489992  68.1884990  76.5449997
 111.3069992  66.6604990  76.2149997 112.1129992  66.3574990  75.1249997
 112.9789992  67.0454990  75.0179997 112.6069992  65.3874990  75.3449997
 111.3519992  66.2244990  73.8109997 110.9169992  67.1984990  73.6399997
 112.0699992  66.0984990  73.0139997 110.5019992  65.0804990  73.4099997
 110.2079992  65.2784990  71.9439997 109.6979992  64.4284990  71.5139997
 109.4959992  66.0844990  71.8429997 111.1159992  65.6024990  71.4579997
 111.2139992  63.7894990  73.6329997 110.5309992  62.9624990  73.4989997
 112.0259992  63.8094990  72.9199997 111.7739992  63.7294990  74.5539997
 109.2279992  65.0824990  74.2249997 108.5459992  64.3794990  73.7679997
 108.7609992  66.0564990  74.2249997 109.5709992  64.8144990  75.2129997
 112.2199992  68.9844990  76.6469997 109.9439992  68.2624990  77.6399997
 108.5029992  69.7284990  73.2459997 107.3559992  69.4594990  73.8099997
 106.8829992  70.1334990  74.7389997 106.9379992  68.0634990  73.2609997
 106.2679992  67.5204990  73.9599997 107.8409992  67.4204990  73.3309997
 106.3769992  68.0974990  71.8349997 107.1709992  68.4764990  71.1569997
 105.4769992  68.7404990  71.7279997 106.1099992  66.6204990  71.4549997
 105.1849992  66.3664990  72.0139997 106.9149992  65.9644990  71.8489997
 105.9969992  66.4284990  69.9349997 105.8999992  67.3694990  69.3539997
 105.0439992  65.8824990  69.7689997 107.2179992  65.6234990  69.5039997
 107.3689992  64.7394990  70.1589997 108.0539992  66.3494990  69.5869997
 107.1169992  65.1954990  68.0179997 107.1879992  66.0534990  67.3149997
 106.1199992  64.7424990  67.8349997 108.2259992  64.1654990  67.6879997
 107.8719992  63.6474990  66.7709997 108.2689992  63.3684990  68.4609997
 109.5609992  64.8404990  67.6219997 109.7099992  65.4944990  68.4939997
 110.5149992  64.8234990  66.6639997 111.4139992  65.4354990  66.8299997
 110.6179992  64.1634990  65.3639997 110.0679992  63.2014990  65.4449997
 111.7009992  64.0254990  65.1589997 110.0089992  65.1454990  64.3029997
 110.4939992  66.1444990  64.3279997 108.9159992  65.3124990  64.4179997
 110.4439992  64.7284990  62.8849997 111.5429992  64.7364990  62.7269997
 110.2129992  65.5584990  62.1829997 109.8529992  63.4924990  62.3829997
 108.7949992  63.3694990  62.6979997 110.2579992  62.6684990  63.0089997
 109.9629992  63.2494990  60.8829997 109.5729992  62.2194990  60.7379997
 111.0619992  63.3724990  60.7819997 109.1529992  64.1154990  59.9009997
 108.6109992  64.9744990  60.3509997 108.3679992  63.4394990  59.4999997
 110.0119992  64.6444990  58.7759997 110.4239992  63.7354990  58.2889997
 110.8589992  65.3074990  59.0539997 109.2699992  65.3354990  57.6389997
 108.4289992  64.6544990  57.3859997 109.9349992  65.6224990  56.7969997
 108.8599992  66.3194990  57.9529997  81.8049992  25.0544990  57.4459997
  81.0399992  24.2504990  57.5019997  82.5209992  24.8024990  56.6349997
  81.2989992  25.9574990  57.0429997  82.6319992  25.4054990  58.6599997
  82.9539992  24.3934990  58.9869997  83.5019992  26.0674990  58.4669997
  81.7389992  26.0074990  59.7359997  81.3999992  27.0354990  59.4829997
  80.9469992  25.2404990  59.8729997  82.5829992  26.0664990  61.0419997
  82.8309992  25.0194990  61.3179997  83.5919992  26.4864990  60.8399997
  81.8869992  26.8464990  62.1509997  82.6989992  26.9654990  62.9009997
  81.6079992  27.8844990  61.8719997  80.7219992  26.1374990  62.6099997
  80.0109992  26.1734990  61.7569997  80.9859992  25.0704990  62.7699997
  80.2679992  26.7574990  63.9839997  80.0599992  25.8934990  64.6519997
  81.1589992  27.2084990  64.4699997  79.0969992  27.7264990  63.8669997
  79.3669992  28.5514990  63.1739997  78.2469992  27.1964990  63.3859997
  78.7399992  28.5584990  65.2079997  79.4819992  29.3854990  65.1979997
  77.7569992  29.0704990  65.1239997  78.8229992  27.7594990  66.5349997
  77.9439992  27.1024990  66.7119997  79.7109992  27.0944990  66.5889997
  78.6409992  28.6424990  67.7879997  79.4579992  29.3864990  67.9049997
  77.7979992  29.3624990  67.7189997  78.4499992  27.8214990  69.1119997
  78.5699992  28.6114990  69.8839997  77.3699992  27.5644990  69.0949997
  79.4079992  26.7144990  69.1699997  79.2459992  26.0264990  68.3129997
  80.4009992  27.2134990  69.1449997  79.3769992  25.9384990  70.5619997
  79.3549992  26.7424990  71.3289997  78.4279992  25.3624990  70.5189997
  80.4339992  24.9094990  70.9549997  80.2499992  24.8084990  72.0459997
  80.2869992  23.9234990  70.4639997  81.9209992  25.2984990  70.7109997
  82.3689992  25.6624990  69.6449997  82.6059992  25.0994990  71.9029997
  83.8949992  25.7064990  72.0399997  84.3789992  25.1484990  72.8689997
  84.4709992  25.6744990  71.0899997  83.7659992  27.0664990  72.8009997
  84.8469992  27.2894990  72.9279997  83.1269992  26.9224990  74.1669997
  83.6689992  26.0854990  74.6569997  83.3439992  27.8774990  74.6919997
  81.7829992  26.5234990  74.0149997  80.8159992  26.9454990  75.2209997
  80.7209992  28.5334990  75.1499997  80.3919992  29.1324990  73.9189997
  80.9299992  30.1034990  73.9409997  80.7969992  28.5654990  73.0539997
  78.9359992  29.5634990  73.7629997  78.8449992  30.1114990  72.8369997
  78.3529992  28.6614990  73.6459997  78.2599992  30.2904990  74.9419997
  78.7449992  31.6804990  75.1669997  79.7429992  31.7034990  75.5789997
  78.6859992  32.3484990  74.3199997  78.1859992  32.1384990  75.9689997
  76.7989992  30.5124990  74.5889997  76.4569992  29.8064990  73.8469997
  76.2969992  30.5794990  75.5429997  76.8519992  31.4864990  74.1249997
  78.3909992  29.4654990  76.2589997  78.0729992  28.4694990  75.9879997
  77.6419992  29.8004990  76.9609997  79.3999992  29.5814990  76.6269997
  79.4399992  26.4454990  74.9419997  81.4629992  26.6734990  76.5039997
  83.0349992  27.9564990  71.9079997  83.4449992  29.2244990  72.0639997
  84.3289992  29.5794990  72.8479997  82.7039992  30.2224990  71.1379997
  82.8949992  31.2654990  71.4669997  81.6249992  30.0204990  71.3089997
  83.1429992  30.0184990  69.7499997  82.9689992  29.0004990  69.3399997
  84.2469992  30.1294990  69.6979997  82.4029992  30.9414990  68.7989997
  82.5709992  32.0134990  69.0379997  81.3269992  30.6824990  68.8949997
  82.6039992  30.7064990  67.2609997  82.1839992  29.6914990  67.0869997
  83.6829992  30.5094990  67.0879997  81.8699992  31.5614990  66.1869997
  82.0119992  32.6454990  66.3839997  80.8139992  31.2204990  66.1279997
  82.4629992  31.2144990  64.7929997  82.3169992  30.1424990  64.5419997
  83.4989992  31.5994990  64.6729997  81.6589992  32.0174990  63.7459997
  82.3809992  32.0954990  62.9059997  81.6839992  33.0894990  64.0359997
  80.3429992  31.5684990  63.2959997  80.2069992  30.4764990  63.2809997
  79.3819992  32.3314990  62.7349997  78.4509992  31.9264990  62.3139997
  79.3729992  33.8444990  62.4659997  80.3639992  34.2914990  62.6959997
  78.6299992  34.3064990  63.1509997  78.9569992  34.2424990  61.0139997
  78.5429992  35.2504990  61.2319997  78.3009992  33.5634990  60.4279997
  80.2059992  34.3934990  60.0549997  81.0579992  34.9654990  60.4799997
  79.8589992  35.0854990  59.2579997  80.7459992  33.0874990  59.4269997
  79.9129992  32.5314990  58.9459997  81.1219992  32.4834990  60.2799997
  81.9389992  33.4194990  58.4819997  82.6639992  33.9754990  59.1149997
  81.6009992  34.1594990  57.7249997  82.4089992  32.1254990  57.8679997
  83.3779992  32.3654990  57.3799997  81.7329992  31.8244990  57.0389997
  82.5139992  30.9364990  58.8539997  81.5189992  30.6024990  59.2169997
  83.1029992  31.3284990  59.7109997  83.2189992  29.8344990  58.2359997
  83.5879992  29.1764990  59.0519997  84.1149992  30.1834990  57.6799997
  82.5459992  29.2054990  57.6149997  35.6009992  35.3014990  58.3639997
  36.4219992  34.5794990  58.1659997  35.7349992  36.1264990  59.0949997
  35.3699992  35.8824990  57.4449997  34.3429992  34.3974990  58.6389997
  33.4009992  34.9474990  58.8519997  34.0769992  33.7254990  57.7949997
  34.6009992  33.4754990  59.8289997  34.5569992  34.0654990  60.7689997
  33.7029992  32.8394990  59.9799997  35.9089992  32.6484990  59.8629997
  36.0799992  32.2124990  58.8559997  36.8229992  33.2464990  60.0689997
  35.7009992  31.4344990  60.7969997  36.6659992  30.9174990  60.9919997
  35.2139992  31.9084990  61.6749997  34.8029992  30.3244990  60.2329997
  33.8219992  30.7764990  59.9749997  35.1879992  29.9834990  59.2479997
  34.6449992  29.1964990  61.2659997  34.0499992  28.4984990  60.6399997
  35.6619992  28.8184990  61.5069997  33.8179992  29.4314990  62.5589997
  33.7229992  28.5024990  63.1599997  34.4499992  29.9934990  63.2789997
  32.4599992  30.1694990  62.5139997  32.7269992  31.0844990  61.9449997
  31.8009992  29.5824990  61.8389997  31.8389992  30.3844990  63.8369997
  32.6689992  30.8414990  64.4169997  31.0269992  31.1184990  63.6419997
  31.3529992  29.1134990  64.5769997  30.5679992  28.6514990  63.9399997
  32.1209992  28.3274990  64.7409997  30.6569992  29.5144990  65.9289997
  31.2929992  30.2334990  66.4899997  29.7109992  30.0164990  65.6329997
  30.3579992  28.2764990  66.7729997  29.8109992  27.5214990  66.1699997
  31.2719992  27.8024990  67.1909997  29.3249992  28.4864990  67.9469997
  28.3709992  28.8444990  67.5049997  29.0609992  27.5094990  68.4069997
  29.7689992  29.5694990  69.0039997  30.3659992  30.3254990  68.4509997
  28.8599992  29.9654990  69.5049997  30.8119992  28.9184990  69.9819997
  31.4669992  27.9694990  69.7149997  30.8549992  29.5224990  71.2319997
  31.5059992  28.7284990  72.3099997  31.2119992  29.1744990  73.2839997
  31.1139992  27.6944990  72.4119997  33.0869992  28.8024990  72.1799997
  33.4169992  28.0094990  71.4749997  33.7819992  28.6754990  73.4999997
  33.4999992  27.6664990  73.8699997  34.8849992  28.6414990  73.3689997
  33.2869992  29.6464990  74.4639997  34.1889992  30.8954990  74.8839997
  33.5559992  32.1344990  74.0619997  32.0959992  32.3894990  74.2689997
  31.5849992  31.8244990  73.4599997  31.7379992  31.9654990  75.2319997
  31.8179992  33.8544990  74.2699997  31.9709992  34.2654990  73.2829997
  30.8049992  34.0114990  74.6089997  32.6509992  34.7314990  75.1789997
  34.0139992  35.0754990  74.6179997  34.5709992  35.7764990  75.2219997
  34.5669992  34.1474990  74.5979997  33.8559992  35.5274990  73.6499997
  31.8569992  36.0194990  75.3559997  31.5969992  36.4494990  74.3999997
  30.9059992  35.8144990  75.8239997  32.4229992  36.7594990  75.9019997
  32.8139992  34.1034990  76.4929997  33.4199992  33.2104990  76.5459997
  31.8859992  33.8274990  76.9719997  33.3709992  34.7974990  77.1049997
  33.9799992  31.0564990  76.3889997  35.6259992  30.7344990  74.4879997
  33.4469992  30.0624990  71.4549997  34.6709992  30.3964990  71.2069997
  35.6519992  29.6854990  71.3279997  34.6179992  31.7894990  70.5629997
  34.8879992  32.5514990  71.3249997  33.6049992  32.0084990  70.1619997
  35.6529992  31.9214990  69.5069997  35.4829992  31.0844990  68.7959997
  36.6399992  31.5624990  69.8699997  35.6089992  33.2394990  68.8399997
  36.4319992  33.3234990  68.0979997  35.7859992  34.1314990  69.4769997
  34.3919992  33.6264990  67.9259997  33.3689992  33.6484990  68.3589997
  34.4119992  32.7904990  67.1939997  34.5159992  34.8164990  67.0379997
  35.2449992  34.6224990  66.2219997  35.0099992  35.6814990  67.5299997
  33.1679992  35.0214990  66.2649997  33.0469992  36.0074990  65.7669997
  32.4449992  35.0394990  67.1089997  32.8779992  33.9074990  65.2059997
  33.5469992  33.0614990  65.4719997  33.3609992  34.3424990  64.3049997
  31.4129992  33.6384990  65.0839997  30.9729992  32.9814990  65.8489997
  30.6249992  34.1274990  64.1809997  29.5459992  34.1314990  64.3929997
  30.9369992  35.0554990  63.0539997  31.5539992  35.9364990  63.3329997
  30.0529992  35.6194990  62.6879997  31.5879992  34.3234990  61.8589997
  32.4819992  33.7354990  62.1559997  31.9069992  35.1384990  61.1739997
  30.5459992  33.4154990  61.2689997  29.7329992  34.0794990  60.9069997
  30.0969992  32.6614990  61.9499997  30.9379992  32.6644990  59.9959997
  31.8599992  32.1194990  60.2889997  31.2909992  33.3194990  59.1709997
  29.9269992  31.6414990  59.4719997  29.1669992  32.1254990  58.8219997
  29.3349992  31.2064990  60.3059997  30.5999992  30.4354990  58.7889997
  29.8589992  29.6074990  58.8069997  31.3159992  29.9944990  59.5139997
  31.2309992  30.6354990  57.3969997  31.4989992  29.6474990  56.9659997
  32.1339992  31.2654990  57.5449997  30.4109992  31.4544990  56.3719997
  30.4419992  32.5454990  56.5759997  29.3709992  31.0824990  56.2489997
  30.8749992  31.3414990  55.3689997  95.5609992  39.6944990  56.6259997
  96.1669992  39.4804990  55.7189997  96.3169992  39.5944990  57.4349997
  95.2239992  40.7494990  56.5439997  94.2859992  38.9484990  56.7059997
  93.7159992  39.4314990  55.8849997  94.4259992  37.8924990  56.3879997
  93.4979992  38.9224990  57.9959997  93.0659992  39.9434990  58.0779997
  92.7359992  38.1244990  57.8709997  94.2299992  38.6694990  59.2919997
  94.9679992  39.4744990  59.4959997  93.5479992  38.6074990  60.1669997
  94.9619992  37.3484990  59.1959997  94.3319992  36.4404990  59.0839997
  95.6529992  37.3404990  58.3259997  96.0259992  37.1004990  60.3479997
  96.4079992  36.0634990  60.2279997  96.8709992  37.8174990  60.2759997
  95.3929992  37.3024990  61.7769997  95.2229992  38.3944990  61.8919997
  94.4289992  36.7864990  61.9699997  96.2069992  36.7934990  62.9719997
  96.3449992  35.7024990  62.8119997  97.2099992  37.2464990  62.8199997
  95.6009992  37.1794990  64.2929997  95.5319992  38.2834990  64.3999997
  94.5749992  36.7814990  64.1389997  96.1939992  36.5274990  65.5869997
  96.0549992  35.4414990  65.3949997  97.2669992  36.7684990  65.7419997
  95.4709992  36.9144990  66.8309997  95.3399992  38.0144990  66.9179997
  94.4249992  36.5444990  66.7749997  96.1389992  36.4854990  68.1939997
  95.3199992  36.6834990  68.9179997  96.4149992  35.4124990  68.1059997
  97.4339992  37.2224990  68.5719997  97.7589992  36.8494990  69.5669997
  98.1799992  36.7974990  67.8659997  97.3879992  38.7534990  68.4009997
  97.0749992  39.1744990  67.4219997  96.5239992  38.9854990  69.0619997
  98.7369992  39.3454990  68.8669997  99.0639992  38.7004990  69.7109997
  99.5159992  39.2804990  68.0769997  98.6979992  40.8054990  69.1899997
  98.1919992  41.6634990  68.4779997  99.3899992  40.9894990  70.3259997
  99.4349992  42.2214990  70.9679997 100.4069992  42.2264990  71.5059997
  99.3449992  42.9884990  70.1689997  98.1959992  42.4324990  71.8669997
  98.2119992  43.4484990  72.3149997  98.1979992  41.4094990  73.0529997
  98.2919992  40.3884990  72.6249997  99.1529992  41.6834990  73.5519997
  97.0049992  41.4774990  73.9459997  96.7889992  40.6544990  75.2399997
  95.3229992  40.2124990  75.1519997  94.8189992  39.7624990  73.9779997
  94.6029992  40.6114990  73.2949997  95.3919992  38.9684990  73.4529997
  93.3609992  39.1844990  74.2549997  92.7919992  39.9594990  74.7469997
  92.8459992  39.0744990  73.3119997  93.2249992  37.8364990  74.9429997
  94.1099992  37.7434990  76.1279997  93.8549992  36.8424990  76.6669997
  95.1339992  37.7644990  75.7859997  93.9339992  38.6114990  76.7459997
  91.7499992  37.7374990  75.4039997  91.4859992  38.5874990  76.0159997
  91.1609992  37.6384990  74.5049997  91.5699992  36.8084990  75.9259997
  93.5119992  36.8394990  73.8279997  93.4589992  35.8204990  74.1799997
  94.4919992  37.0324990  73.4159997  92.8129992  36.9034990  73.0059997
  97.7549992  39.5374990  75.1799997  96.9719992  41.5204990  76.4169997
  97.0549992  42.2014990  71.1309997  95.9559992  43.0854990  71.4269997
  96.0259992  43.8814990  72.3409997  94.9149992  42.9474990  70.3529997
  95.2999992  42.1464990  69.6869997  94.7809992  43.8464990  69.7129997
  93.6209992  42.6704990  71.1039997  93.2929992  43.5604990  71.6809997
  93.7069992  41.9344990  71.9319997  92.4779992  42.2834990  70.1349997
  91.9999992  43.1504990  69.6299997  91.6139992  42.0114990  70.7779997
  92.6919992  41.1334990  69.1289997  91.8729992  40.3934990  69.0029997
  93.5849992  40.6244990  69.5509997  93.0449992  41.6354990  67.7339997
  93.5399992  42.6284990  67.6869997  92.0549992  41.8564990  67.2789997
  93.8529992  40.7174990  66.8699997  93.3219992  39.7414990  66.8469997
  94.7899992  40.4364990  67.3959997  94.1569992  41.3054990  65.4679997
  93.2259992  41.4324990  64.8759997  94.6259992  40.4404990  64.9509997
  95.0279992  42.4834990  65.2999997  94.6049992  43.4824990  65.4859997
  96.3459992  42.4874990  65.0249997  96.9039992  43.4334990  64.9809997
  97.1879992  41.2804990  64.8329997  96.7479992  40.3854990  65.3209997
  98.2439992  41.3164990  65.1779997  97.2619992  40.8444990  63.3279997
  96.3299992  41.0954990  62.7779997  97.3209992  39.7354990  63.3429997
  98.3909992  41.5494990  62.4949997  99.2369992  41.2184990  63.1329997
  98.2789992  42.6544990  62.5289997  98.7459992  41.0224990  61.1259997
  98.8789992  39.9244990  61.2259997  99.7139992  41.4604990  60.7999997
  97.7849992  41.4074990  60.1459997  96.7749992  41.1484990  60.5309997
  97.9739992  40.8194990  59.2229997  97.9999992  42.9364990  59.8169997
  99.0859992  43.1694990  59.8379997  97.6129992  43.5104990  60.6869997
  97.3769992  43.3444990  58.5009997  97.3369992  44.4544990  58.5399997
  96.3809992  42.8834990  58.3319997  98.3469992  43.0464990  57.3519997
  99.3859992  43.3224990  57.6309997  98.1039992  43.5944990  56.4159997
  98.3709992  41.9834990  57.0279997  74.3039992 120.7234990  55.8829997
  74.8789992 121.0054990  56.7909997  73.3439992 121.2814990  55.8559997
  74.8369992 120.9384990  54.9319997  74.1329992 119.1564990  56.0899997
  73.9009992 118.7744990  55.0729997  75.1539992 118.7744990  56.3079997
  73.0369992 118.7474990  57.0569997  72.3559992 119.6254990  57.0229997
  72.4269992 117.9014990  56.6719997  73.6039992 118.5384990  58.4799997
  74.2389992 117.6304990  58.3929997  74.2749992 119.3834990  58.7449997
  72.5559992 118.3714990  59.5799997  73.1079992 118.3754990  60.5439997
  71.8169992 119.2014990  59.5479997  71.8129992 117.0814990  59.5789997
  71.4339992 116.7984990  58.5729997  72.5649992 116.3014990  59.8259997
  70.7189992 116.9784990  60.6319997  69.9939992 117.7444990  60.2819997
  70.2649992 115.9904990  60.4069997  71.2389992 117.1374990  62.1509997
  70.4909992 116.6374990  62.8019997  72.2409992 116.6844990  62.3109997
  71.2839992 118.6434990  62.6219997  71.9579992 119.3664990  62.1149997
  70.2669992 119.0374990  62.4109997  71.7179992 118.7834990  64.1419997
  71.4529992 119.8154990  64.4569997  71.1789992 117.9934990  64.7079997
  73.2309992 118.4374990  64.4279997  73.4189992 117.3854990  64.1259997
  73.8919992 119.0514990  63.7789997  73.7449992 118.6864990  65.8449997
  73.9299992 119.7824990  65.8619997  72.9139992 118.3884990  66.5189997
  75.0379992 117.9824990  66.2529997  74.9489992 116.8804990  66.1529997
  75.8909992 118.2444990  65.5909997  75.4929992 118.1974990  67.6839997
  74.6749992 117.8124990  68.3289997  76.3029992 117.4374990  67.7029997
  76.0319992 119.5984990  68.1199997  77.0389992 119.7634990  67.6809997
  75.4629992 120.4874990  67.7729997  76.2119992 119.5354990  69.5459997
  77.2699992 119.5164990  70.1539997  74.9749992 119.4984990  70.0999997
  75.0059992 119.5544990  71.5399997  75.6959992 118.8214990  72.0089997
  75.4129992 120.5334990  71.8699997  73.6719992 119.2604990  72.1289997
  72.9809992 119.8814990  71.5199997  73.6359992 119.6264990  73.6029997
  73.9359992 120.6774990  73.8049997  72.5979992 119.4844990  73.9709997
  74.5949992 118.8214990  74.3359997  74.4969992 118.7944990  75.8909997
  75.6289992 117.6924990  76.1589997  75.2899992 116.2644990  76.2129997
  76.0639992 115.6814990  76.7559997  74.3079992 116.0614990  76.6909997
  75.0699992 115.7154990  74.7659997  74.6629992 114.7154990  74.7269997
  74.5259992 116.4624990  74.2059997  76.2759992 115.5754990  73.8759997
  76.9949992 116.8364990  73.5479997  76.3709992 117.5084990  72.9779997
  77.2479992 117.2864990  74.4969997  77.8959992 116.7074990  72.9669997
  77.2299992 114.5814990  74.5139997  78.1849992 114.6674990  74.0179997
  77.3309992 114.7964990  75.5669997  76.8549992 113.5714990  74.4449997
  75.9259992 115.0364990  72.5029997  75.0699992 115.5404990  72.0779997
  75.6049992 114.0094990  72.5909997  76.7489992 115.0754990  71.8049997
  74.8629992 120.1264990  76.4879997  73.1859992 118.2324990  76.1779997
  73.4759992 117.8104990  72.0639997  72.2339992 117.3494990  72.0089997
  71.1689992 117.9604990  71.8969997  72.1719992 115.8324990  72.0769997
  71.5019992 115.5614990  72.9209997  73.1539992 115.3184990  72.1429997
  71.5769992 115.1824990  70.8109997  70.6249992 115.6784990  70.5259997
  71.2939992 114.1094990  70.8599997  72.3829992 115.3714990  69.4909997
  73.4509992 115.1174990  69.6579997  72.3579992 116.4814990  69.5019997
  71.6309992 114.7224990  68.3399997  70.6099992 115.1594990  68.3029997
  71.6499992 113.6354990  68.5729997  72.2429992 115.1594990  67.0049997
  73.0489992 115.9174990  67.1119997  71.4219992 115.6584990  66.4459997
  72.7569992 113.9494990  66.2399997  73.0349992 114.2794990  65.2159997
  71.9099992 113.3014990  65.9279997  73.9319992 113.1964990  66.8809997
  74.3119992 112.5294990  66.0789997  73.4529992 112.5244990  67.6249997
  75.1569992 114.0324990  67.3359997  75.0739992 114.2434990  68.4119997
  76.0829992 114.4594990  66.4669997  77.0229992 114.8344990  66.8969997
  76.0829992 114.1784990  64.9669997  75.1969992 113.7144990  64.4839997
  76.7909992 113.3374990  64.8059997  76.5679992 115.2944990  64.0929997
  77.3579992 115.8524990  64.6379997  75.7589992 116.0394990  63.9339997
  76.9939992 114.7864990  62.6839997  76.1529992 114.3114990  62.1349997
  77.8209992 114.0674990  62.8639997  77.5729992 116.0014990  61.9039997
  78.6119992 116.0934990  62.2869997  77.0109992 116.9444990  62.0749997
  77.4689992 115.6934990  60.3929997  76.4049992 115.4714990  60.1609997
  78.0589992 114.7794990  60.1669997  77.9729992 116.8094990  59.4429997
  79.0809992 116.8704990  59.4849997  77.5689992 117.8004990  59.7419997
  77.5769992 116.4034990  57.9709997  77.8029992 117.2474990  57.2849997
  76.4679992 116.4684990  57.9499997  78.1819992 115.0644990  57.3309997
  79.2689992 114.9424990  57.5229997  78.0099992 114.9704990  56.2369997
  77.6419992 114.2774990  57.8989997  95.6249992 112.9804990  56.3539997
  95.3329992 112.9154990  55.2839997  96.0809992 112.0024990  56.6169997
  96.4039992 113.7514990  56.5359997  94.4209992 113.2794990  57.1809997
  94.2929992 114.3724990  57.3359997  93.5329992 113.1304990  56.5299997
  94.2109992 112.3674990  58.3869997  94.1059992 111.2994990  58.1019997
  94.9259992 112.4804990  59.2299997  92.8569992 112.6714990  59.1309997
  93.0649992 113.6334990  59.6469997  92.1129992 112.7594990  58.3119997
  92.4949992 111.6204990  60.1969997  91.4099992 111.5764990  60.4299997
  92.7959992 110.6454990  59.7559997  93.2349992 111.7384990  61.5219997
  94.3069992 111.5084990  61.3449997  93.0379992 112.7514990  61.9319997
  92.6579992 110.7924990  62.6089997  93.0259992 111.0804990  63.6169997
  91.5789992 110.9064990  62.8469997  92.9539992 109.3254990  62.3109997
  92.9499992 109.1364990  61.2159997  94.0069992 109.2024990  62.6409997
  92.2469992 108.3654990  63.2609997  91.1789992 108.2924990  62.9629997
  92.5489992 107.3734990  62.8629997  92.4099992 108.5144990  64.7739997
  93.4689992 108.2394990  64.9649997  92.3029992 109.5514990  65.1599997
  91.4189992 107.6114990  65.6189997  90.4089992 107.9604990  65.3129997
  91.4879992 106.5164990  65.4429997  91.5609992 107.8464990  67.1339997
  90.7849992 107.2064990  67.6069997  92.5189992 107.3724990  67.4359997
  91.3319992 109.2784990  67.6709997  92.1899992 109.9584990  67.4829997
  90.5049992 109.6864990  67.0509997  90.9199992 109.3504990  69.0939997
  89.9579992 108.7994990  69.1799997  91.6349992 108.7764990  69.7209997
  90.5979992 110.8074990  69.5459997  89.9469992 111.2544990  68.7639997
  90.1759992 110.6884990  70.5669997  91.8619992 111.6034990  69.6489997
  92.1259992 112.5484990  68.9039997  92.4699992 111.1804990  70.6769997
  93.4869992 112.0774990  71.2829997  94.1659992 111.4754990  71.9239997
  94.0939992 112.6814990  70.5749997  92.7869992 113.2044990  72.1929997
  93.4869992 113.7214990  72.8829997  91.8929992 112.5374990  73.2409997
  91.0489992 112.0554990  72.7039997  92.5539992 111.7604990  73.6819997
  91.4009992 113.4164990  74.2139997  90.6899992 112.9784990  75.5699997
  90.6049992 111.3704990  75.4499997  89.5749992 110.6704990  74.7319997
  88.9449992 110.0964990  75.4439997  88.9389992 111.2764990  74.0519997
  90.0069992 109.4514990  73.9199997  89.1159992 109.0614990  73.4499997
  90.5459992 109.7004990  73.0179997  90.8039992 108.2194990  74.4429997
  89.9539992 107.4854990  75.5579997  89.1119992 107.0144990  75.0719997
  90.6539992 106.7704990  75.9629997  89.6589992 108.2304990  76.2809997
  91.0969992 107.3764990  73.2229997  91.6769992 107.9414990  72.5079997
  91.6199992 106.4694990  73.4889997  90.1719992 106.9864990  72.8249997
  92.1039992 108.6654990  75.1159997  91.8889992 108.9964990  76.1219997
  92.4259992 109.5184990  74.5379997  92.8349992 107.8744990  75.0339997
  91.6869992 113.2824990  76.6419997  89.3539992 113.5014990  75.6049997
  92.0409992 114.0544990  71.4249997  92.6939992 114.9824990  70.7799997
  93.8789992 115.1994990  70.8199997  91.6999992 115.7294990  69.8459997
  91.8689992 115.2474990  68.8599997  92.0829992 116.7684990  69.7549997
  90.1439992 115.6424990  70.1619997  89.8759992 115.5364990  71.2349997
  89.7859992 114.6704990  69.7589997  89.3989992 116.9774990  69.5629997
  89.6779992 117.8724990  70.1589997  88.3469992 116.7404990  69.8329997
  89.5849992 117.1444990  68.1089997  90.5299992 117.6144990  67.7649997
  88.8539992 117.9314990  67.8259997  89.3089992 115.8774990  67.3309997
  88.3129992 115.4704990  67.6099997  90.0859992 115.1094990  67.5339997
  89.2129992 116.0964990  65.8169997  90.2079992 116.5104990  65.5479997
  88.3209992 116.6704990  65.4859997  89.0359992 114.7224990  64.9849997
  89.1569992 115.0334990  63.9259997  87.9679992 114.4654990  65.1529997
  90.0479992 113.6044990  65.3199997  91.1139992 113.8574990  65.2239997
  89.6889992 112.3454990  65.6069997  90.5269992 111.6344990  65.6479997
  88.2939992 111.7204990  65.6339997  87.6109992 112.4574990  66.1089997
  88.1549992 110.8054990  66.2499997  87.8229992 111.4904990  64.1599997
  87.8709992 112.4824990  63.6619997  86.7579992 111.2054990  64.2999997
  88.6379992 110.4934990  63.3959997  88.6399992 109.5174990  63.9259997
  89.6849992 110.8574990  63.3239997  88.1429992 110.1594990  61.9549997
  87.0599992 110.0414990  62.1759997  88.6179992 109.2384990  61.5529997
  88.3869992 111.3804990  61.1429997  89.4469992 111.6544990  61.3289997
  87.8149992 112.1804990  61.6609997  87.8179992 111.2124990  59.7189997
  86.7559992 110.9034990  59.8249997  88.3519992 110.4204990  59.1519997
  87.8179992 112.5244990  58.8679997  87.4839992 113.3474990  59.5359997
  86.9709992 112.5784990  58.1509997  89.2479992 112.7274990  58.2249997
  90.0149992 113.0974990  58.9389997  89.0729992 113.4524990  57.4019997
  89.6469992 111.7794990  57.8039997  64.0499992  19.2604990  57.5869997
  64.1829992  18.9164990  58.6349997  62.9899992  19.5714990  57.4629997
  64.7169992  20.1464990  57.5259997  64.4979992  18.1184990  56.6359997
  64.2799992  18.4704990  55.6049997  65.5989992  17.9714990  56.6379997
  63.8219992  16.7924990  56.8079997  62.7529992  17.0634990  56.6739997
  64.1309992  16.2584990  55.8839997  64.1399992  16.1174990  58.0859997
  65.2489992  16.1924990  58.0899997  63.7639992  16.7614990  58.9089997
  63.5559992  14.6724990  58.2069997  62.4689992  14.7494990  57.9929997
  63.8139992  14.0774990  57.3049997  63.9139992  13.8384990  59.5049997
  63.1829992  13.0024990  59.5069997  64.9459992  13.4414990  59.3989997
  63.7689992  14.5294990  60.8649997  64.3449992  15.4784990  60.8879997
  62.7389992  14.8874990  61.0749997  64.2149992  13.5094990  61.9469997
  63.6529992  12.5594990  61.8239997  65.2559992  13.1294990  61.8619997
  64.2419992  13.9414990  63.3859997  65.2659992  14.1034990  63.7849997
  63.8399992  14.9724990  63.4799997  63.6959992  12.8884990  64.3479997
  62.5869992  12.9354990  64.3879997  63.9649992  11.9004990  63.9159997
  64.1639992  13.0924990  65.7869997  63.8539992  12.1684990  66.3209997
  65.2649992  12.9564990  65.7329997  63.8069992  14.4624990  66.3569997
  64.6349992  15.0864990  65.9589997  62.8659992  14.9274990  65.9919997
  63.9389992  14.5724990  67.8939997  64.0229992  15.6304990  68.2209997
  62.9929992  14.1754990  68.3219997  64.9209992  13.6704990  68.6089997
  64.4809992  12.6504990  68.6359997  65.8089992  13.5264990  67.9579997
  65.2349992  14.2214990  70.0149997  64.3199992  14.6644990  70.4629997
  65.6029992  13.4064990  70.6729997  66.2939992  15.3034990  69.9399997
  66.3839992  15.9994990  68.9789997  66.8839992  15.4084990  71.1279997
  68.0859992  16.1724990  71.1659997  68.9169992  15.5454990  71.5539997
  68.4719992  16.4904990  70.1729997  67.9759992  17.4384990  72.0259997
  68.9279992  18.0104990  72.0069997  67.7459992  16.9904990  73.5329997
  67.3499992  15.9564990  73.4409997  68.6469992  16.8464990  74.1669997
  66.9219992  17.9784990  74.1319997  66.2679992  17.6664990  75.4989997
  65.1989992  16.6154990  75.1469997  64.2159992  16.7364990  74.0569997
  63.9269992  17.7984990  73.9059997  64.5659992  16.4124990  73.0539997
  62.8899992  15.9934990  74.3589997  62.4269992  16.3824990  75.2539997
  62.4289992  16.0804990  73.3859997  63.0079992  14.5304990  74.6309997
  64.0699992  13.9234990  73.7399997  64.1749992  12.8584990  73.8839997
  63.7929992  14.0084990  72.6999997  64.9999992  14.4414990  73.9259997
  63.4349992  14.3514990  76.0379997  64.2839992  14.9414990  76.3499997
  62.6019992  14.7234990  76.6159997  63.5179992  13.3014990  76.2789997
  61.5779992  14.0414990  74.4799997  61.5489992  13.0924990  74.9959997
  61.3299992  13.8324990  73.4499997  60.8019992  14.5694990  75.0159997
  67.1959992  16.9594990  76.4049997  65.5969992  18.9274990  75.9839997
  66.8669992  18.2694990  71.6149997  67.0659992  18.9934990  70.5189997
  68.0819992  19.0104990  69.8489997  65.7649992  19.7874990  70.1789997
  65.7809992  20.1734990  69.1379997  65.7249992  20.5254990  71.0089997
  64.5089992  18.9064990  70.3169997  64.2959992  18.6924990  71.3859997
  64.7149992  17.9514990  69.7869997  63.2769992  19.5214990  69.6019997
  62.9849992  20.5164990  69.9989997  62.4259992  18.8074990  69.6199997
  63.3839992  19.7804990  68.0499997  63.9169992  20.7044990  67.7399997
  62.3579992  20.0234990  67.6999997  63.9539992  18.6354990  67.1519997
  63.2489992  17.7774990  67.1909997  64.9589992  18.3434990  67.5259997
  64.2719992  19.0744990  65.6979997  65.1099992  19.8014990  65.6429997
  63.3009992  19.5324990  65.4109997  64.5839992  17.9134990  64.6549997
  64.5169992  18.3104990  63.6199997  63.7959992  17.1344990  64.7339997
  65.9579992  17.3304990  64.9779997  66.1769992  17.2014990  66.0479997
  66.8579992  16.9254990  64.0539997  67.7729992  16.4664990  64.4569997
  66.7109992  16.9324990  62.5669997  67.0819992  17.9014990  62.1689997
  65.6419992  16.7994990  62.2979997  67.5509992  15.7234990  62.0669997
  67.0859992  14.8184990  62.5119997  68.6339992  15.8914990  62.2499997
  67.5139992  15.5244990  60.4809997  66.4329992  15.4274990  60.2449997
  68.0149992  14.5864990  60.1579997  68.1829992  16.7774990  59.8409997
  69.2009992  16.9664990  60.2419997  67.4659992  17.5444990  60.2039997
  68.1899992  16.8834990  58.3199997  68.3559992  17.9484990  58.0479997
  67.1679992  16.6344990  57.9649997  69.2489992  15.9274990  57.6309997
  68.8549992  14.9284990  57.9139997  70.1779992  16.0534990  58.2259997
  69.5919992  15.9454990  56.1109997  70.5429992  15.3784990  56.0169997
  69.8929992  17.0014990  55.9429997  68.4409992  15.4164990  55.2349997
  68.6289992  15.7694990  54.1979997  67.5659992  16.0304990  55.5359997
  68.1389992  14.3464990  55.2319997  73.3499992  19.6924990  57.9159997
  73.6479992  19.0064990  58.7379997  73.3649992  19.0854990  56.9859997
  72.2919992  20.0004990  58.0569997  74.2139992  20.8674990  57.6839997
  75.1949992  20.6934990  57.1939997  73.6649992  21.7034990  57.2009997
  74.6689992  21.5504990  58.9839997  75.0129992  22.5934990  58.8189997
  73.7359992  21.6744990  59.5739997  75.7069992  20.7344990  59.7919997
  75.4369992  19.6674990  59.9449997  76.6109992  20.5364990  59.1779997
  76.1799992  21.3494990  61.1199997  77.0369992  20.7574990  61.5039997
  76.5039992  22.3864990  60.8869997  75.0909992  21.3644990  62.1939997
  75.5569992  21.7244990  63.1369997  74.2269992  22.0254990  61.9689997
  74.4019992  20.0384990  62.5589997  73.6859992  19.7324990  61.7659997
  75.0599992  19.1774990  62.8019997  73.5869992  19.9994990  63.8969997
  73.0159992  19.0474990  63.8889997  74.3229992  19.9794990  64.7279997
  72.4529992  21.0624990  64.0859997  72.9819992  22.0304990  63.9529997
  71.7159992  20.9544990  63.2609997  71.6679992  20.9094990  65.3969997
  70.8979992  21.7004990  65.5219997  70.9549992  20.0704990  65.2489997
  72.5559992  20.5984990  66.6469997  73.1389992  19.6764990  66.4359997
  73.2909992  21.4014990  66.8729997  71.7259992  20.1524990  67.8029997
  70.9799992  20.9624990  67.9539997  71.0909992  19.3424990  67.3869997
  72.4339992  19.6944990  69.0749997  72.9699992  20.6044990  69.4179997
  71.6899992  19.5284990  69.8829997  73.3749992  18.4494990  68.8049997
  72.7389992  17.6414990  68.3839997  74.2339992  18.6854990  68.1409997
  73.9249992  17.8794990  70.0919997  73.1009992  17.7894990  70.8309997
  74.2379992  16.8664990  69.7599997  75.1669992  18.7004990  70.5379997
  76.0509992  19.1434990  69.7669997  75.2539992  18.7804990  71.9099997
  76.3289992  19.5494990  72.4569997  76.6669992  19.2264990  73.4649997
  77.2359992  19.5684990  71.8149997  75.7999992  20.9974990  72.6259997
  76.6369992  21.5834990  73.0619997  74.6049992  20.9664990  73.6349997
  75.0379992  20.4674990  74.5269997  74.2999992  22.0014990  73.9009997
  73.4929992  20.2764990  73.1219997  72.1989992  19.9484990  73.9859997
  71.7789992  21.3614990  74.5419997  70.8989992  22.2694990  73.9679997
  71.0509992  22.3604990  72.8709997  69.8349992  21.9514990  73.9819997
  71.0249992  23.6584990  74.6509997  71.9999992  24.0344990  74.3759997
  70.1449992  24.1864990  74.3139997  71.1059992  23.8004990  76.1819997
  72.4079992  23.1864990  76.6169997  73.2839992  23.7414990  76.3129997
  72.4169992  23.1334990  77.6959997  72.6359992  22.2144990  76.2049997
  70.9829992  25.2074990  76.5629997  70.0959992  25.5714990  76.0649997
  70.8249992  25.2604990  77.6299997  71.7749992  25.8204990  76.1589997
  69.9899992  23.1334990  76.7639997  69.0669992  23.6174990  76.4799997
  70.1209992  23.2754990  77.8259997  70.0929992  22.0744990  76.5749997
  71.2269992  19.3944990  72.9339997  72.5809992  19.0954990  75.1439997
  75.2979992  21.6424990  71.4059997  75.3419992  22.9434990  71.4089997
  75.9109992  23.6754990  72.1869997  74.5109992  23.4664990  70.2389997
  73.8699992  22.7024990  69.7489997  75.3149992  23.7594990  69.5309997
  73.8239992  24.7374990  70.6449997  73.4949992  25.3524990  69.7799997
  74.4869992  25.5404990  71.0339997  72.5629992  24.6044990  71.4839997
  72.2579992  25.6354990  71.7619997  72.7309992  24.0154990  72.4099997
  71.3249992  24.0754990  70.6549997  70.4869992  24.2964990  71.3489997
  71.5719992  23.0104990  70.4579997  71.0039992  24.8384990  69.2899997
  71.9179992  24.6524990  68.6849997  70.9579992  25.9324990  69.4799997
  69.7199992  24.2644990  68.6689997  68.8469992  24.7834990  69.1189997
  69.6169992  23.2134990  69.0139997  69.6299992  24.3444990  67.1749997
  68.6999992  23.9234990  66.7369997  70.3549992  23.7134990  66.6179997
  69.6489992  25.7434990  66.6489997  68.8909992  26.4234990  67.0639997
  70.5899992  26.2074990  65.8259997  70.5119992  27.2644990  65.5319997
  71.7139992  25.5124990  65.2259997  71.8899992  24.4924990  65.6299997
  72.6619992  25.9864990  65.5569997  71.5829992  25.3204990  63.7279997
  72.4629992  24.7514990  63.3599997  71.7449992  26.3054990  63.2399997
  70.3479992  24.5344990  63.2379997  69.5289992  25.2834990  63.2899997
  70.0599992  23.6944990  63.9059997  70.3729992  24.0264990  61.7639997
  71.0619992  23.1544990  61.7469997  70.7489992  24.9014990  61.1919997
  68.9879992  23.7674990  61.1189997  68.5449992  24.7634990  60.9049997
  68.3269992  23.1894990  61.7989997  69.1319992  23.0444990  59.7829997
  68.2239992  22.4524990  59.5399997  69.8889992  22.2924990  60.0929997
  69.6539992  23.8684990  58.6049997  70.2429992  24.7324990  58.9829997
  68.8029992  24.3174990  58.0509997  70.5339992  23.1464990  57.6339997
  69.8409992  22.5214990  57.0309997  71.2839992  22.5764990  58.2239997
  71.0599992  23.9044990  57.0149997  56.6709992 109.9464990  54.5859997
  57.3319992 110.4744990  55.3059997  56.9319992 110.3604990  53.5889997
  56.9289992 108.8714990  54.7019997  55.2939992 110.2644990  55.0399997
  55.2049992 111.3604990  55.1919997  54.5009992 109.9414990  54.3309997
  54.6759992 109.7164990  56.4029997  53.6849992 110.2174990  56.4389997
  54.4179992 108.6404990  56.3089997  55.7169992 109.8564990  57.5339997
  56.5799992 109.2264990  57.2289997  55.9589992 110.9394990  57.5709997
  55.2269992 109.2404990  58.8029997  54.9179992 108.1904990  58.6139997
  55.9909992 109.2484990  59.6099997  54.0469992 109.9064990  59.4679997
  54.3269992 110.9684990  59.6319997  53.2069992 109.8724990  58.7409997
  53.6399992 109.1394990  60.6649997  53.0729992 108.2414990  60.3399997
  54.5959992 108.8604990  61.1579997  52.6979992 109.8924990  61.6089997
  51.9159992 110.2284990  60.8949997  52.1099992 109.1294990  62.1629997
  53.2419992 111.1194990  62.4459997  54.1729992 110.8734990  62.9999997
  53.5989992 111.8884990  61.7269997  52.1159992 111.7564990  63.3119997
  52.3549992 112.7644990  63.7129997  51.1269992 111.7954990  62.8079997
  51.8229992 110.8524990  64.5329997  51.0469992 111.3584990  65.1469997
  51.4029992 109.8644990  64.2469997  53.0459992 110.6784990  65.4379997
  53.8979992 110.1704990  64.9379997  53.2769992 111.6904990  65.8339997
  52.8519992 109.9124990  66.8079997  52.1899992 110.3154990  67.6039997
  52.5849992 108.8404990  66.6909997  54.1989992 109.8914990  67.4969997
  54.9049992 109.2804990  66.8959997  54.6059992 110.9024990  67.7139997
  54.0999992 109.2484990  68.9099997  53.3279992 109.7674990  69.5169997
  53.6709992 108.2234990  68.9049997  55.4999992 109.1894990  69.5389997
  56.3519992 108.2874990  69.4509997  55.5849992 110.1924990  70.3259997
  56.7189992 110.2794990  71.1849997  57.0679992 109.3124990  71.6069997
  57.5639992 110.5574990  70.5199997  56.4929992 111.2724990  72.2719997
  57.4729992 111.4264990  72.7719997  55.5159992 110.7704990  73.3959997
  55.7539992 109.6944990  73.5299997  55.5879992 111.4174990  74.2969997
  54.2059992 110.8894990  72.8289997  52.8949992 110.0724990  72.9719997
  52.2159992 110.7064990  74.2529997  52.5389992 112.1194990  74.5619997
  53.5989992 112.2524990  74.8679997  52.3819992 112.7384990  73.6529997
  51.6079992 112.6784990  75.6559997  51.9189992 113.7024990  75.8049997
  50.6069992 112.5854990  75.2629997  51.4029992 111.9514990  76.9979997
  52.7579992 111.4414990  77.3949997  52.6939992 110.8964990  78.3259997
  52.9819992 110.7384990  76.6069997  53.5479992 112.1764990  77.4419997
  51.0399992 113.0114990  77.9529997  50.0619992 113.4434990  77.7969997
  50.9359992 112.5884990  78.9419997  51.6819992 113.8754990  77.8659997
  50.2719992 110.9064990  76.9009997  50.5519992 110.1774990  76.1539997
  49.2869992 111.2844990  76.6679997  50.0959992 110.4854990  77.8789997
  51.9909992 110.3924990  71.8009997  53.2429992 108.6674990  73.1519997
  56.0279992 112.4974990  71.6179997  55.8709992 113.5604990  72.3219997
  56.1049992 113.7044990  73.5289997  55.1269992 114.5734990  71.4319997
  55.9709992 115.0004990  70.8489997  54.6179992 115.3954990  71.9789997
  54.0829992 113.8374990  70.5529997  53.5369992 113.1104990  71.1919997
  54.5869992 113.2504990  69.7559997  52.9869992 114.7014990  69.9169997
  53.5759992 115.5304990  69.4689997  52.2799992 115.1354990  70.6559997
  52.2359992 114.0484990  68.7059997  51.7729992 113.0684990  68.9519997
  53.1129992 113.8584990  68.0499997  51.2209992 115.0084990  67.9699997
  51.8989992 115.8724990  67.7989997  50.3059992 115.3604990  68.4929997
  50.7089992 114.3464990  66.7349997  50.6359992 113.2884990  67.0649997
  51.5759992 114.3504990  66.0399997  49.4469992 114.8584990  66.0429997
  49.3899992 115.9504990  65.8459997  48.6199992 114.6644990  66.7599997
  49.1819992 113.9594990  64.8389997  48.7769992 112.9704990  65.0979997
  49.2649992 114.2534990  63.5569997  49.0159992 113.3954990  62.9149997
  49.7239992 115.6284990  63.0519997  49.7319992 116.3924990  63.8589997
  49.0869992 115.9534990  62.2009997  51.1539992 115.7544990  62.4289997
  51.8599992 115.5114990  63.2519997  51.4129992 116.7744990  62.0739997
  51.2349992 114.7834990  61.2169997  50.4639992 115.0854990  60.4769997
  50.9589992 113.7844990  61.6189997  52.6959992 114.6894990  60.5249997
  53.3549992 114.2554990  61.3069997  52.9609992 115.7544990  60.3529997
  52.6989992 113.7024990  59.3439997  52.5509992 112.6404990  59.6319997
  53.7169992 113.6714990  58.9009997  51.8699992 114.0024990  58.0529997
  52.1919992 114.9534990  57.5759997  50.8399992 114.0294990  58.4699997
  51.9079992 112.8614990  57.0239997  51.4639992 111.9634990  57.5049997
  52.9699992 112.6304990  56.7979997  51.1889992 113.2504990  55.7699997
  51.8359992 113.8114990  55.0619997  50.2289992 113.7634990  55.9929997
  50.8769992 112.3854990  55.1469997  31.0489992  86.2784990  57.5189997
  30.8379992  86.8914990  58.4209997  30.4949992  85.3214990  57.6259997
  30.6599992  86.8134990  56.6259997  32.5909992  86.2354990  57.3339997
  32.8569992  85.4954990  56.5479997  32.9479992  87.2694990  57.1419997
  33.3149992  85.8104990  58.5799997  33.3979992  84.7054990  58.6549997
  34.3149992  86.2354990  58.3489997  32.7969992  86.3184990  59.9429997
  32.5429992  87.3924990  59.8129997  31.8619992  85.7614990  60.1659997
  33.7849992  86.0084990  61.1319997  34.3289992  85.0414990  61.0859997
  34.4929992  86.8634990  61.0839997  33.0699992  86.2574990  62.4449997
  32.6969992  87.2974990  62.5609997  32.2219992  85.5404990  62.4699997
  33.8659992  85.9834990  63.7149997  34.8059992  86.5744990  63.6989997
  33.1959992  86.2674990  64.5549997  34.1699992  84.4614990  63.7779997
  34.4559992  83.9064990  62.8589997  34.9219992  84.2504990  64.5689997
  33.0109992  83.6084990  64.2599997  32.2329992  83.7134990  63.4739997
  33.3869992  82.5754990  64.4159997  32.3809992  84.0154990  65.5779997
  33.1599992  84.1664990  66.3559997  31.8659992  84.9864990  65.4119997
  31.4029992  83.0304990  66.2179997  32.1469992  82.3014990  66.6049997
  30.9709992  83.6174990  67.0569997  30.4079992  82.3924990  65.2099997
  29.7799992  83.2254990  64.8279997  30.9919992  81.9554990  64.3719997
  29.5969992  81.1734990  65.7419997  29.4499992  80.4394990  64.9209997
  30.2719992  80.7484990  66.5149997  28.2429992  81.4624990  66.3289997
  27.5939992  81.8854990  65.5319997  27.8249992  80.4744990  66.6139997
  28.2379992  82.4744990  67.4709997  28.9359992  83.3244990  67.3169997
  27.2379992  82.9564990  67.5059997  28.2639992  81.8394990  68.9359997
  27.3229992  81.2604990  69.4399997  29.4219992  82.0324990  69.4479997
  29.5319992  81.6514990  70.8569997  28.6099992  81.7284990  71.4719997
  29.9119992  80.6094990  70.9339997  30.4339992  82.7044990  71.5839997
  31.4279992  82.6924990  71.0879997  30.7159992  82.3034990  73.1139997
  29.7469992  82.0104990  73.5709997  31.2379992  81.3254990  73.0489997
  31.3819992  83.3414990  73.7849997  30.9869992  83.6404990  75.3089997
  31.7849992  84.8604990  75.8389997  33.1749992  84.8604990  75.6929997
  33.5919992  85.3304990  76.6089997  33.4819992  83.8094990  75.5039997
  33.5369992  85.6774990  74.4079997  34.5149992  85.3804990  74.0599997
  32.7569992  85.5184990  73.6789997  33.5709992  87.2024990  74.5019997
  34.5249992  87.6064990  75.6649997  34.1469992  87.2954990  76.6269997
  35.4699992  87.0964990  75.5469997  34.6129992  88.6804990  75.6079997
  34.2319992  87.6664990  73.2429997  33.5679992  87.5234990  72.4029997
  34.4819992  88.7164990  73.2829997  35.1289992  87.0784990  73.1179997
  32.2049992  87.6774990  74.6569997  31.6139992  87.3334990  73.8209997
  32.2259992  88.7554990  74.5949997  31.8669992  87.2324990  75.5809997
  29.5849992  84.0734990  75.2769997  31.3239992  82.4294990  76.0939997
  29.7539992  83.9664990  71.5599997  30.5919992  85.0054990  71.4499997
  31.8109992  84.9864990  71.5149997  29.7489992  86.2224990  71.2869997
  29.8479992  86.8694990  72.1839997  28.6709992  85.9874990  71.1589997
  30.1389992  86.9994990  70.0479997  31.2059992  86.8534990  69.7749997
  30.0309992  88.0594990  70.3619997  29.3489992  86.6754990  68.7529997
  28.2479992  86.8224990  68.7999997  29.5019992  85.6044990  68.5009997
  29.8969992  87.4804990  67.5329997  30.9819992  87.2494990  67.6049997
  29.6929992  88.5574990  67.7149997  29.1549992  87.0534990  66.2139997
  28.1359992  86.6634990  66.4239997  29.6599992  86.1484990  65.8129997
  29.2119992  88.1154990  65.0909997  30.2079992  88.5984990  64.9839997
  28.5789992  88.9194990  65.5249997  28.7959992  87.5884990  63.6319997
  29.5019992  86.8224990  63.2439997  28.7289992  88.5214990  63.0329997
  27.3869992  87.0264990  63.7069997  26.8409992  87.2754990  64.6289997
  26.7469992  86.2884990  62.7879997  25.6699992  86.0884990  62.8879997
  27.3819992  85.9764990  61.4339997  27.6929992  84.9154990  61.3229997
  28.2869992  86.5964990  61.2569997  26.3589992  86.1554990  60.2509997
  25.7379992  87.0694990  60.3629997  25.6169992  85.3674990  60.4999997
  26.9799992  86.0094990  58.8259997  27.4919992  86.9564990  58.5539997
  26.1199992  85.9254990  58.1279997  27.8929992  84.7254990  58.6539997
  27.5129992  83.8994990  59.2939997  28.9429992  84.9054990  58.9689997
  27.7719992  84.2264990  57.2509997  27.9849992  85.0154990  56.4989997
  26.6899992  84.1134990  57.0259997  28.6459992  83.0264990  56.9399997
  28.4389992  82.2274990  57.6829997  29.6959992  83.3604990  57.0839997
  28.3399992  82.3994990  55.5379997  28.3269992  83.1474990  54.7169997
  27.2889992  82.0574990  55.6559997  29.2819992  81.1874990  55.2549997
  29.3499992  80.9474990  54.1719997  29.1119992  80.2294990  55.7909997
  30.3199992  81.5234990  55.4669997  61.6069992 118.9664990  55.9399997
  62.5809992 118.5034990  55.6739997  61.2689992 119.7464990  55.2249997
  60.8519992 118.1564990  55.8409997  61.6729992 119.3594990  57.4479997
  62.4929992 120.1024990  57.5519997  60.7249992 119.9004990  57.6589997
  61.8629992 118.2154990  58.4989997  61.1899992 117.4144990  58.1269997
  62.9099992 117.8434990  58.4809997  61.4309992 118.6104990  59.9279997
  62.1499992 119.3524990  60.3379997  60.5049992 119.2054990  59.7779997
  61.2329992 117.3824990  60.8539997  60.4039992 116.7834990  60.4209997
  62.1799992 116.8084990  60.9459997  60.9699992 117.7574990  62.3069997
  62.0029992 117.8564990  62.7039997  60.5069992 118.7454990  62.5189997
  60.2649992 116.7624990  63.2189997  60.2359992 117.2624990  64.2109997
  59.2699992 116.7304990  62.7249997  60.9069992 115.3574990  63.2039997
  60.8009992 114.9504990  62.1759997  61.9769992 115.4564990  63.4869997
  60.3339992 114.3884990  64.1449997  59.2419992 114.4714990  64.3339997
  60.4169992 113.4064990  63.6329997  61.1329992 114.3034990  65.4269997
  62.2019992 114.2024990  65.1429997  61.0859992 115.2764990  65.9609997
  60.5779992 113.2274990  66.3889997  59.4829992 113.2954990  66.5659997
  60.7249992 112.2534990  65.8749997  61.2179992 113.1664990  67.8149997
  61.5479992 112.1234990  68.0079997  62.0969992 113.8464990  67.7959997
  60.3719992 113.7554990  68.9399997  59.3289992 113.3754990  68.9869997
  60.7769992 113.4554990  69.9299997  60.2569992 115.3324990  69.0039997
  61.2099992 115.8604990  68.7819997  59.4159992 115.5164990  68.3009997
  59.7429992 115.8104990  70.4129997  58.9699992 115.1844990  70.9079997
  60.6859992 115.6194990  70.9689997  59.1489992 117.2144990  70.4389997
  58.3609992 117.6894990  69.6289997  59.6839992 117.7784990  71.5439997
  59.1689992 118.9894990  72.1599997  59.9089992 119.3244990  72.9189997
  59.1649992 119.7284990  71.3309997  57.7719992 118.8084990  72.9019997
  57.5209992 119.8214990  73.2839997  57.8739992 117.8304990  74.1679997
  58.7469992 118.2044990  74.7449997  56.9109992 118.0674990  74.6689997
  57.9789992 116.4804990  73.6729997  58.3089992 115.2214990  74.6139997
  59.7749992 115.5594990  75.0929997  60.8069992 115.7714990  74.1749997
  61.6969992 115.1344990  74.3649997  60.4739992 115.4534990  73.1639997
  61.3619992 117.2264990  74.2019997  62.0709992 117.2754990  73.3879997
  60.5399992 117.9024990  74.0209997  61.9359992 117.7084990  75.5149997
  62.7799992 118.8814990  75.1359997  62.8339992 119.4724990  76.0379997
  63.7999992 118.6214990  74.8959997  62.4549992 119.5094990  74.3199997
  60.8029992 118.0534990  76.3409997  60.1349992 117.2054990  76.3749997
  61.2629992 118.2604990  77.2959997  60.2679992 118.9124990  75.9619997
  62.8579992 116.6804990  76.1309997  62.4309992 115.7034990  76.3049997
  63.1629992 117.1434990  77.0569997  63.7279992 116.5534990  75.5039997
  57.4839992 115.2304990  75.8339997  58.2189992 114.0224990  73.7589997
  56.7869992 118.4034990  71.9279997  55.4509992 118.7064990  72.1739997
  55.0879992 119.3954990  73.1349997  54.5149992 118.0664990  71.1859997
  54.8149992 118.3544990  70.1559997  53.5689992 118.6344990  71.3129997
  54.4019992 116.5574990  71.3729997  53.4159992 116.2564990  70.9589997
  54.0909992 116.2724990  72.4009997  55.5009992 115.7034990  70.7419997
  55.3439992 114.6374990  71.0119997  56.4649992 116.0574990  71.1659997
  55.6499992 115.8164990  69.1939997  56.3619992 115.0294990  68.8669997
  56.1729992 116.7804990  69.0139997  54.3819992 115.7904990  68.3689997
  53.7689992 116.7134990  68.2899997  53.7259992 114.9774990  68.7479997
  54.8259992 115.3004990  66.9119997  53.8439992 115.0164990  66.4769997
  55.4889992 114.4094990  66.9599997  55.5139992 116.3604990  66.0109997
  56.2809992 115.7394990  65.4999997  56.1319992 117.0054990  66.6719997
  54.6529992 117.2794990  65.1389997  53.9189992 117.8874990  65.6899997
  54.7629992 117.4154990  63.7789997  54.2289992 118.2874990  63.3749997
  55.8029992 116.6344990  62.9049997  55.5459992 115.5714990  62.7129997
  56.7639992 116.5804990  63.4599997  56.1709992 117.5124990  61.6449997
  57.1019992 117.2544990  61.0959997  56.4969992 118.4484990  62.1479997
  55.1219992 117.7994990  60.5329997  55.3169992 118.8914990  60.4739997
  54.0719992 117.6064990  60.8389997  55.4349992 117.2584990  59.1299997
  55.4949992 116.1484990  59.1499997  56.4449992 117.6384990  58.8689997
  54.3659992 117.8464990  58.1239997  54.2329992 118.8984990  58.4559997
  53.3869992 117.3454990  58.2809997  54.6509992 117.8484990  56.5999997
  53.8979992 118.3134990  55.9299997  54.6609992 116.7844990  56.2819997
  55.9909992 118.4874990  56.2349997  56.8549992 117.9594990  56.6919997
  55.9519992 119.5694990  56.4839997  56.2199992 118.4134990  54.7179997
  56.1559992 117.3404990  54.4389997  57.1449992 118.9034990  54.3459997
  55.4109992 118.9614990  54.1889997  29.8279992  46.0674990  54.0149997
  30.2209992  47.0844990  54.2279997  29.2439992  46.2924990  53.0969997
  30.6159992  45.3374990  53.7319997  28.9019992  45.4684990  55.0159997
  27.8289992  45.7454990  54.9289997  28.9449992  44.3654990  54.8929997
  29.2429992  45.7634990  56.5229997  30.3279992  45.7934990  56.7609997
  28.9269992  46.8284990  56.5339997  28.5959992  44.7394990  57.4939997
  27.4959992  44.8714990  57.4129997  28.8799992  43.6834990  57.2969997
  28.8649992  45.0104990  59.0229997  29.9629992  44.9264990  59.1699997
  28.6459992  46.0394990  59.3789997  28.1169992  43.9984990  59.9109997
  27.0259992  44.2044990  59.9009997  28.3759992  42.9864990  59.5299997
  28.6089992  44.0484990  61.3979997  29.6849992  43.7854990  61.4839997
  28.5099992  45.1134990  61.6989997  27.8119992  43.2914990  62.4709997
  26.7199992  43.4544990  62.3459997  27.9209992  42.1944990  62.3339997
  28.0979992  43.5224990  63.8879997  29.0819992  43.1764990  64.2689997
  28.1549992  44.6294990  63.9629997  27.0639992  42.9824990  64.8709997
  26.0689992  43.3134990  64.5049997  27.0819992  41.8734990  64.8119997
  27.2789992  43.4374990  66.2849997  28.2819992  43.0544990  66.5699997
  27.2769992  44.5484990  66.2629997  26.1099992  42.9824990  67.1809997
  25.2119992  43.4934990  66.7739997  25.9199992  41.9124990  66.9459997
  26.1869992  43.2034990  68.7199997  27.1909992  42.7674990  68.9129997
  26.2859992  44.3044990  68.8269997  25.0729992  42.5264990  69.4959997
  24.1119992  42.9494990  69.1339997  24.9979992  41.4724990  69.1509997
  25.1479992  42.7674990  70.9869997  24.9889992  43.8404990  71.2259997
  24.4569992  42.1424990  71.5929997  26.5209992  42.2314990  71.5119997
  26.8019992  41.0284990  71.5269997  27.2899992  43.2444990  71.6849997
  28.7689992  42.9434990  71.9759997  28.9129992  42.7194990  73.0549997
  29.1799992  42.0644990  71.4339997  29.6049992  44.1774990  71.6219997
  30.6809992  43.9244990  71.7359997  29.2709992  45.4074990  72.5209997
  29.4679992  44.9914990  73.5329997  30.0039992  46.2144990  72.3049997
  27.9749992  45.9064990  72.2809997  27.5209992  47.0614990  73.3339997
  27.5009992  46.2174990  74.6619997  26.9569992  46.7064990  75.8819997
  27.7519992  46.5854990  76.6489997  26.7189992  47.7904990  75.8319997
  25.6429992  45.9664990  76.3579997  25.2689992  46.2614990  77.3279997
  24.8569992  46.3144990  75.7039997  25.6669992  44.4324990  76.3709997
  26.8069992  43.9904990  77.2389997  26.5499992  44.3854990  78.2109997
  27.0149992  42.9374990  77.1219997  27.7219992  44.4854990  76.9509997
  24.4469992  43.9124990  77.0049997  24.6279992  42.8744990  77.2429997
  24.2979992  44.3804990  77.9669997  23.6949992  44.0824990  76.2489997
  25.9189992  43.8024990  74.9959997  24.9849992  43.8984990  74.4629997
  26.2849992  42.8014990  75.1719997  26.6409992  44.4174990  74.4789997
  28.4689992  48.1734990  73.3269997  26.2029992  47.4734990  73.0159997
  29.4329992  44.3594990  70.2469997  30.3649992  45.1914990  69.6359997
  31.2709992  45.7994990  70.1949997  30.0219992  45.3214990  68.1649997
  28.9229992  45.2114990  68.0479997  30.4169992  44.4064990  67.6719997
  30.6239992  46.5044990  67.3979997  30.7529992  46.2564990  66.3229997
  31.6139992  46.6934990  67.8659997  29.7959992  47.8374990  67.4579997
  30.5029992  48.6554990  67.2019997  29.4909992  48.0364990  68.5069997
  28.5619992  47.8014990  66.5369997  27.9829992  46.8614990  66.6649997
  28.9439992  47.9464990  65.5039997  27.5279992  48.8584990  66.8639997
  28.0299992  49.8484990  66.8929997  27.0729992  48.6804990  67.8609997
  26.4359992  48.9024990  65.8159997  25.6389992  49.5324990  66.2649997
  25.9109992  47.9604990  65.5469997  26.9379992  49.7124990  64.4789997
  27.7079992  48.9664990  64.1869997  27.3719992  50.7094990  64.7089997
  25.8889992  49.9204990  63.4499997  25.3359992  50.8394990  63.6909997
  25.5969992  49.1374990  62.4289997  24.7779992  49.4494990  61.7639997
  26.2479992  47.8664990  61.9749997  26.7629992  47.4844990  62.8819997
  27.0629992  48.0694990  61.2489997  25.3219992  46.8014990  61.3589997
  24.5759992  46.4554990  62.1049997  26.0559992  45.9904990  61.1619997
  24.6509992  47.1634990  59.9669997  23.9189992  47.9744990  60.1659997
  24.1589992  46.2784990  59.5119997  25.7019992  47.7024990  58.9449997
  26.3549992  46.8334990  58.7149997  26.1859992  48.5714990  59.4379997
  25.1459992  48.0784990  57.6029997  24.5049992  48.9784990  57.7199997
  24.4889992  47.2284990  57.3209997  26.1419992  48.1764990  56.4929997
  26.4649992  47.1264990  56.3309997  26.9819992  48.7854990  56.8899997
  25.6539992  48.8264990  55.1739997  25.2419992  49.8354990  55.3919997
  24.8949992  48.1324990  54.7519997  26.7699992  48.8634990  54.0739997
  27.6899992  49.2984990  54.5189997  26.4489992  49.3634990  53.1359997
  26.9449992  47.8364990  53.6899997  50.7349992  17.3344990  57.5629997
  50.6099992  17.7664990  56.5469997  51.2179992  18.0964990  58.2109997
  49.6649992  17.2804990  57.8569997  51.1789992  15.8784990  57.5719997
  50.5909992  15.2774990  56.8449997  52.2149992  15.7584990  57.1879997
  51.1389992  15.3254990  58.9229997  51.7219992  16.0234990  59.5619997
  50.0899992  15.3224990  59.2899997  51.7479992  13.9014990  59.0059997
  52.8529992  13.9714990  58.9229997  51.5489992  13.4314990  59.9929997
  51.3329992  12.8354990  57.9409997  51.4829992  13.2224990  56.9099997
  51.8999992  11.8914990  58.0889997  49.7819992  12.4864990  58.0289997
  49.2459992  13.4214990  58.2989997  49.4279992  12.2654990  56.9989997
  49.3859992  11.3364990  58.9829997  48.2759992  11.2914990  59.0149997
  49.6789992  10.3534990  58.5539997  49.7949992  11.5434990  60.4879997
  50.8769992  11.4304990  60.7129997  49.3749992  12.5554990  60.6709997
  48.9639992  10.6884990  61.4479997  47.9079992  10.8554990  61.1459997
  49.2869992   9.6304990  61.3429997  49.1379992  11.1614990  62.8699997
  50.0929992  10.7514990  63.2629997  49.1389992  12.2694990  62.9539997
  48.0189992  10.5854990  63.7859997  47.0099992  10.8764990  63.4219997
  48.1159992   9.4854990  63.6649997  48.1169992  10.9334990  65.3179997
  47.5029992  10.1264990  65.7719997  49.1619992  10.7364990  65.6399997
  47.6469992  12.3694990  65.8209997  47.9999992  12.4584990  66.8699997
  48.2289992  13.1274990  65.2549997  46.1979992  12.5674990  65.7029997
  45.9019992  12.9824990  64.7159997  45.5479992  11.6984990  65.9389997
  45.6889992  13.7034990  66.6549997  46.2069992  14.6844990  66.5959997
  44.6539992  13.9784990  66.3579997  45.5559992  13.2514990  68.1169997
  44.8839992  12.2474990  68.4729997  46.2979992  14.1434990  68.8729997
  46.0519992  14.0834990  70.2939997  46.0869992  15.1154990  70.7039997
  44.9949992  13.8024990  70.4899997  47.0289992  13.0844990  71.0339997
  46.6499992  12.0734990  70.7709997  47.0059992  13.2204990  72.5939997
  47.1919992  14.2714990  72.9019997  45.9809992  12.9374990  72.9149997
  48.0049992  12.4204990  73.2399997  47.9919992  12.5554990  74.8079997
  48.7139992  13.9354990  75.1469997  50.0149992  14.2174990  74.6929997
  50.7099992  13.3724990  74.8859997  50.0839992  14.3854990  73.5969997
  50.4799992  15.5194990  75.3359997  50.7399992  15.3134990  76.3639997
  51.3829992  15.6614990  74.7609997  49.5909992  16.7344990  75.1509997
  48.5299992  16.7454990  76.1859997  47.7759992  15.9824990  76.0609997
  49.0249992  16.5204990  77.1189997  48.0009992  17.6834990  76.2579997
  50.4059992  18.0284990  75.4009997  51.3889992  17.9294990  74.9649997
  49.9229992  18.9084990  75.0029997  50.5679992  18.0964990  76.4669997
  48.9469992  16.8004990  73.7939997  49.6709992  16.9194990  73.0009997
  48.2449992  17.6184990  73.8589997  48.3209992  15.9204990  73.7839997
  46.5959992  12.7614990  75.3159997  48.7069992  11.4034990  75.3989997
  48.3769992  13.3264990  70.5429997  48.9089992  12.6434990  69.5669997
  48.3969992  11.6484990  69.0699997  50.2409992  13.1844990  69.2369997
  50.9599992  12.3374990  69.2279997  50.5979992  13.9404990  69.9679997
  50.2859992  13.8294990  67.8369997  49.3029992  14.3334990  67.7239997
  50.2439992  13.0344990  67.0629997  51.4529992  14.8024990  67.5829997
  52.3439992  14.1394990  67.5909997  51.6589992  15.5374990  68.3899997
  51.3649992  15.4814990  66.2859997  51.5319992  14.7214990  65.4919997
  52.2079992  16.1954990  66.1679997  50.1349992  16.4124990  65.9879997
  50.0499992  17.0194990  66.9149997  49.1409992  15.9194990  65.9549997
  50.1209992  17.3404990  64.7369997  50.8389992  18.1604990  64.9489997
  49.1039992  17.7704990  64.6129997  50.5019992  16.6714990  63.3569997
  51.5469992  16.3064990  63.4529997  50.6329992  17.4874990  62.6139997
  49.4789992  15.6464990  62.9309997  49.5809992  14.6664990  63.4189997
  48.3489992  15.8884990  62.2479997  47.5969992  15.0944990  62.1289997
  47.9709992  17.2344990  61.7129997  48.1099992  17.2664990  60.6119997
  48.5859992  18.0724990  62.1049997  46.5409992  17.7064990  61.9579997
  46.4229992  18.6574990  61.3959997  46.3449992  18.0314990  63.0029997
  45.4179992  16.7264990  61.4329997  44.3889992  17.1434990  61.4779997
  45.2529992  15.9234990  62.1819997  45.5669992  16.1904990  59.9619997
  46.4439992  15.5554990  59.7149997  45.6689992  17.0664990  59.2859997
  44.3279992  15.4214990  59.4719997  43.5819992  16.1754990  59.1409997
  43.8719992  14.8294990  60.2939997  44.6579992  14.5324990  58.1649997
  45.6219992  14.0484990  58.4289997  44.7239992  15.1714990  57.2579997
  43.4809992  13.5184990  57.8429997  42.6749992  14.2664990  57.6819997
  43.3039992  12.9374990  58.7729997  43.7759992  12.6834990  56.6199997
  42.9369992  12.0544990  56.2489997  44.6429992  11.9984990  56.7319997
  43.9959992  13.4344990  55.8319997 102.3149992  99.8364990  57.3899997
 101.5299992 100.3514990  57.9849997 101.7879992  99.3984990  56.5149997
 103.1379992 100.5644990  57.2299997 103.0289992  98.7274990  58.1769997
 102.2399992  97.9524990  58.2849997 103.9049992  98.3904990  57.5839997
 103.5659992  99.2234990  59.5119997 104.3229992  98.4914990  59.8649997
 104.2599992 100.0814990  59.3849997 102.4689992  99.4844990  60.5529997
 101.7259992 100.2704990  60.2989997 101.9209992  98.5184990  60.5839997
 103.1199992  99.7844990  61.9309997 103.7549992  98.9464990  62.2889997
 103.7879992 100.6384990  61.6879997 102.1749992 100.2234990  63.0519997
 101.2889992  99.5544990  63.0779997 102.7999992 100.1724990  63.9689997
 101.5479992 101.6634990  62.8829997 102.3869992 102.3544990  63.1169997
 101.2909992 101.8904990  61.8269997 100.3799992 101.9264990  63.8349997
 100.0779992 102.9354990  63.4829997  99.6509992 101.1294990  63.5749997
 100.7879992 101.9404990  65.2969997 101.2739992 100.9614990  65.4949997
 101.5729992 102.7094990  65.4639997  99.5739992 102.2034990  66.2219997
  99.1679992 103.2114990  65.9929997  98.7249992 101.5854990  65.8599997
  99.8359992 102.2544990  67.6879997 100.6329992 102.8904990  68.1279997
  98.9219992 102.7314990  68.1019997  99.9779992 100.8724990  68.2399997
  99.1609992 100.2334990  67.8419997 100.9289992 100.4134990  67.8959997
  99.9319992 100.7414990  69.8089997  99.9919992  99.7074990  70.2089997
 100.8129992 101.2764990  70.2249997  98.5569992 101.2374990  70.3239997
  98.8149992 102.2784990  70.6149997  97.7759992 101.3224990  69.5379997
  98.0859992 100.7994990  71.7299997  98.9829992 100.9244990  72.3729997
  97.2309992 101.3604990  72.1639997  97.5789992  99.3084990  71.6589997
  97.0499992  98.8354990  70.6889997  97.8869992  98.6824990  72.7979997
  97.7069992  97.2354990  72.9409997  97.4079992  97.1234990  74.0049997
  96.8079992  96.8194990  72.4379997  98.8959992  96.3164990  72.5939997
  98.7509992  95.3034990  73.0259997 100.1769992  96.9364990  73.1349997
  99.9769992  97.3074990  74.1619997 100.8679992  96.0704990  73.2229997
 100.7699992  97.9314990  72.3229997 102.0279992  98.7714990  72.9349997
 102.0599992  98.2894990  74.4199997 102.0319992  99.0574990  75.5419997
 102.8159992  99.8084990  75.3069997 101.0339992  99.5334990  75.6489997
 102.5169992  98.3034990  76.8429997 102.4729992  98.9844990  77.6799997
 101.8339992  97.4724990  76.9439997 103.9229992  97.7084990  76.7899997
 104.1609992  96.8764990  75.5599997 104.2959992  97.5454990  74.7239997
 104.9809992  96.2014990  75.7579997 103.3359992  96.2044990  75.3759997
 104.9539992  98.7934990  76.8779997 104.6799992  99.3574990  77.7569997
 105.8759992  98.2354990  76.9389997 104.9889992  99.3384990  75.9459997
 103.9459992  96.8564990  78.0119997 103.1609992  96.1174990  77.9479997
 103.7739992  97.4644990  78.8869997 104.8049992  96.2024990  78.0479997
 103.3009992  98.3304990  72.2429997 101.6539992 100.2444990  72.9269997
  99.0779992  96.2354990  71.1639997  99.9159992  95.3134990  70.7209997
 100.3999992  94.4354990  71.3599997 100.1589992  95.4604990  69.2149997
  99.2769992  95.0384990  68.6879997 101.0099992  94.8554990  68.8349997
 100.4989992  96.9304990  68.8109997 100.1219992  97.7164990  69.4989997
  99.9599992  97.1794990  67.8719997 101.9309992  97.3284990  68.5609997
 102.4849992  97.3204990  69.5239997 102.0629992  98.3404990  68.1239997
 102.7439992  96.3534990  67.6689997 102.7889992  95.3074990  68.0409997
 103.7959992  96.7004990  67.5829997 102.2319992  96.3504990  66.2139997
 102.0449992  97.4134990  65.9489997 101.2199992  95.8964990  66.1409997
 103.2269992  95.7624990  65.1759997 103.2979992  94.6804990  65.4159997
 104.1669992  96.3484990  65.2519997 102.8199992  96.0434990  63.6999997
 103.7259992  95.8384990  63.0909997 102.6409992  97.1264990  63.5249997
 101.6569992  95.1114990  63.2999997 101.6979992  94.0894990  63.7039997
 100.5119992  95.4504990  62.6619997  99.9139992  94.5544990  62.4419997
 100.2529992  96.8454990  62.1709997 101.1029992  97.5574990  62.2429997
  99.5069992  97.2804990  62.8699997  99.8639992  96.9494990  60.7209997
 100.7039992  96.5064990  60.1439997  99.8949992  98.0334990  60.4779997
  98.4089992  96.4964990  60.2299997  97.6459992  96.7384990  60.9999997
  98.4439992  95.3854990  60.2349997  98.0919992  97.0824990  58.8399997
  98.9389992  96.9044990  58.1429997  98.1019992  98.1734990  59.0499997
  96.6819992  96.7684990  58.2599997  95.8919992  96.8614990  59.0349997
  96.6289992  95.6614990  58.1809997  96.3039992  97.3624990  56.9149997
  96.3429992  98.4704990  56.9979997  95.2129992  97.1644990  56.8559997
  97.0479992  96.9514990  55.6129997  97.9769992  97.5534990  55.5129997
  96.3929992  97.4484990  54.8659997  97.4719992  95.5334990  55.3339997
  97.7199992  95.4024990  54.2589997  96.5969992  94.9004990  55.5939997
  98.4029992  95.2464990  55.8689997 105.4479992  47.6154990  57.7669997
 105.2019992  48.3534990  56.9739997 104.4719992  47.2004990  58.0979997
 106.0649992  46.7394990  57.4729997 106.0249992  48.2784990  58.9929997
 106.3519992  47.4954990  59.7099997 106.9279992  48.8744990  58.7409997
 104.9979992  49.1844990  59.7379997 104.4549992  49.7104990  58.9239997
 104.3709992  48.5034990  60.3519997 105.7389992  50.1284990  60.7059997
 106.4749992  50.7404990  60.1409997 104.9339992  50.8554990  60.9449997
 106.2269992  49.4204990  61.9759997 105.3759992  49.4574990  62.6899997
 106.4579992  48.3914990  61.6259997 107.4629992  50.1634990  62.4779997
 108.2419992  50.1844990  61.6859997 107.1789992  51.2244990  62.6419997
 107.9689992  49.6484990  63.7539997 107.7189992  48.5664990  63.7839997
 108.9839992  50.0754990  63.9049997 107.2629992  50.4714990  64.9009997
 107.5609992  51.5374990  64.8039997 106.1809992  50.3914990  64.6609997
 107.6179992  50.1284990  66.3599997 108.6629992  50.4724990  66.5179997
 106.9469992  50.7124990  67.0249997 107.6419992  48.6424990  66.7899997
 106.7269992  48.0684990  66.5279997 108.5289992  48.1544990  66.3329997
 107.8789992  48.5234990  68.3029997 108.3219992  47.5094990  68.3999997
 108.7419992  49.1964990  68.4949997 106.6259992  48.7034990  69.1799997
 106.2229992  49.7384990  69.1439997 106.0139992  47.9514990  68.6379997
 106.8549992  48.2424990  70.6349997 105.9449992  48.2914990  71.2689997
 107.1309992  47.1664990  70.6359997 107.9929992  49.0704990  71.2969997
 108.8929992  48.6874990  70.7709997 107.8939992  50.1314990  70.9809997
 108.1549992  48.8184990  72.8619997 107.1299992  48.9794990  73.2609997
 108.6329992  47.8524990  73.1299997 109.2239992  49.7114990  73.4529997
 110.0279992  50.2404990  72.7249997 109.1069992  49.7784990  74.7479997
 109.7849992  50.6944990  75.6829997 109.5739992  50.5444990  76.7629997
 110.8949992  50.7324990  75.6519997 109.3489992  52.2044990  75.4069997
 109.8809992  52.8224990  76.1609997 107.7429992  52.3924990  75.6849997
 107.3989992  53.4204990  75.9289997 107.2799992  52.1234990  74.7109997
 107.2069992  51.4484990  76.6689997 105.8419992  50.6764990  76.5299997
 105.0309992  51.8304990  75.7649997 103.6199992  51.6344990  75.8559997
 103.3079992  50.5674990  75.8739997 103.2309992  52.0544990  76.8069997
 102.8939992  52.3244990  74.6569997 101.8419992  52.0784990  74.6819997
 103.0259992  53.3714990  74.8869997 103.4139992  51.9084990  73.2349997
 103.3729992  50.4434990  73.0419997 104.0729992  49.9224990  73.6779997
 102.3989992  50.0614990  73.3099997 103.6559992  50.2364990  72.0209997
 102.4029992  52.4214990  72.1759997 102.8009992  53.3994990  71.9529997
 102.2969992  51.7694990  71.3209997 101.4019992  52.4354990  72.5809997
 104.7809992  52.3444990  72.8969997 105.5329992  51.7944990  73.4429997
 104.8509992  53.4134990  73.0299997 104.8819992  52.1074990  71.8479997
 106.1619992  49.4054990  75.7539997 105.1979992  50.5334990  77.8919997
 109.6599992  52.6014990  74.0579997 109.4689992  53.8804990  73.7149997
 109.0769992  54.8054990  74.4449997 109.7289992  54.0194990  72.2929997
 110.5129992  53.2964990  71.9809997 110.0629992  55.0244990  71.9569997
 108.4269992  53.5304990  71.5159997 107.4749992  53.9414990  71.9139997
 108.3809992  52.4224990  71.5889997 108.5189992  54.0984990  70.0669997
 109.4739992  53.7904990  69.5909997 108.4399992  55.2034990  70.1539997
 107.5359992  53.7074990  68.9429997 107.5399992  52.6104990  68.7659997
 107.8299992  54.2594990  68.0239997 106.1049992  54.3004990  69.1549997
 106.1429992  55.4084990  69.0729997 105.8109992  53.9884990  70.1799997
 105.1099992  53.8444990  68.0789997 104.0579992  53.7584990  68.4259997
 105.5659992  52.9014990  67.7089997 105.1369992  54.9584990  67.0359997
 106.2069992  55.0844990  66.7639997 104.7949992  55.8704990  67.5709997
 104.2379992  54.7544990  65.8559997 103.1659992  55.0024990  65.8659997
 104.5529992  54.3574990  64.6269997 103.7959992  54.3754990  63.8299997
 105.9829992  53.9444990  64.1059997 105.8759992  53.3524990  63.1719997
 106.4009992  53.2734990  64.8859997 107.0679992  55.0724990  63.9049997
 108.0619992  54.5844990  63.9969997 106.9009992  55.8784990  64.6509997
 107.0969992  55.7134990  62.4889997 107.6789992  56.6594990  62.4599997
 106.0719992  56.0414990  62.2109997 107.5729992  54.7514990  61.3509997
 106.9479992  53.8334990  61.3159997 108.6469992  54.4944990  61.4689997
 107.3189992  55.5594990  60.0189997 107.6499992  56.6104990  60.1599997
 106.2369992  55.7094990  59.8209997 108.0609992  54.9904990  58.8629997
 107.4029992  54.2194990  58.4059997 108.9949992  54.4954990  59.2049997
 108.5779992  56.0634990  57.8429997 109.4189992  56.5574990  58.3749997
 107.8859992  56.9054990  57.6269997 109.2279992  55.5614990  56.5529997
 110.1389992  55.0044990  56.8589997 109.4149992  56.4244990  55.8779997
 108.7079992  54.7494990  56.0019997  49.9919992 105.7244990  56.6679997
  49.0839992 106.2904990  56.3689997  50.9139992 106.2574990  56.3529997
  49.8539992 105.6234990  57.7659997  49.8539992 104.3684990  55.9349997
  50.0039992 104.5034990  54.8419997  50.5899992 103.6754990  56.3969997
  48.5019992 103.6254990  56.2429997  47.6499992 103.9444990  55.6049997
  48.6809992 102.5424990  56.0739997  48.0749992 103.5844990  57.7499997
  48.8899992 103.1244990  58.3499997  47.8489992 104.6074990  58.1199997
  46.7359992 102.8044990  57.8509997  45.9119992 103.1894990  57.2129997
  46.9269992 101.7224990  57.6839997  46.2459992 102.8454990  59.3079997
  46.9869992 102.6114990  60.1019997  45.8809992 103.8394990  59.6459997
  45.2399992 101.6554990  59.4979997  44.5879992 101.7364990  58.6019997
  45.7039992 100.6464990  59.4989997  44.2969992 101.7394990  60.7289997
  44.8329992 101.6474990  61.6979997  43.9709992 102.8014990  60.7099997
  43.0369992 100.8714990  60.6639997  42.2949992 101.3744990  60.0069997
  43.3569992  99.8974990  60.2369997  42.4069992 100.5434990  62.0189997
  41.5939992  99.7934990  61.9189997  43.2589992 100.1904990  62.6389997
  41.8019992 101.7724990  62.7739997  42.6009992 102.5094990  63.0039997
  41.1049992 102.3414990  62.1219997  41.1409992 101.3964990  64.0899997
  40.5319992 102.2714990  64.4029997  40.4069992 100.5764990  63.9339997
  42.2069992 101.0364990  65.1439997  42.6219992 100.0114990  65.0389997
  43.0829992 101.7034990  64.9969997  41.5849992 101.4374990  66.5049997
  41.3029992 102.5124990  66.5339997  40.6989992 100.7804990  66.6379997
  42.6769992 101.2744990  67.6389997  42.7189992 100.2074990  67.9459997
  43.6679992 101.4204990  67.1579997  42.4459992 102.2344990  68.8809997
  41.5719992 103.0484990  68.9829997  43.5059992 102.0464990  69.6909997
  43.5069992 102.9574990  70.8129997  43.8549992 103.9474990  70.4469997
  42.5009992 103.0964990  71.2639997  44.4249992 102.4054990  71.9769997
  44.4519992 101.2974990  71.9079997  43.8239992 102.6674990  73.3969997
  42.8439992 102.1604990  73.5259997  44.4999992 102.1684990  74.1239997
  43.7939992 104.0954990  73.6039997  42.9529992 104.6694990  74.8099997
  43.3679992 106.1964990  74.8849997  44.2959992 106.8214990  74.0219997
  43.9969992 106.6964990  72.9589997  44.2699992 107.8874990  74.3339997
  45.7049992 106.3134990  74.1049997  45.7459992 105.2654990  73.8469997
  46.3649992 106.7434990  73.3649997  46.5649992 106.5444990  75.3009997
  45.9149992 105.9794990  76.6009997  45.0769992 106.6304990  76.8019997
  45.6039992 104.9484990  76.5129997  46.5789992 106.1184990  77.4409997
  47.8979992 105.8554990  75.0789997  48.6169992 106.2154990  75.7989997
  47.8879992 104.7754990  75.0809997  48.2619992 106.1854990  74.1169997
  46.8049992 108.0314990  75.4949997  45.7769992 108.3064990  75.6789997
  47.2159992 108.5244990  74.6259997  47.3549992 108.2434990  76.3999997
  41.5019992 104.6364990  74.5749997  43.4069992 103.9834990  75.9949997
  45.7589992 102.9724990  71.7989997  46.6379992 102.2864990  71.1009997
  46.4419992 101.1594990  70.6119997  47.9009992 103.1494990  70.9239997
  48.6239992 102.6094990  70.2769997  48.4659992 103.3704990  71.8549997
  47.4029992 104.5184990  70.2019997  46.8369992 104.1824990  69.3069997
  48.2559992 105.0964990  69.7869997  46.6769992 105.6314990  71.0219997
  47.4109992 105.9444990  71.7959997  45.8209992 105.2054990  71.5889997
  46.0569992 106.8234990  70.2139997  46.6579992 107.1014990  69.3219997
  45.8419992 107.7304990  70.8189997  44.6879992 106.4644990  69.6229997
  43.9729992 106.4164990  70.4719997  44.5709992 105.4714990  69.1389997
  43.9959992 107.4744990  68.7399997  43.7729992 108.4354990  69.2529997
  42.9929992 107.1644990  68.3759997  44.7999992 107.9474990  67.5069997
  45.6119992 108.6654990  67.7489997  44.0799992 108.6724990  67.0689997
  45.1419992 106.9014990  66.5389997  46.0309992 106.3194990  66.8239997
  44.4789992 106.4214990  65.3989997  45.0589992 105.6644990  64.8499997
  43.1699992 106.8224990  64.9169997  43.4559992 107.6904990  64.2859997
  42.5209992 107.2474990  65.7119997  42.3569992 105.7484990  64.1429997
  41.4099992 106.3154990  64.0149997  42.1619992 104.8364990  64.7449997
  43.0579992 105.3134990  62.8479997  42.4469992 104.5414990  62.3349997
  43.9559992 104.7754990  63.2199997  43.5109992 106.2854990  61.8009997
  44.1159992 105.7084990  61.0689997  44.1989992 107.0394990  62.2409997
  42.4479992 107.2374990  61.2069997  43.0089992 107.8904990  60.5039997
  42.0299992 107.9364990  61.9629997  41.3999992 106.5744990  60.2509997
  40.9379992 107.4354990  59.7229997  40.7279992 106.0074990  60.9309997
  42.1129992 105.6894990  59.2629997  42.4849992 104.7124990  59.6409997
  43.0029992 106.1904990  58.8249997  41.1399992 105.1814990  58.1929997
  41.7899992 104.4554990  57.6589997  40.9379992 105.9104990  57.3789997
  40.2539992 104.6104990  58.5439997  22.5729992  76.3724990  56.8219997
  22.9469992  75.7264990  55.9989997  21.6019992  76.8124990  56.5109997
  22.3159992  75.6864990  57.6569997  23.5659992  77.4584990  57.1059997
  23.6199992  77.9834990  56.1279997  23.0779992  78.0554990  57.9059997
  24.9949992  77.0364990  57.4659997  25.0869992  76.3064990  58.2989997
  25.4439992  76.4884990  56.6099997  26.0629992  78.1004990  57.7949997
  26.9969992  77.5124990  57.9239997  26.0439992  78.7144990  56.8699997
  25.7919992  78.8534990  59.0999997  26.5149992  79.6934990  59.1699997
  24.7549992  79.2484990  59.1549997  26.0689992  77.8104990  60.2999997
  25.1509992  77.2094990  60.4739997  26.8119992  77.0424990  59.9919997
  26.4169992  78.4864990  61.6609997  26.8529992  77.7854990  62.4059997
  27.2729992  79.1834990  61.5389997  25.3459992  79.4384990  62.2729997
  25.6079992  80.1674990  63.0699997  25.0209992  80.1884990  61.5209997
  24.0919992  78.8044990  62.8629997  23.7519992  78.1034990  62.0719997
  24.3509992  78.2304990  63.7779997  22.9149992  79.7294990  63.1079997
  23.2319992  80.5594990  63.7749997  22.6859992  80.1794990  62.1189997
  21.6439992  78.9414990  63.7209997  20.8399992  79.6984990  63.8449997
  21.3399992  78.2534990  62.9029997  21.9989992  78.0604990  64.9019997
  21.1399992  77.4374990  65.2279997  22.7899992  77.4094990  64.4719997
  22.4359992  78.8724990  66.1269997  23.0959992  79.6964990  65.7799997
  21.5539992  79.4074990  66.5389997  23.1479992  78.1004990  67.1889997
  23.9219992  77.4684990  66.7039997  23.5819992  78.8054990  67.9299997
  22.1109992  77.1644990  67.9799997  21.3239992  77.8184990  68.4129997
  21.7579992  76.3804990  67.2769997  22.7989992  76.5254990  69.1549997
  23.9259992  76.0514990  69.0869997  21.9989992  76.7474990  70.1559997
  22.6089992  76.7784990  71.4639997  21.7899992  76.3754990  72.0969997
  23.4229992  76.0414990  71.6349997  23.0899992  78.2114990  71.8829997
  23.8379992  78.4434990  71.0939997  23.7389992  78.1834990  73.3339997
  22.9669992  78.2964990  74.1239997  24.1489992  77.1784990  73.5709997
  24.7059992  79.2824990  73.3439997  25.8659992  79.1994990  74.3569997
  26.1609992  80.6744990  74.6469997  25.5609992  81.7814990  73.9429997
  26.1289992  82.6834990  74.2569997  25.7569992  81.7004990  72.8529997
  24.0339992  81.9204990  74.3179997  23.5399992  82.6784990  73.7279997
  23.5699992  80.9784990  74.0659997  23.6759992  82.2724990  75.7769997
  24.6209992  83.3364990  76.2449997  24.3539992  83.6684990  77.2379997
  25.6659992  83.0794990  76.3389997  24.4899992  84.1564990  75.5549997
  22.2459992  82.7474990  75.8259997  22.1699992  83.5904990  75.1559997
  21.5969992  81.9334990  75.5379997  21.9279992  82.9784990  76.8319997
  23.8379992  81.0704990  76.6909997  23.1869992  80.2844990  76.3389997
  23.4879992  81.3554990  77.6729997  24.8779992  80.7794990  76.6979997
  25.3489992  78.7134990  75.6629997  27.0779992  78.6384990  73.6599997
  21.9509992  79.1224990  71.8109997  22.1899992  80.3534990  71.3529997
  23.3069992  80.7904990  71.1009997  20.9359992  81.0534990  71.1249997
  20.6019992  81.5784990  72.0449997  20.1119992  80.3644990  70.8379997
  21.0519992  82.2064990  70.0199997  21.9519992  82.8504990  70.1179997
  20.1849992  82.8814990  70.1869997  20.9229992  81.7874990  68.5779997
  20.0979992  81.0564990  68.4409997  21.8489992  81.2744990  68.2399997
  20.8359992  82.8964990  67.5899997  21.5999992  83.6244990  67.9369997
  19.8089992  83.3194990  67.5959997  21.0879992  82.4984990  66.1489997
  20.3059992  81.8054990  65.7709997  22.0639992  81.9874990  66.2939997
  21.4589992  83.6414990  65.1999997  20.4989992  84.0564990  64.8219997
  22.0049992  83.1874990  64.3459997  22.3829992  84.7554990  65.6779997
  21.8999992  85.2034990  66.5729997  22.2459992  85.5864990  64.9529997
  23.8319992  84.3464990  65.9909997  24.0369992  83.9034990  66.9759997
  24.9529992  84.5774990  65.2879997  25.8569992  84.0724990  65.6569997
  25.1499992  85.2844990  64.0099997  26.0659992  85.9124990  64.0009997
  24.2749992  85.9694990  63.9689997  25.1489992  84.5254990  62.7039997
  25.8329992  83.6524990  62.6489997  25.3679992  85.2144990  61.8599997
  23.7519992  83.9564990  62.2809997  22.9259992  84.5774990  62.6889997
  23.6889992  82.9334990  62.7069997  23.5819992  83.8194990  60.7399997
  23.5259992  84.8754990  60.3989997  22.6889992  83.1754990  60.5909997
  24.8449992  83.1524990  60.0559997  25.1519992  82.2854990  60.6789997
  25.6649992  83.9014990  60.0269997  24.5189992  82.8364990  58.6649997
  25.1809992  82.0964990  58.1669997  24.6449992  83.7024990  57.9819997
  23.0759992  82.2214990  58.4109997  22.7179992  81.6624990  59.3019997
  23.1359992  81.5174990  57.5539997  21.9609992  83.2554990  58.0299997
  20.9909992  82.7164990  57.9639997  22.2389992  83.7814990  57.0919997
  21.8719992  84.0594990  58.7909997  39.9529992  19.4744990  59.3599997
  40.9229992  19.5584990  59.8949997  39.7199992  20.2934990  58.6469997
  40.0259992  18.6364990  58.6339997  38.8539992  19.1504990  60.3699997
  37.8429992  19.1124990  59.9109997  39.1149992  18.1024990  60.6339997
  38.8779992  20.0764990  61.5909997  39.9569992  20.1874990  61.8319997
  38.3859992  21.0574990  61.4179997  38.2359992  19.4574990  62.8109997
  37.2959992  19.1424990  62.3079997  38.8079992  18.5794990  63.1789997
  37.8919992  20.2884990  64.0129997  37.1819992  21.1164990  63.8039997
  37.4259992  19.6674990  64.8069997  39.0779992  21.0284990  64.7389997
  39.9079992  20.3594990  65.0539997  39.4579992  21.7034990  63.9419997
  38.6439992  21.7094990  66.0789997  39.6199992  22.0894990  66.4489997
  37.8619992  22.4704990  65.8669997  38.0669992  20.7794990  67.1469997
  37.9099992  21.3974990  68.0579997  37.0649992  20.4784990  66.7749997
  38.9169992  19.5634990  67.3689997  38.7049992  18.9194990  66.4879997
  40.0169992  19.7114990  67.3359997  38.4349992  18.6644990  68.5109997
  39.3489992  18.0874990  68.7679997  38.1599992  19.3454990  69.3449997
  37.2509992  17.8454990  68.2029997  36.5579992  17.7944990  69.0699997
  36.6349992  18.2054990  67.3509997  37.4979992  16.3824990  67.7799997
  36.5459992  16.0734990  67.2979997  38.2719992  16.2844990  66.9899997
  37.9539992  15.4544990  68.9219997  38.7149992  14.8274990  68.4099997
  38.4909992  16.0634990  69.6809997  36.7529992  14.7444990  69.5169997
  35.9279992  15.4764990  69.6529997  36.3439992  14.0224990  68.7769997
  37.0869992  14.1814990  70.9509997  36.4899992  13.2694990  71.1669997
  38.1039992  13.7424990  70.8639997  37.0579992  15.2924990  72.0049997
  36.7469992  16.4384990  71.7049997  37.5329992  14.8514990  73.1079997
  37.6299992  15.7094990  74.2419997  37.9379992  16.7554990  74.0319997
  36.7119992  15.7244990  74.8679997  38.9529992  15.1924990  74.8919997
  38.7269992  14.1344990  75.1439997  39.0829992  15.9684990  76.2129997
  38.1009992  16.0834990  76.7189997  39.7589992  15.3414990  76.8339997
  39.6839992  17.1884990  75.9619997  40.4919992  18.0174990  77.0069997
  40.9099992  19.3624990  76.1079997  41.6769992  19.0624990  74.9269997
  42.0999992  20.0114990  74.5319997  42.6149992  18.4984990  75.1179997
  40.8659992  18.5244990  73.6799997  41.6279992  18.3694990  72.9299997
  40.4329992  17.5444990  73.8209997  39.8759992  19.4724990  73.0279997
  40.5929992  20.6914990  72.5729997  39.9139992  21.4144990  72.1429997
  41.1589992  21.0514990  73.4189997  41.3149992  20.5604990  71.7799997
  39.2799992  18.8244990  71.7909997  40.0489992  18.8854990  71.0359997
  38.9949992  17.7924990  71.9379997  38.4579992  19.4284990  71.4359997
  38.7879992  19.8164990  73.9469997  38.3409992  18.8654990  74.1949997
  38.1559992  20.4164990  73.3099997  39.1839992  20.2554990  74.8509997
  39.5129992  18.3414990  78.0459997  41.7049992  17.3054990  77.4039997
  40.0379992  15.4304990  73.9259997  41.1919992  14.7674990  74.1579997
  41.3069992  13.7384990  74.8369997  42.3219992  15.4034990  73.3079997
  43.2719992  14.9334990  73.6409997  42.4809992  16.4694990  73.5749997
  42.1349992  15.2494990  71.7739997  41.1019992  15.6044990  71.5669997
  42.1469992  14.1654990  71.5309997  43.0369992  16.0544990  70.8079997
  43.0249992  15.4614990  69.8689997  44.0629992  16.0584990  71.2359997
  42.6249992  17.4394990  70.4959997  42.5089992  18.0004990  71.4489997
  41.6739992  17.5024990  69.9239997  43.7159992  18.1894990  69.6349997
  44.7099992  17.9964990  70.0919997  43.5479992  19.2874990  69.6369997
  43.9069992  17.6284990  68.2089997  44.0419992  16.5314990  68.3199997
  44.9249992  17.9554990  67.9069997  42.8349992  17.9684990  67.1279997
  42.8269992  19.0734990  67.0129997  41.8719992  17.6164990  67.5549997
  43.1239992  17.4264990  65.7939997  44.0789992  17.6144990  65.2819997
  42.3229992  16.5804990  65.0959997  42.6559992  16.2494990  64.1009997
  41.0049992  16.1104990  65.6839997  40.5399992  16.9274990  66.2779997
  41.0829992  15.2074990  66.3259997  39.9229992  15.8564990  64.5829997
  40.0069992  16.7684990  63.9529997  38.9749992  15.8524990  65.1619997
  40.1669992  14.5784990  63.7809997  40.2439992  13.7324990  64.4969997
  41.0789992  14.6764990  63.1549997  38.9149992  14.3334990  62.9459997
  38.0229992  14.3384990  63.6089997  39.0179992  13.2824990  62.6039997
  38.7039992  15.2364990  61.7629997  38.5129992  16.2944990  62.0429997
  37.6719992  15.1084990  61.3749997  39.8709992  15.3094990  60.7949997
  40.7949992  15.6074990  61.3339997  39.7409992  16.1244990  60.0509997
  40.2779992  13.9864990  60.1689997  40.4329992  13.2274990  60.9649997
  41.2849992  14.0194990  59.6999997  39.2549992  13.2334990  59.2739997
  39.1819992  13.8124990  58.3279997  38.2379992  13.1814990  59.7159997
  39.5629992  12.2284990  58.9129997 114.9759992  82.0474990  53.8799997
 115.9989992  81.9994990  53.4499997 114.4559992  82.9834990  53.5839997
 114.3089992  81.1984990  53.6159997 115.0379992  81.9374990  55.4169997
 113.9879992  81.9894990  55.7769997 115.4409992  80.9264990  55.6419997
 115.8819992  82.9974990  56.1859997 116.9769992  82.8154990  56.1349997
 115.6559992  84.0134990  55.7989997 115.5429992  83.0324990  57.6849997
 114.8489992  83.8914990  57.8059997 115.1589992  82.0324990  57.9779997
 116.8999992  83.1994990  58.5189997 117.7259992  82.6054990  58.0729997
 117.2019992  84.2604990  58.6539997 116.7939992  82.4734990  59.8509997
 115.9369992  81.7674990  59.8849997 117.6579992  81.7924990  60.0099997
 116.5449992  83.3514990  61.0359997 117.4729992  83.9334990  61.2239997
 115.6969992  84.0564990  60.9029997 116.2549992  82.6394990  62.4439997
 115.1829992  82.3464990  62.4289997 116.8909992  81.7364990  62.5589997
 116.5639992  83.5884990  63.6009997 115.8859992  84.4594990  63.4759997
 116.2399992  82.9994990  64.4859997 117.9979992  84.1494990  63.9139997
 118.2079992  84.8974990  63.1209997 118.0669992  84.6814990  64.8869997
 119.0719992  83.0794990  63.9769997 118.7889992  82.3084990  64.7249997
 119.2219992  82.4394990  63.0819997 120.4499992  83.6954990  64.3299997
 121.2419992  82.9334990  64.1629997 120.7269992  84.4854990  63.5999997
 120.6349992  84.2694990  65.7929997 121.7069992  84.4204990  66.0449997
 120.1219992  85.2544990  65.8219997 120.0739992  83.2914990  66.9009997
 118.9829992  83.1894990  66.7139997 120.5039992  82.2754990  66.7699997
 120.1819992  83.7294990  68.3959997 120.2639992  82.9074990  69.1389997
 121.0639992  84.4014990  68.4609997 119.0409992  84.6914990  68.8289997
 118.3059992  85.2164990  68.0579997 119.1049992  84.8884990  70.2019997
 118.2489992  85.7684990  70.8879997 118.9429992  86.4234990  71.4569997
 117.8229992  86.4074990  70.0849997 117.3479992  84.9274990  71.8729997
 116.8529992  85.6744990  72.5289997 118.2749992  83.9904990  72.7079997
 118.8019992  83.3304990  71.9859997 119.0159992  84.5724990  73.2949997
 117.3539992  83.1744990  73.5699997 118.1559992  82.2674990  74.5469997
 117.0339992  81.1704990  75.1979997 116.2259992  80.3504990  74.3839997
 115.1999992  80.2264990  74.7919997 116.1489992  80.8944990  73.4179997
 116.8179992  78.9414990  74.2179997 116.1579992  78.3874990  73.5659997
 117.7499992  79.0794990  73.6909997 117.0649992  78.0704990  75.4889997
 117.3809992  76.6974990  74.9769997 117.5939992  76.1054990  75.8549997
 116.5759992  76.2344990  74.4269997 118.2869992  76.7264990  74.3899997
 118.2379992  78.5254990  76.2879997 119.1819992  78.4684990  75.7679997
 118.2029992  79.5524990  76.6199997 118.3109992  77.8784990  77.1489997
 115.8379992  78.0344990  76.4189997 115.0639992  77.6694990  75.7599997
 115.6259992  78.9904990  76.8749997 115.9699992  77.2444990  77.1439997
 119.0919992  81.4824990  73.6929997 118.6939992  82.9974990  75.6889997
 116.3409992  84.1094990  71.2359997 115.6179992  84.5684990  70.2159997
 115.6279992  85.6924990  69.8029997 114.9069992  83.4054990  69.4469997
 114.4369992  83.8184990  68.5289997 114.0779992  83.1664990  70.1469997
 115.8329992  82.1674990  69.1569997 115.8159992  81.6024990  70.1129997
 116.8569992  82.5894990  69.0779997 115.4989992  81.3434990  67.9949997
 115.3579992  81.9994990  67.1089997 114.4709992  80.9224990  67.9749997
 116.5449992  80.2754990  67.8239997 116.4749992  79.4904990  68.6079997
 117.5629992  80.7154990  67.8879997 116.4699992  79.6354990  66.3639997
 116.6659992  80.4604990  65.6459997 115.4499992  79.2434990  66.1669997
 117.4509992  78.5454990  66.2789997 117.3269992  77.8284990  67.1199997
 118.4639992  78.9994990  66.2349997 117.2209992  77.8364990  64.9089997
 117.0789992  78.5314990  64.0539997 116.3099992  77.2184990  65.0569997
 118.4309992  76.9374990  64.8179997 118.3779992  75.9564990  65.3119997
 119.4809992  77.3314990  64.1059997 120.3789992  76.6994990  64.1689997
 119.7279992  78.5704990  63.2889997 120.6389992  79.1714990  63.4949997
 118.9529992  79.3524990  63.4349997 119.8149992  78.1724990  61.8609997
 118.7679992  77.9854990  61.5399997 120.4309992  77.2704990  61.6549997
 120.3199992  79.3734990  60.9569997 121.2649992  79.5434990  61.5149997
 119.6899992  80.2844990  61.0459997 120.3419992  78.9754990  59.4899997
 121.0129992  78.0954990  59.3879997 120.9819992  79.7654990  59.0419997
 118.9989992  78.8014990  58.8829997 118.4239992  79.7024990  59.1869997
 118.4379992  77.9144990  59.2469997 119.0749992  78.7404990  57.3389997
 119.5959992  77.8054990  57.0409997 119.7399992  79.5204990  56.9099997
 117.7149992  78.6374990  56.6439997 117.0169992  79.4754990  56.8559997
 117.1789992  77.7294990  56.9959997 117.9399992  78.5574990  55.1589997
 117.0449992  78.2864990  54.5599997 118.6739992  77.7404990  54.9889997
 118.4119992  79.4884990  54.7779997  39.1909992  98.5064990  56.3529997
  38.2659992  99.1114990  56.4619997  38.9999992  97.6534990  57.0389997
  39.3529992  98.0574990  55.3499997  40.4259992  99.4094990  56.6639997
  41.3499992  98.8464990  56.4129997  40.3039992 100.1504990  55.8449997
  40.2479992 100.0844990  57.9879997  41.1819992 100.5924990  58.3119997
  39.5109992 100.9064990  57.8579997  39.8629992  99.1634990  59.1639997
  38.8499992  98.7674990  58.9349997  40.5569992  98.3004990  59.2599997
  39.6569992  99.8274990  60.5449997  39.3339992  98.9764990  61.1819997
  40.5889992 100.1894990  61.0289997  38.5129992 100.9414990  60.6789997
  38.2639992 101.1684990  61.7379997  38.7899992 101.8774990  60.1489997
  37.1729992 100.6804990  59.9069997  37.4389992 100.4554990  58.8519997
  36.7199992  99.7674990  60.3479997  36.2309992 101.9164990  59.9059997
  36.5719992 102.6614990  59.1549997  35.3219992 101.6754990  59.3149997
  35.9499992 102.6494990  61.2599997  36.8359992 103.1774990  61.6719997
  35.2299992 103.4784990  61.0909997  35.2409992 101.6244990  62.2099997
  34.2639992 101.3894990  61.7359997  35.8319992 100.6904990  62.3269997
  34.9939992 102.2604990  63.5459997  35.9509992 102.7234990  63.8679997
  34.1819992 103.0004990  63.3839997  34.4569992 101.2444990  64.6889997
  33.9929992 101.8164990  65.5209997  33.6169992 100.6214990  64.3149997
  35.5289992 100.2514990  65.2029997  35.9809992  99.7964990  64.2959997
  36.2459992 100.9044990  65.7459997  35.0369992  99.1544990  66.1079997
  34.6019992  99.5994990  67.0279997  34.2699992  98.5004990  65.6419997
  36.2159992  98.3494990  66.5329997  36.6519992  97.8264990  65.6559997
  36.9649992  99.1034990  66.8549997  35.8789992  97.3484990  67.6089997
  35.0849992  96.4464990  67.4729997  36.7219992  97.5054990  68.6229997
  36.5669992  96.4684990  69.6589997  35.5539992  96.4754990  70.1159997
  36.7479992  95.4324990  69.2989997  37.6409992  96.7894990  70.8179997
  37.6059992  95.9374990  71.5309997  37.2339992  98.0974990  71.6519997
  36.6559992  98.7384990  70.9529997  36.5519992  97.8344990  72.4889997
  38.3979992  98.7384990  72.2049997  39.0559992  98.2744990  73.6149997
  37.8889992  98.6624990  74.5699997  37.1829992  99.9324990  74.3739997
  37.7059992 100.6154990  73.6699997  36.1879992  99.7414990  73.9199997
  36.8999992 100.7604990  75.7129997  36.1079992 101.4154990  75.3809997
  36.6209992 100.0154990  76.4439997  38.0929992 101.5034990  76.3699997
  38.8329992 102.3804990  75.3749997  39.4509992 102.9394990  76.0619997
  39.5159992 102.0494990  74.6079997  38.1789992 103.1684990  75.0329997
  37.6079992 102.3114990  77.5649997  38.4579992 102.9124990  77.8509997
  36.7549992 102.9134990  77.2879997  37.3009992 101.5324990  78.2469997
  39.1029992 100.4904990  76.9659997  39.9439992 100.9704990  77.4429997
  39.4149992  99.8684990  76.1399997  38.6119992  99.9814990  77.7819997
  39.2739992  96.7794990  73.6919997  40.2159992  99.0904990  74.0269997
  38.8659992  96.9144990  70.2249997  39.4909992  95.7774990  69.7939997
  39.0159992  94.7054990  69.9209997  40.9309992  96.0024990  69.3099997
  41.3989992  95.0404990  69.0089997  41.5349992  96.2794990  70.1999997
  41.0729992  97.0844990  68.2439997  42.1259992  97.1874990  67.9049997
  40.7409992  98.0184990  68.7449997  40.1609992  96.8164990  67.0269997
  39.0789992  96.7644990  67.2719997  40.4729992  95.8494990  66.5759997
  40.4669992  97.9084990  65.9589997  41.5319992  98.0344990  65.6689997
  40.0499992  98.8844990  66.2879997  39.7109992  97.6954990  64.5169997
  39.9829992  98.6134990  63.9539997  38.6719992  97.7274990  64.9099997
  40.1569992  96.3804990  63.8709997  39.9989992  95.4964990  64.5249997
  41.2549992  96.3864990  63.6999997  39.4249992  95.9764990  62.5169997
  40.0899992  95.2014990  62.0799997  39.4539992  96.8044990  61.7769997
  38.0949992  95.3224990  62.7699997  38.2179992  94.2394990  62.9179997
  36.8579992  95.8504990  62.6449997  36.0079992  95.1844990  62.8519997
  36.2709992  97.2434990  62.2839997  37.0069992  98.0614990  62.1309997
  35.6249992  97.5254990  63.1429997  35.3699992  97.1144990  61.0169997
  34.7529992  98.0164990  60.8189997  34.5919992  96.3224990  61.0509997
  36.1339992  96.8474990  59.6699997  36.6839992  95.8954990  59.8309997
  36.9479992  97.5714990  59.4519997  35.1039992  96.5834990  58.5579997
  34.2909992  97.3374990  58.6169997  34.6119992  95.5874990  58.5369997
  35.6799992  96.7894990  57.1189997  36.3289992  97.6854990  57.2219997
  34.8669992  96.9924990  56.3889997  36.5089992  95.6744990  56.4789997
  35.9949992  94.7074990  56.2899997  37.4259992  95.4884990  57.0769997
  36.8679992  96.1624990  55.0369997  37.1759992  97.2294990  55.0249997
  35.9559992  96.1724990  54.4029997  37.8829992  95.2614990  54.3059997
  37.4769992  94.2394990  54.1469997  38.8419992  95.1374990  54.8529997
  38.0869992  95.6544990  53.2869997 118.1909992  69.3284990  54.4549997
 117.7709992  69.5784990  53.4579997 119.1699992  68.8134990  54.3479997
 118.4879992  70.2504990  54.9999997 117.2689992  68.4774990  55.2219997
 117.0379992  67.5994990  54.5809997 117.8039992  68.2764990  56.1739997
 115.9469992  69.1594990  55.5309997 115.6189992  69.6004990  54.5659997
 115.2219992  68.4534990  55.9909997 116.1749992  70.3664990  56.5079997
 117.0549992  70.9144990  56.1089997 115.2219992  70.9284990  56.4019997
 116.2849992  69.8734990  57.9349997 115.4719992  69.1254990  58.0609997
 117.2839992  69.3884990  57.9489997 116.1189992  70.9054990  58.9939997
 116.6929992  71.8504990  58.8879997 115.0919992  71.3274990  59.0249997
 116.4789992  70.4264990  60.4449997 115.7369992  69.6144990  60.6009997
 117.4819992  69.9504990  60.3919997 116.1319992  71.5374990  61.4939997
 116.9139992  72.3104990  61.3359997 115.1009992  71.9384990  61.3889997
 116.4449992  71.1744990  62.9419997 115.8369992  70.2494990  63.0289997
 117.5039992  70.8414990  62.9829997 115.9749992  72.1044990  64.0629997
 116.3179992  73.1154990  63.7549997 114.8829992  72.0084990  64.2419997
 116.4689992  71.7734990  65.5039997 115.9219992  70.9474990  66.0059997
 117.5539992  71.5404990  65.4559997 116.2569992  73.0304990  66.4399997
 116.4149992  74.0584990  66.0479997 115.1729992  72.9294990  66.6609997
 117.0339992  72.7594990  67.7359997 116.7889992  71.7384990  68.0979997
 118.1359992  72.8414990  67.6209997 116.5959992  73.7874990  68.7969997
 117.1999992  73.6634990  69.7209997 116.7999992  74.7944990  68.3749997
 115.0849992  73.7004990  69.2299997 114.7609992  74.4004990  70.0289997
 114.4039992  73.6094990  68.3569997 114.9829992  72.2794990  70.0159997
 114.3959992  71.3134990  69.6479997 115.6399992  72.3204990  71.1789997
 115.5629992  71.1054990  71.9709997 115.6559992  71.4644990  73.0179997
 114.4969992  70.7944990  71.9339997 116.6789992  70.0224990  71.6049997
 116.3749992  69.5934990  70.6259997 116.7569992  68.7554990  72.5039997
 115.8089992  68.1914990  72.3709997 117.6539992  68.2514990  72.0859997
 117.1099992  69.0684990  73.8299997 118.5599992  69.1964990  74.4609997
 118.6739992  70.7224990  74.8849997 117.5769992  71.1584990  75.7129997
 116.6359992  71.3364990  75.1499997 117.4149992  70.5284990  76.6139997
 117.8499992  72.5254990  76.2789997 116.8399992  72.7934990  76.5539997
 118.5039992  72.6344990  77.1309997 118.2609992  73.6324990  75.2889997
 119.5979992  73.3624990  74.6489997 120.2279992  72.9074990  75.3989997
 119.4539992  72.6324990  73.8659997 119.8889992  74.3454990  74.3089997
 117.2059992  73.6764990  74.2089997 116.2229992  73.6714990  74.6569997
 117.3469992  74.5974990  73.6629997 117.2309992  72.8944990  73.4649997
 118.3529992  74.8984990  76.0889997 118.5629992  75.7164990  75.4149997
 119.1259992  74.7624990  76.8309997 117.3429992  74.9774990  76.4619997
 118.5759992  68.3304990  75.6079997 119.5969992  68.9664990  73.4599997
 117.8789992  70.7884990  71.6489997 118.6759992  70.8754990  70.5659997
 118.5749992  70.2434990  69.5189997 119.8149992  71.8984990  70.9199997
 120.0339992  71.6374990  71.9769997 119.4509992  72.9454990  70.8539997
 120.9669992  71.7484990  69.8729997 120.4839992  71.5044990  68.9019997
 121.5569992  70.8174990  70.0119997 121.9739992  72.9044990  69.8009997
 122.5989992  72.8704990  70.7189997 121.5669992  73.9384990  69.7989997
 122.8559992  72.7734990  68.5519997 123.4759992  71.8574990  68.4509997
 123.6799992  73.5134990  68.6349997 122.1669992  73.0114990  67.2789997
 121.7489992  72.0834990  66.8339997 122.9599992  73.4764990  66.6549997
 121.2519992  74.2844990  67.2259997 121.7959992  75.1634990  67.6339997
 120.3269992  74.0274990  67.7849997 120.9599992  74.6974990  65.7459997
 121.9299992  74.7714990  65.2079997 120.5449992  75.7274990  65.7209997
 119.9849992  73.7144990  65.1249997 119.2509992  73.3704990  65.8679997
 119.8989992  73.2984990  63.8079997 119.1899992  72.5204990  63.4869997
 120.8099992  73.8054990  62.7069997 121.7669992  74.1854990  63.1259997
 120.3619992  74.6124990  62.0879997 121.2099992  72.6314990  61.7129997
 121.9289992  72.0024990  62.2809997 121.6809992  73.2304990  60.9039997
 120.1029992  71.7284990  61.0569997 119.3979992  72.4644990  60.6139997
 119.4979992  71.1844990  61.8129997 120.5529992  70.6674990  60.0489997
 119.7059992  70.0344990  59.7079997 121.2989992  69.9584990  60.4679997
 121.2459992  71.1174990  58.7399997 121.8489992  70.2244990  58.4669997
 122.0079992  71.8764990  59.0179997 120.3979992  71.5374990  57.6359997
 119.5109992  70.8734990  57.7229997 120.8809992  71.5504990  56.6359997
 119.8349992  72.9304990  57.7789997 119.3569992  73.0774990  58.7709997
 118.9959992  73.0704990  57.0639997 120.9399992  73.9764990  57.5829997
 121.8069992  73.4424990  57.1379997 121.2259992  74.4864990  58.5279997
 120.6199992  74.8464990  56.9699997  55.2869992  13.0154990  55.5149997
  55.7139992  13.4234990  56.4559997  54.4559992  13.7094990  55.2669997
  56.0879992  12.9574990  54.7469997  54.7259992  11.6684990  55.7629997
  53.7109992  11.8154990  56.1899997  54.5239992  11.1994990  54.7759997
  55.6789992  10.6854990  56.5249997  55.2619992   9.6664990  56.3769997
  56.6969992  10.7784990  56.0889997  55.7909992  11.0494990  58.0689997
  56.7949992  11.1814990  58.5249997  55.2109992  11.9844990  58.2249997
  55.2269992   9.7894990  58.7599997  54.3189992   9.3094990  58.3359997
  56.0399992   9.0474990  58.6089997  54.9819992  10.0094990  60.2819997
  55.0939992   9.0204990  60.7749997  55.5629992  10.8764990  60.6629997
  53.4619992  10.3304990  60.4439997  53.2079992  11.0534990  59.6399997
  52.8409992   9.4814990  60.0859997  52.9809992  10.8424990  61.8039997
  53.6209992  11.6084990  62.2909997  51.9599992  11.2664990  61.6869997
  52.6649992   9.5684990  62.6919997  51.7339992   9.0334990  62.4049997
  53.5479992   8.9064990  62.5649997  52.4909992  10.0864990  64.1899997
  53.4059992  10.7124990  64.2629997  51.5629992  10.6854990  64.0719997
  52.2439992   8.9954990  65.1919997  51.4429992   8.3644990  64.7519997
  53.2039992   8.4464990  65.0799997  51.9519992   9.5304990  66.6189997
  52.7329992  10.2814990  66.8659997  50.9689992  10.0274990  66.7659997
  52.0959992   8.3904990  67.6419997  51.3109992   7.6304990  67.4379997
  53.0379992   7.8014990  67.6449997  51.8419992   8.8624990  69.0779997
  50.8459992   9.3544990  69.0899997  51.8509992   8.0144990  69.7969997
  52.8389992   9.8504990  69.5729997  53.8249992   9.3394990  69.5329997
  52.9039992  10.7654990  68.9469997  52.4429992  10.1484990  71.0239997
  51.3139992  10.3424990  71.4219997  53.5259992  10.1244990  71.7509997
  53.4729992  10.5554990  73.1309997  54.3869992  11.1804990  73.2179997
  52.6639992  11.3124990  73.2169997  53.3059992   9.3794990  74.1689997
  52.2239992   9.1274990  74.1749997  53.7309992   9.8304990  75.6229997
  53.3169992  10.8614990  75.6439997  53.0789992   9.2194990  76.2829997
  55.0799992   9.5924990  76.0279997  55.7779992  10.7324990  76.8109997
  57.1749992  10.7994990  76.0459997  57.5469992  11.6124990  74.9979997
  57.1789992  12.6604990  74.9819997  58.6539992  11.6934990  75.0249997
  57.1989992  10.9654990  73.6289997  56.1759992  10.6464990  73.7599997
  57.3519992  11.7884990  72.9459997  58.0949992   9.8674990  73.1489997
  59.2959992  10.4464990  72.5529997  58.9919992  11.1454990  71.7869997
  59.8999992  10.8404990  73.3569997  59.8449992   9.6424990  72.0849997
  58.4199992   8.8014990  74.2639997  57.4829992   8.2754990  74.3719997
  59.2439992   8.2904990  73.7879997  58.7919992   9.3594990  75.1099997
  57.2529992   9.1004990  72.1029997  57.8469992   8.3504990  71.6009997
  56.9239992   9.7624990  71.3149997  56.3839992   8.6474990  72.5559997
  55.1619992  12.0764990  76.6999997  56.0359992  10.2144990  78.1909997
  54.0259992   8.2074990  73.7209997  53.8689992   7.0584990  74.4819997
  53.0279992   6.9764990  75.3889997  54.8019992   5.9444990  73.9179997
  54.1879992   5.0184990  73.9059997  55.7139992   5.7334990  74.5179997
  55.0779992   6.0634990  72.4079997  55.7089992   6.9734990  72.3199997
  54.1309992   6.2814990  71.8679997  55.7659992   4.8394990  71.8489997
  55.3929992   3.9194990  72.3489997  56.8629992   4.8274990  72.0239997
  55.4689992   4.7154990  70.2899997  54.3669992   4.8544990  70.2589997
  55.6489992   3.6814990  69.9249997  56.0299992   5.9004990  69.4539997
  55.6589992   6.9214990  69.6879997  55.6979992   5.8044990  68.3989997
  57.5219992   6.0884990  69.4119997  57.9969992   5.0854990  69.3589997
  57.7319992   6.4124990  70.4529997  58.0519992   7.0514990  68.4119997
  58.0229992   6.4564990  67.4739997  59.1279992   7.2794990  68.5649997
  57.2829992   8.4044990  68.3389997  57.4789992   8.9744990  69.2589997
  56.6089992   8.9364990  67.3229997  56.1399992   9.9014990  67.5659997
  56.3849992   8.4394990  65.9339997  55.4309992   8.8034990  65.4959997
  56.3099992   7.3404990  65.7859997  57.5019992   8.8014990  64.7989997
  58.4659992   8.2844990  64.9939997  57.7869992   9.8744990  64.7749997
  56.9769992   8.3394990  63.4849997  56.2999992   8.9404990  62.8409997
  56.4869992   7.3564990  63.6519997  58.1139992   7.8764990  62.5229997
  58.6259992   6.9504990  62.8619997  58.8259992   8.7194990  62.3949997
  57.5579992   7.5424990  61.0719997  58.4659992   7.3064990  60.4759997
  57.0849992   8.4954990  60.7519997  56.4729992   6.3954990  60.9829997
  55.6689992   6.5334990  61.7369997  57.0259992   5.5004990  61.3419997
  55.7989992   6.0934990  59.6299997  55.1989992   6.9034990  59.1629997
  55.1549992   5.1934990  59.7319997  56.8889992   5.7274990  58.5669997
  56.2579992   5.5634990  57.6669997  57.4609992   4.8034990  58.8009997
  57.6249992   6.5584990  58.5219997 107.6739992  97.4284990  53.4559997
 108.6469992  97.5164990  53.9849997 106.9509992  97.9934990  54.0819997
 107.6289992  97.9514990  52.4769997 107.2779992  95.9944990  53.2919997
 106.2569992  95.9324990  52.8589997 107.9189992  95.5274990  52.5139997
 107.3469992  95.2074990  54.5539997 106.9139992  94.1954990  54.4089997
 108.4209992  95.0474990  54.7869997 106.4759992  95.8184990  55.7039997
 106.7709992  96.8884990  55.7609997 105.3989992  95.7164990  55.4519997
 106.4819992  95.1444990  57.0659997 105.8329992  95.7744990  57.7099997
 106.1819992  94.0764990  57.1119997 107.8609992  95.3724990  57.8159997
 108.5919992  94.6194990  57.4539997 108.1759992  96.4014990  57.5409997
 107.8099992  95.2414990  59.3289997 108.8539992  95.3314990  59.6959997
 107.2339992  96.0694990  59.7949997 107.3709992  93.8044990  59.8399997
 106.2809992  93.6474990  59.6929997 107.9049992  93.0674990  59.2019997
 107.6609992  93.4624990  61.3339997 108.7609992  93.4654990  61.4869997
 107.1839992  94.2894990  61.9019997 107.0699992  92.1614990  61.8619997
 105.9869992  92.2734990  61.6389997 107.6079992  91.4194990  61.2339997
 107.4929992  91.9214990  63.3939997 108.5949992  92.0594990  63.4259997
 107.0209992  92.7554990  63.9569997 107.1279992  90.4714990  63.9269997
 106.0199992  90.4144990  63.9839997 107.5749992  89.6994990  63.2649997
 107.4789992  90.0704990  65.3979997 107.2209992  88.9964990  65.5139997
 108.5159992  90.3624990  65.6709997 106.5519992  90.8594990  66.2979997
 106.7969992  91.9424990  66.3349997 105.5219992  90.8224990  65.8829997
 106.7329992  90.5304990  67.8049997 106.7259992  89.4264990  67.9349997
 107.7629992  90.9234990  67.9419997 105.7179992  91.1144990  68.7329997
 104.5439992  91.2194990  68.4589997 106.3759992  91.4454990  69.8639997
 105.8419992  92.3984990  70.6839997 105.3559992  93.1634990  70.0419997
 105.2729992  91.8534990  71.4669997 107.0099992  93.1924990  71.3939997
 107.6659992  92.3804990  71.7749997 106.6759992  94.0434990  72.5729997
 105.8489992  94.7634990  72.3969997 106.2719992  93.3254990  73.3179997
 107.7269992  94.9054990  72.9219997 108.5519992  94.7084990  74.2899997
 109.1059992  93.2254990  74.1999997 110.3399992  93.0054990  73.5789997
 110.3399992  91.9314990  73.2929997 110.5149992  93.6274990  72.6749997
 111.4749992  93.3414990  74.5319997 112.4399992  93.1084990  74.1069997
 111.3159992  94.3274990  74.9419997 111.4869992  92.6704990  75.9439997
 111.4079992  91.1194990  75.8229997 110.5539992  90.7684990  75.2619997
 112.2439992  90.5804990  75.4039997 110.9899992  90.9064990  76.7959997
 112.7749992  93.0454990  76.6319997 113.6429992  92.5724990  76.1979997
 112.7859992  94.1184990  76.7499997 112.6999992  92.5054990  77.5639997
 110.4429992  93.1714990  76.8469997 109.5409992  93.3314990  76.2749997
 110.6429992  94.1874990  77.1569997 110.2129992  92.4644990  77.6299997
 109.6889992  95.6044990  74.2249997 107.6219992  94.7814990  75.4769997
 107.6709992  93.9164990  70.3329997 108.8259992  93.3644990  69.8989997
 109.2909992  92.3514990  70.3169997 109.5119992  94.2574990  68.7579997
 110.5749992  94.4764990  68.9969997 109.0079992  95.2464990  68.7979997
 109.3519992  93.5954990  67.3539997 108.2609992  93.7044990  67.1739997
 109.6979992  92.5394990  67.3399997 110.0059992  94.4454990  66.2019997
 109.7319992  95.5004990  66.4139997 109.5319992  94.2374990  65.2189997
 111.5099992  94.5164990  66.1109997 111.9719992  94.8034990  67.0799997
 111.7139992  95.3054990  65.3559997 112.0569992  93.1064990  65.6289997
 111.3119992  92.3374990  65.3319997 112.5499992  92.6264990  66.5009997
 112.9969992  93.2384990  64.3129997 113.5849992  92.3094990  64.1539997
 113.7999992  93.9524990  64.5949997 112.2509992  93.4284990  63.0819997
 111.3399992  94.0494990  63.2209997 111.7909992  92.4424990  62.8569997
 112.9889992  94.0854990  62.0069997 113.3359992  95.0744990  62.3409997
 113.1869992  93.7564990  60.7619997 113.8679992  94.2204990  60.0329997
 112.6359992  92.5594990  60.0729997 111.8939992  92.0304990  60.7089997
 113.4279992  91.8404990  59.7709997 111.7999992  92.7014990  58.7579997
 112.4939992  93.1144990  57.9949997 111.1879992  93.6284990  58.7729997
 110.9939992  91.4294990  58.3599997 109.9759992  91.5274990  58.7929997
 111.2949992  90.5034990  58.8949997 111.1339992  91.2164990  56.8369997
 110.6379992  90.3034990  56.4439997 112.2179992  91.1634990  56.5959997
 110.2949992  92.3304990  56.1599997 110.6809992  93.3274990  56.4609997
 109.2999992  92.3024990  56.6539997 109.8179992  92.1934990  54.6769997
 109.0529992  92.9824990  54.5149997 109.3659992  91.1804990  54.6109997
 110.8299992  92.5604990  53.5559997 110.4069992  92.5254990  52.5289997
 111.6199992  91.7804990  53.5819997 111.4419992  93.8924990  53.7649997
 112.0329992  94.2364990  52.8889997 112.1559992  93.8014990  54.6109997
 110.6669992  94.6864990  53.8289997 103.7759992  46.3754990  57.7539997
 103.4949992  47.2234990  58.4149997 104.4179992  46.7734990  56.9399997
 104.3179992  45.5844990  58.3159997 102.5229992  45.7124990  57.2329997
 101.9089992  46.5224990  56.7859997 102.6749992  44.9774990  56.4139997
 101.7409992  44.9994990  58.4419997 101.5649992  45.8304990  59.1579997
 100.8169992  44.5404990  58.0289997 102.5269992  43.7754990  59.0669997
 102.8579992  43.0934990  58.2549997 103.4199992  44.1634990  59.6019997
 101.7359992  43.1584990  60.2439997 101.6089992  44.0734990  60.8609997
 100.7219992  42.7414990  60.0689997 102.6049992  42.1004990  61.0119997
 102.7189992  41.1744990  60.4089997 103.6259992  42.4894990  61.2139997
 102.0219992  41.5524990  62.3259997 101.1089992  40.9504990  62.1309997
 102.7999992  40.8704990  62.7299997 101.6529992  42.5814990  63.3679997
 100.6279992  42.8814990  63.0629997 101.4619992  42.1494990  64.3729997
 102.6049992  43.7314990  63.5879997 102.7829992  44.2544990  62.6239997
 102.2119992  44.4174990  64.3689997 104.0089992  43.2174990  64.0349997
 103.8749992  42.2564990  64.5759997 104.6619992  42.9244990  63.1859997
 104.7179992  44.2244990  64.9469997 104.7039992  45.2634990  64.5529997
 104.2699992  44.2494990  65.9629997 106.2229992  43.8684990  65.2029997
 106.3489992  42.9714990  65.8459997 106.6819992  43.5554990  64.2409997
 106.9699992  45.1084990  65.7499997 106.8739992  45.9574990  65.0389997
 106.3489992  45.3974990  66.6249997 108.5069992  45.0124990  66.0769997
 109.0949992  44.8664990  65.1449997 108.9329992  45.9354990  66.5259997
 108.7159992  43.9814990  67.1719997 108.3289992  42.9504990  67.0259997
 109.8009992  43.8614990  67.3779997 108.1909992  44.6254990  68.4119997
 107.9749992  45.8104990  68.5319997 107.9519992  43.7274990  69.4149997
 107.2989992  44.1944990  70.6099997 107.6229992  43.5894990  71.4839997
 107.5109992  45.2694990  70.7939997 105.7369992  44.1124990  70.5859997
 105.4479992  44.7644990  69.7339997 105.1359992  44.5424990  72.0059997
 105.5259992  45.5784990  72.1019997 104.0399992  44.5894990  71.8289997
 105.5089992  43.7674990  73.1059997 105.2549992  44.4764990  74.5149997
 103.6789992  44.3304990  74.6889997 103.2579992  44.2004990  76.0699997
 103.5289992  43.2634990  76.6019997 103.7289992  44.9834990  76.7029997
 101.6529992  44.2184990  76.1629997 101.4799992  43.9774990  77.2009997
 101.2499992  45.2194990  76.1189997 100.8749992  43.2804990  75.2489997
 101.6399992  41.9294990  75.2139997 102.6309992  42.1074990  74.8249997
 101.8099992  41.5694990  76.2169997 101.2219992  41.1674990  74.5719997
  99.5389992  42.8854990  75.6839997  98.9109992  43.6904990  75.3319997
  99.0809992  41.9854990  75.3019997  99.6039992  42.7524990  76.7539997
 100.8039992  43.7324990  73.8279997 100.1089992  44.5584990  73.8499997
 100.4929992  42.9324990  73.1719997 101.7659992  44.1454990  73.5589997
 105.9059992  43.7794990  75.6049997 105.5909992  45.8794990  74.3509997
 105.4219992  42.7494990  70.2929997 104.2929992  42.6454990  69.5589997
 103.5159992  43.5944990  69.4029997 104.0869992  41.2294990  69.0719997
 102.9989992  41.0204990  68.9969997 104.4839992  40.4614990  69.7689997
 104.7029992  40.9444990  67.6829997 104.4709992  41.7964990  67.0079997
 104.1859992  40.0174990  67.3559997 106.2729992  40.7264990  67.7049997
 106.4479992  39.9044990  68.4319997 106.8349992  41.6574990  67.9329997
 106.8489992  40.1494990  66.4429997 106.7119992  40.9934990  65.7329997
 106.2699992  39.2844990  66.0539997 108.3089992  39.8864990  66.4709997
 108.4779992  39.2574990  67.3709997 108.8039992  40.8074990  66.8469997
 109.0409992  39.4274990  65.1149997 108.7879992  38.3914990  64.8029997
 110.1499992  39.4304990  65.1919997 108.6349992  40.2554990  63.9019997
 107.5349992  40.3534990  63.7869997 108.9369992  39.6184990  63.0439997
 109.2469992  41.6464990  63.8229997 109.7349992  41.9554990  64.7599997
 109.3949992  42.4264990  62.7429997 109.7869992  43.4274990  62.9759997
 108.9569992  42.0824990  61.3439997 108.8599992  40.9814990  61.2349997
 109.7029992  42.4824990  60.6239997 107.6469992  42.8354990  60.9729997
 107.8869992  43.9174990  61.0469997 106.8429992  42.6134990  61.7069997
 106.9549992  42.5794990  59.5989997 105.8669992  42.8034990  59.6289997
 107.0289992  41.4804990  59.4569997 107.7279992  43.2554990  58.3709997
 108.6689992  42.6924990  58.1869997 107.9079992  44.3244990  58.6129997
 106.8979992  43.3774990  57.1089997 107.3549992  43.7754990  56.1779997
 106.0939992  44.1354990  57.2199997 106.2659992  41.9834990  56.6659997
 105.8759992  41.3904990  57.5199997 107.0729992  41.3774990  56.2019997
 105.1109992  42.1774990  55.6779997 105.5109992  42.8904990  54.9249997
 104.3089992  42.7104990  56.2319997 104.4879992  40.9354990  55.0429997
 104.0149992  40.3324990  55.8469997 105.1919992  40.2914990  54.4739997
 103.8079992  41.3614990  54.2749997  69.5409992 122.4494990  57.5639997
  69.1429992 123.4174990  57.9369997  69.9919992 122.5704990  56.5559997
  70.3079992 122.1034990  58.2899997  68.4539992 121.3634990  57.5289997
  67.5089992 121.6254990  57.0059997  68.8049992 120.4774990  56.9569997
  68.3359992 120.6184990  58.8659997  67.7689992 119.6664990  58.7809997
  69.2939992 120.2574990  59.2959997  67.6709992 121.4744990  60.0209997
  66.9159992 122.1644990  59.5849997  67.1339992 120.8944990  60.8009997
  68.6469992 122.3354990  60.7359997  69.5819992 121.7474990  60.8619997
  69.0079992 123.1764990  60.1069997  68.1649992 122.7344990  62.0899997
  68.7459992 123.6294990  62.3979997  67.1169992 123.0714990  61.9379997
  68.2249992 121.6484990  63.1859997  68.0629992 120.6584990  62.7099997
  69.3209992 121.6074990  63.3639997  67.3449992 121.8684990  64.4529997
  67.4819992 122.9544990  64.6409997  66.2739992 121.7784990  64.1709997
  67.7719992 120.8344990  65.4759997  67.4189992 119.8284990  65.1649997
  68.8809992 120.8344990  65.4229997  67.0979992 121.0314990  66.8399997
  67.5159992 121.9254990  67.3499997  66.0659992 121.2084990  66.4669997
  67.1949992 119.8824990  67.8069997  68.2339992 119.6824990  68.1459997
  66.5279992 120.0604990  68.6769997  66.7289992 118.5224990  67.1979997
  65.8929992 118.8624990  66.5509997  67.4269992 118.0584990  66.4689997
  66.3409992 117.4504990  68.1459997  65.5389992 117.7874990  68.8369997
  65.9909992 116.4894990  67.7109997  67.5519992 117.0094990  69.0629997
  68.0879992 116.1774990  68.5579997  68.2519992 117.8634990  69.1799997
  67.0709992 116.7584990  70.5369997  66.8909992 117.7844990  70.9219997
  66.1139992 116.1934990  70.5419997  68.1639992 115.9844990  71.3619997
  69.1069992 115.4414990  70.8599997  67.8729992 116.0694990  72.6239997
  68.9159992 115.7374990  73.5819997  68.4059992 115.6404990  74.5639997
  69.4179992 114.7674990  73.3779997  69.8799992 116.9834990  73.7179997
  70.6599992 116.6634990  74.4419997  69.4529992 118.3384990  74.2379997
  69.1019992 118.2094990  75.2849997  70.3169992 119.0364990  74.2139997
  68.4949992 118.9564990  73.2719997  67.0259992 119.2974990  73.7019997
  67.2999992 120.2744990  74.9199997  67.4439992 121.6874990  74.5309997
  68.1299992 121.9144990  73.6869997  66.4559992 122.1374990  74.2949997
  67.8559992 122.6064990  75.7619997  67.7499992 123.5864990  75.3199997
  67.1749992 122.4244990  76.5799997  69.3119992 122.4814990  76.2779997
  69.4929992 121.1444990  76.8429997  69.3799992 120.4444990  76.0279997
  70.4559992 121.1064990  77.3299997  68.7089992 121.0454990  77.5779997
  70.2209992 122.7454990  75.0729997  70.0319992 123.7404990  74.6989997
  71.2449992 122.7084990  75.4149997  70.1219992 121.9364990  74.3639997
  69.5519992 123.5794990  77.2829997  69.0679992 123.3484990  78.2209997
  69.2359992 124.5464990  76.9219997  70.5919992 123.5654990  77.5739997
  66.2989992 119.8964990  72.5479997  66.4339992 118.0154990  74.2619997
  70.3729992 117.2394990  72.3649997  71.6109992 117.8714990  72.2969997
  72.3109992 118.1794990  73.2589997  71.9639992 118.1274990  70.8399997
  71.7389992 117.1804990  70.3049997  73.0219992 118.4084990  70.6499997
  70.9289992 119.1934990  70.1699997  71.0089992 120.1374990  70.7489997
  69.8809992 118.8734990  70.3549997  71.0729992 119.5164990  68.7059997
  72.0199992 120.0864990  68.5889997  70.2269992 120.1974990  68.4709997
  70.9669992 118.3174990  67.8359997  70.2429992 117.5844990  68.2519997
  71.9879992 117.8864990  67.7659997  70.7269992 118.6904990  66.3999997
  71.4509992 119.4644990  66.0659997  69.7069992 119.1304990  66.3779997
  70.5999992 117.4924990  65.4309997  69.8709992 116.8354990  65.9509997
  71.5229992 116.8794990  65.3419997  69.9979992 117.8094990  64.0369997
  70.5479992 118.5804990  63.4559997  69.0879992 118.4044990  64.2659997
  69.8569992 116.6364990  63.1629997  70.8439992 116.3024990  62.8089997
  68.7429992 116.0554990  62.7469997  68.8549992 115.0964990  62.2179997
  67.2809992 116.4244990  62.9859997  67.1489992 116.7924990  64.0259997
  66.6569992 115.5144990  62.8579997  66.7219992 117.4974990  61.9649997
  67.3419992 118.3684990  62.2679997  65.6679992 117.7274990  62.2279997
  67.1019992 117.1434990  60.4699997  67.2029992 116.0364990  60.4599997
  68.0489992 117.6384990  60.1659997  66.0469992 117.6284990  59.4379997
  65.9879992 118.7374990  59.4809997  65.0619992 117.2194990  59.7499997
  66.3799992 116.9824990  58.0929997  66.6769992 115.9194990  58.2219997
  67.3519992 117.4444990  57.8199997  65.3709992 117.0424990  56.9289997
  64.3699992 116.7494990  57.3129997  65.6099992 116.2874990  56.1489997
  65.1059992 118.5254990  56.5529997  64.8669992 119.1004990  57.4729997
  64.2409992 118.6254990  55.8629997  66.2419992 119.1674990  55.8039997
  66.0519992 120.2224990  55.5109997  66.6579992 118.6304990  54.9249997
  67.1779992 119.2144990  56.4019997  15.7709992  64.5414990  54.1449997
  16.4559992  64.7744990  53.3009997  14.7659992  64.8314990  53.7719997
  15.9139992  63.4464990  54.2679997  16.1409992  65.4324990  55.3479997
  17.2479992  65.5264990  55.3609997  15.5859992  66.3944990  55.3109997
  15.5679992  64.9404990  56.6779997  14.4729992  65.0434990  56.5199997
  15.8599992  63.9184990  57.0029997  15.8929992  65.9374990  57.8449997
  16.9189992  66.3014990  57.6269997  15.1439992  66.7464990  57.9819997
  16.0189992  65.2434990  59.2129997  15.0449992  64.8974990  59.6179997
  16.6809992  64.3734990  59.0129997  16.7039992  66.1844990  60.2739997
  17.5829992  66.5724990  59.7159997  16.0809992  67.1044990  60.2689997
  17.0119992  65.6514990  61.6779997  16.0679992  65.4444990  62.2259997
  17.6539992  64.7484990  61.7559997  17.8299992  66.7254990  62.3749997
  18.7819992  66.9334990  61.8409997  17.0989992  67.5604990  62.3289997
  18.0299992  66.5554990  63.8679997  18.9579992  65.9684990  64.0389997
  18.2019992  67.5454990  64.3409997  16.8989992  65.8484990  64.6479997
  15.9069992  66.2864990  64.4079997  16.7559992  64.8294990  64.2279997
  16.9399992  65.8604990  66.1789997  17.9509992  65.5784990  66.5439997
  16.6839992  66.9094990  66.4399997  15.9159992  64.8034990  66.8309997
  14.9879992  64.8874990  66.2259997  16.1499992  63.7324990  66.6499997
  15.5209992  65.0444990  68.2729997  15.6669992  66.1284990  68.4669997
  14.4449992  64.7934990  68.3939997  16.3669992  64.2464990  69.3099997
  17.4639992  64.1574990  69.1569997  16.3169992  64.8394990  70.2479997
  15.6989992  62.8774990  69.5099997  14.7389992  63.0174990  70.0509997
  15.5219992  62.2554990  68.6059997  16.5349992  62.0524990  70.4769997
  16.0949992  60.9454990  70.7549997  17.6739992  62.6184990  71.0119997
  18.2709992  61.9824990  72.1599997  17.3899992  61.8144990  72.8159997
  18.8149992  61.0464990  71.9119997  19.1889992  63.0644990  72.9289997
  19.7429992  62.5584990  73.7479997  18.3589992  64.2514990  73.5109997
  17.5959992  63.8674990  74.2199997  19.0729992  64.8484990  74.1189997
  17.6419992  64.9674990  72.6209997  17.5229992  66.5504990  72.6709997
  17.6459992  66.9804990  74.2159997  16.7489992  66.3884990  75.1629997
  16.1109992  67.2434990  75.4759997  16.1879992  65.4854990  74.8419997
  17.5079992  65.7694990  76.4489997  16.7069992  65.5714990  77.1469997
  17.8919992  64.8504990  76.0319997  18.7199992  66.4684990  77.0939997
  18.9469992  65.7694990  78.4509997  17.9599992  65.7854990  78.8889997
  19.3589992  64.8044990  78.1969997  19.6389992  66.3564990  79.0379997
  19.9679992  66.3714990  76.2589997  19.7599992  66.8994990  75.3399997
  20.7539992  66.7244990  76.9099997  20.0909992  65.3114990  76.0969997
  18.4309992  67.9084990  77.3789997  17.9579992  68.3264990  76.5029997
  19.2879992  68.5404990  77.5599997  17.7529992  68.0304990  78.2109997
  18.6649992  67.1174990  71.9859997  16.1779992  66.9664990  72.1819997
  20.1349992  63.5774990  72.0119997  20.8499992  64.6574990  72.1529997
  21.0469992  65.3534990  73.1529997  21.5239992  64.8734990  70.8399997
  21.9289992  63.9834990  70.3139997  22.3829992  65.5654990  70.9719997
  20.4839992  65.5894990  69.8809997  20.6339992  66.6874990  69.9569997
  19.4819992  65.3494990  70.2959997  20.3869992  65.1054990  68.4479997
  19.7629992  65.8064990  67.8539997  19.9699992  64.0794990  68.5429997
  21.7649992  65.0214990  67.8379997  22.2429992  64.0894990  68.2079997
  22.3059992  65.9374990  68.1599997  21.7579992  64.8374990  66.2879997
  22.7329992  64.3904990  65.9989997  21.6089992  65.8504990  65.8559997
  20.7499992  63.7584990  65.9149997  19.7209992  64.1194990  66.1299997
  20.8419992  62.8494990  66.5469997  20.7619992  63.4364990  64.4239997
  20.7179992  64.3634990  63.8119997  19.7709992  62.9864990  64.2019997
  21.8659992  62.5854990  63.9899997  21.7899992  61.4914990  64.0859997
  22.9619992  62.9724990  63.2499997  23.7989992  62.2644990  63.1549997
  23.2089992  64.3984990  62.8109997  24.3069992  64.2894990  62.6769997
  23.0679992  65.1124990  63.6499997  22.4949992  64.9574990  61.5459997
  22.9379992  65.9404990  61.2789997  21.3969992  65.0364990  61.6969997
  22.6279992  64.1474990  60.2579997  22.0909992  63.1754990  60.2589997
  23.7099992  63.8974990  60.2279997  22.3289992  64.8844990  58.9139997
  23.0069992  64.5314990  58.1079997  22.5289992  65.9674990  59.0549997
  20.8169992  64.7874990  58.5109997  20.4539992  65.4694990  57.7119997
  20.1269992  65.1944990  59.2809997  20.2699992  63.3634990  58.0989997
  19.2419992  63.5544990  57.7219997  20.2389992  62.6594990  58.9579997
  21.1699992  62.6464990  57.0799997  22.1839992  62.5754990  57.5299997
  21.1719992  63.2424990  56.1429997  20.7079992  61.1864990  56.8029997
  21.0459992  60.6114990  57.6919997  21.1369992  60.7604990  55.8709997
  19.5979992  61.2114990  56.8189997  80.1539992 121.8744990  55.9399997
  79.9459992 122.9324990  55.6739997  79.7289992 121.1374990  55.2249997
  81.2539992 121.7504990  55.8409997  79.7979992 121.6924990  57.4479997
  78.7139992 121.9094990  57.5519997  79.9289992 120.6094990  57.6589997
  80.6039992 122.5274990  58.4989997  81.6489992 122.4634990  58.1269997
  80.2789992 123.5894990  58.4809997  80.5439992 121.9454990  59.9279997
  79.5209992 122.0804990  60.3379997  80.6179992 120.8464990  59.7779997
  81.6489992 122.5174990  60.8539997  82.6239992 122.2084990  60.4209997
  81.5449992 123.6204990  60.9459997  81.5039992 122.0824990  62.3069997
  80.8089992 122.8534990  62.7039997  80.9869992 121.1224990  62.5189997
  82.7229992 122.1094990  63.2189997  82.3399992 121.7884990  64.2109997
  83.3419992 121.3294990  62.7249997  83.4699992 123.4624990  63.2039997
  83.8599992 123.6194990  62.1759997  82.7519992 124.2624990  63.4869997
  84.5889992 123.5784990  64.1449997  85.1729992 122.6534990  64.3339997
  85.3289992 124.2304990  63.6329997  84.1819992 124.2714990  65.4269997
  83.6249992 125.1894990  65.1429997  83.4279992 123.6544990  65.9609997
  85.3759992 124.4664990  66.3889997  85.9739992 123.5474990  66.5659997
  86.0699992 125.1644990  65.8749997  85.0439992 125.0174990  67.8149997
  85.6849992 125.9034990  68.0079997  83.9739992 125.3174990  67.7959997
  85.0749992 123.9864990  68.9399997  86.0009992 123.3754990  68.9869997
  85.0749992 124.4904990  69.9299997  83.8759992 122.9544990  69.0039997
  82.8849992 123.4054990  68.7819997  84.2299992 122.1704990  68.3009997
  83.7989992 122.2574990  70.4129997  84.7619992 122.0084990  70.9079997
  83.3899992 123.1284990  70.9689997  83.0249992 120.9434990  70.4389997
  83.1129992 120.0274990  69.6289997  82.2539992 121.0364990  71.5439997
  81.5869992 119.9024990  72.1599997  80.8779992 120.2964990  72.9189997
  80.9959992 119.4584990  71.3309997  82.5649992 118.8874990  72.9019997
  81.9009992 118.0824990  73.2839997  83.2899992 119.5524990  74.1679997
  82.4699992 120.0314990  74.7449997  83.6739992 118.6384990  74.6689997
  84.3119992 120.4414990  73.6729997  85.1259992 121.4564990  74.6139997
  83.9809992 122.4324990  75.0929997  83.1959992 123.1344990  74.1749997
  83.1779992 124.2294990  74.3649997  83.6509992 123.0564990  73.1639997
  81.6969992 122.7144990  74.2019997  81.2359992 123.2534990  73.3879997
  81.6449992 121.6504990  74.0209997  80.9679992 122.8884990  75.5149997
  79.5229992 122.8664990  75.1359997  79.0159992 122.5574990  76.0379997
  79.1239992 123.8414990  74.8959997  79.2119992 122.2314990  74.3199997
  81.3659992 121.7724990  76.3409997  82.4449992 121.7404990  76.3749997
  80.9259992 122.0184990  77.2959997  80.9949992 120.8304990  75.9619997
  81.2449992 124.2404990  76.1309997  82.2829992 124.4794990  76.3049997
  80.6909992 124.2104990  77.0569997  80.8279992 125.0144990  75.5039997
  85.6109992 120.7884990  75.8339997  86.1429992 122.0984990  73.7589997
  83.4779992 118.3384990  71.9279997  84.0299992 117.0844990  72.1739997
  83.6929992 116.3824990  73.1349997  85.1019992 116.7144990  71.1859997
  84.6919992 116.7834990  70.1559997  85.2089992 115.6154990  71.3129997
  86.3809992 117.5224990  71.3729997  87.2099992 116.9094990  70.9589997
  86.7949992 117.4424990  72.4009997  86.4119992 118.9134990  70.7419997
  87.3619992 119.4224990  71.0119997  85.5539992 119.4774990  71.1659997
  86.2329992 118.9654990  69.1939997  86.4399992 120.0064990  68.8669997
  85.1469992 118.8114990  69.0139997  87.0089992 117.9634990  68.3689997
  86.6329992 116.9214990  68.2899997  88.0519992 117.9204990  68.7479997
  87.1379992 118.6124990  66.9119997  87.9509992 117.9914990  66.4769997
  87.4579992 119.6744990  66.9599997  85.8769992 118.5334990  66.0109997
  85.9189992 119.5194990  65.4999997  84.9909992 118.6454990  66.6719997
  85.6519992 117.2934990  65.1389997  85.6009992 116.3424990  65.6899997
  85.4769992 117.3014990  63.7789997  85.0949992 116.3524990  63.3749997
  85.4839992 118.6014990  62.9049997  86.4919992 119.0284990  62.7129997
  84.9549992 119.4064990  63.4599997  84.5599992 118.3744990  61.6449997
  84.2119992 119.2754990  61.0959997  83.6139992 118.0784990  62.1479997
  84.9549992 117.3614990  60.5329997  83.9609992 116.8674990  60.4739997
  85.7349992 116.6324990  60.8389997  85.2029992 117.9344990  59.1299997
  86.0579992 118.6434990  59.1499997  84.2959992 118.5194990  58.8689997
  85.3679992 116.7254990  58.1239997  84.6019992 115.9924990  58.4559997
  86.3529992 116.2374990  58.2809997  85.1949992 116.9534990  56.5999997
  85.2709992 116.0714990  55.9299997  86.0449992 117.5954990  56.2819997
  83.8849992 117.6484990  56.2349997  83.7939992 118.6574990  56.6919997
  83.0389992 116.9724990  56.4839997  83.8069992 117.8764990  54.7179997
  84.7079992 118.4644990  54.4389997  82.8629992 118.3274990  54.3459997
  83.8499992 116.9004990  54.1889997  31.3339992  21.1874990  56.7489997
  30.3879992  21.5984990  56.3359997  31.1989992  20.0984990  56.9269997
  32.1429992  21.2444990  55.9899997  31.7139992  21.9174990  58.1209997
  32.7409992  22.3284990  58.0159997  31.1429992  22.8694990  58.1529997
  31.5679992  21.0224990  59.3399997  30.6789992  20.3714990  59.4859997
  32.3659992  20.2724990  59.1569997  31.9329992  21.7904990  60.6539997
  32.6129992  21.1814990  61.2869997  32.5129992  22.6824990  60.3349997
  30.7379992  22.1604990  61.4609997  30.0149992  22.4104990  60.6549997
  30.3069992  21.3124990  62.0359997  30.8799992  23.4324990  62.4289997
  31.3099992  24.2584990  61.8229997  29.9069992  23.8024990  62.8169997
  31.7179992  23.0974990  63.6099997  32.4369992  22.4124990  63.1129997
  32.1129992  24.0614990  63.9969997  30.9149992  22.4974990  64.7619997
  30.6309992  23.3114990  65.4629997  30.0189992  21.9974990  64.3359997
  31.7329992  21.4024990  65.5439997  32.6689992  21.9614990  65.7609997
  31.1199992  21.1294990  66.4289997  32.1319992  20.1554990  64.6749997
  31.1759992  19.6104990  64.5179997  32.3309992  20.5084990  63.6399997
  33.1409992  19.2984990  65.3579997  34.1869992  19.6134990  65.1569997
  32.9179992  19.3844990  66.4429997  33.1309992  17.7984990  64.9369997
  32.0719992  17.5464990  64.7149997  33.6699992  17.7364990  63.9679997
  33.6929992  16.7464990  65.8709997  33.4969992  15.7334990  65.4599997
  34.8019992  16.8164990  65.8699997  33.1409992  16.8704990  67.2989997
  32.0749992  17.1784990  67.2489997  33.0469992  15.8344990  67.6889997
  34.0429992  17.7084990  68.2679997  35.0189992  17.1804990  68.2189997
  34.0719992  18.7654990  67.9289997  33.5289992  17.5034990  69.6769997
  32.6949992  16.6944990  70.0819997  34.0849992  18.4284990  70.4649997
  33.7949992  18.4274990  71.8759997  32.7229992  18.4954990  72.1599997
  34.2179992  17.4864990  72.2889997  34.5459992  19.4384990  72.6579997
  35.5929992  19.0994990  72.8079997  33.9209992  19.5814990  74.0449997
  32.8609992  19.8594990  73.8649997  33.9149992  18.5324990  74.4119997
  34.5749992  20.4794990  74.8979997  33.9689992  21.5634990  75.8539997
  33.8029992  22.8604990  74.9269997  33.7659992  24.0844990  75.6219997
  32.9259992  24.1014990  76.3489997  34.6879992  24.2064990  76.2289997
  33.5729992  25.2744990  74.7489997  33.8169992  26.1934990  75.2599997
  34.2979992  25.2034990  73.9519997  32.2849992  25.5344990  73.9739997
  32.0639992  24.4774990  72.9239997  32.7829992  24.7114990  72.1529997
  32.1439992  23.4674990  73.2989997  31.0259992  24.6894990  72.7109997
  31.1309992  25.5474990  75.0229997  31.3069992  24.6704990  75.6279997
  31.2049992  26.4674990  75.5829997  30.1259992  25.5284990  74.6269997
  32.3769992  26.8534990  73.3599997  33.2129992  26.9424990  72.6819997
  32.5149992  27.5254990  74.1949997  31.4609992  27.0304990  72.8169997
  32.5979992  21.0864990  76.2069997  34.9589992  21.7884990  76.9349997
  34.5309992  20.7784990  72.0829997  35.6409992  21.1344990  71.3269997
  36.6189992  20.4644990  71.2099997  35.3419992  22.4944990  70.7129997
  35.5639992  23.2234990  71.5219997  34.2459992  22.6324990  70.5909997
  35.9979992  22.6874990  69.3719997  37.0929992  22.6394990  69.5499997
  35.7439992  23.7314990  69.0889997  35.5909992  21.8194990  68.1959997
  34.4849992  21.8114990  68.0929997  35.8569992  20.7454990  68.3009997
  36.1799992  22.1614990  66.8099997  36.3429992  21.2654990  66.1739997
  37.1809992  22.5874990  67.0319997  35.3579992  23.2644990  66.0099997
  35.3999992  24.2134990  66.5879997  34.2899992  22.9784990  65.9009997
  35.9149992  23.6014990  64.5719997  37.0139992  23.7624990  64.5939997
  35.5159992  24.6064990  64.3199997  35.4689992  22.6484990  63.4059997
  34.9019992  23.2534990  62.6669997  34.8439992  21.8174990  63.7989997
  36.6189992  21.7744990  62.7279997  36.7469992  20.8084990  63.2369997
  37.2959992  22.0604990  61.6699997  38.0879992  21.3434990  61.4069997
  37.0699992  23.3694990  60.8589997  37.8899992  24.0974990  61.0369997
  36.1269992  23.9254990  61.0519997  37.0759992  23.1004990  59.3799997
  37.9139992  22.4414990  59.0699997  37.3579992  24.0194990  58.8219997
  35.7759992  22.4794990  58.8059997  34.9089992  23.0954990  59.1269997
  35.7119992  21.4734990  59.2739997  35.8319992  22.3484990  57.2789997
  36.3669992  23.2234990  56.8519997  34.8229992  22.3294990  56.8159997
  36.4979992  21.0524990  56.7389997  35.6499992  20.3554990  56.9069997
  37.3159992  20.8274990  57.4559997  37.0519992  21.0444990  55.3559997
  37.8799992  21.7804990  55.2739997  36.2349992  21.2814990  54.6419997
  37.7259992  19.7194990  54.8859997  38.1939992  19.9444990  53.9029997
  36.9299992  18.9614990  54.7229997  38.8219992  19.1724990  55.7389997
  39.6599992  19.9014990  55.7569997  39.2459992  18.2414990  55.3059997
  38.4699992  18.9234990  56.7629997 111.5489992  56.0034990  59.0309997
 111.2429992  56.6474990  58.1799997 110.6939992  55.3384990  59.2809997
 112.4409992  55.3854990  58.7929997 111.8559992  56.8204990  60.2979997
 112.3559992  56.0944990  60.9749997 112.6259992  57.5854990  60.0639997
 110.5849992  57.4584990  61.0359997 110.0909992  58.1794990  60.3499997
 109.9809992  56.5374990  61.1829997 110.8579992  58.0574990  62.3669997
 111.5149992  58.9484990  62.2689997 109.9459992  58.5584990  62.7539997
 111.6209992  57.0964990  63.3399997 111.0239992  56.1594990  63.3609997
 112.5599992  56.9634990  62.7609997 111.9659992  57.5714990  64.7319997
 112.3759992  56.7244990  65.3219997 112.7679992  58.3364990  64.6629997
 110.6739992  58.1194990  65.5219997 110.4279992  59.0184990  64.9169997
 110.0639992  57.1964990  65.6239997 111.0399992  58.6184990  66.9249997
 111.5929992  57.7944990  67.4249997 111.8199992  59.4054990  66.8459997
 109.9649992  58.9684990  67.8689997 110.6099992  59.3604990  68.6849997
 109.2869992  59.8004990  67.5839997 109.1239992  57.8244990  68.4689997
 108.2869992  58.2654990  69.0509997 108.6899992  57.3254990  67.5749997
 109.9049992  56.8124990  69.3859997 110.9339992  57.2234990  69.4579997
 109.2879992  56.9264990  70.3019997 109.8249992  55.4384990  68.7619997
 108.8049992  55.4284990  68.3219997 110.5019992  55.4534990  67.8809997
 109.9639992  54.1914990  69.6889997 109.2869992  54.3304990  70.5599997
 109.5629992  53.2954990  69.1689997 111.3899992  53.8804990  70.2369997
 112.0829992  54.2004990  69.4299997 111.7409992  54.5574990  71.0449997
 111.4309992  52.3964990  70.7389997 110.6859992  52.2884990  71.5559997
 111.1329992  51.6424990  69.9799997 112.8039992  52.1004990  71.3179997
 113.5549992  51.1884990  71.0599997 113.0559992  53.1294990  72.1279997
 114.3899992  53.0424990  72.6509997 114.5539992  52.1744990  73.3239997
 115.0669992  52.7764990  71.8109997 114.8669992  54.4114990  73.1999997
 115.9519992  54.3524990  73.4319997 114.1469992  54.8024990  74.5309997
 113.0599992  54.6094990  74.4099997 114.5279992  54.1144990  75.3159997
 114.3779992  56.1514990  74.8159997 113.5379992  56.8674990  75.8359997
 112.1089992  56.7354990  75.1159997 111.8699992  57.6724990  74.1109997
 111.8779992  58.7254990  74.4629997 112.6429992  57.7254990  73.3139997
 110.4669992  57.3884990  73.4309997 110.2349992  58.1844990  72.7389997
 110.5179992  56.5074990  72.8079997 109.2509992  57.2134990  74.3509997
 109.2819992  55.8674990  75.0739997 108.4059992  55.8424990  75.7049997
 109.3129992  55.0474990  74.3719997 110.1699992  55.8844990  75.6879997
 109.1179992  58.3794990  75.2999997 109.9209992  58.3344990  76.0199997
 109.2769992  59.2944990  74.7479997 108.2069992  58.3964990  75.8799997
 108.0219992  57.1474990  73.4829997 107.9259992  58.0584990  72.9109997
 107.1299992  57.0424990  74.0839997 108.1229992  56.2824990  72.8449997
 113.5049992  56.2434990  77.1959997 113.8969992  58.2744990  75.7589997
 114.5319992  55.4454990  72.2039997 115.2009992  55.4214990  71.0019997
 116.2069992  54.7264990  70.7809997 114.5499992  56.3684990  70.0499997
 114.5999992  57.4074990  70.4419997 113.4989992  56.0964990  69.8139997
 115.4319992  56.1344990  68.7549997 115.5819992  55.0504990  68.5629997
 116.4139992  56.6284990  68.9159997 114.7949992  56.7894990  67.4829997
 114.6159992  57.8824990  67.5699997 113.8909992  56.1864990  67.2519997
 115.5679992  56.5274990  66.1709997 116.5339992  57.0514990  66.3359997
 115.0619992  57.0334990  65.3209997 115.7189992  55.0574990  65.7109997
 114.6999992  54.6344990  65.8419997 116.2749992  54.4874990  66.4859997
 116.0449992  54.8224990  64.2629997 117.0259992  55.2364990  63.9449997
 115.2899992  55.3454990  63.6399997 115.8739992  53.3744990  64.0039997
 114.8419992  53.0394990  64.2439997 116.6049992  52.6824990  64.4729997
 116.3099992  53.0194990  62.6469997 117.3339992  52.6414990  62.5109997
 115.5799992  53.2634990  61.5279997 116.0109992  52.9214990  60.5759997
 114.2009992  53.8704990  61.5059997 113.8439992  54.0754990  60.4739997
 114.2569992  54.8734990  61.9799997 113.0689992  53.0144990  62.2159997
 112.7179992  53.4914990  63.1549997 113.4519992  52.0074990  62.4869997
 111.9649992  52.6224990  61.2099997 111.5759992  53.5144990  60.6749997
 111.0639992  52.2804990  61.7639997 112.3599992  51.3874990  60.3769997
 112.7529992  50.6584990  61.1179997 113.1169992  51.6674990  59.6129997
 111.2089992  50.6284990  59.5749997 110.3869992  50.3424990  60.2649997
 111.6969992  49.7594990  59.0839997 110.5049992  51.5064990  58.4829997
 110.0629992  52.4424990  58.8859997 109.5509992  51.0434990  58.1509997
 111.4509992  51.8794990  57.3399997 111.9459992  50.9914990  56.8929997
 112.3859992  52.3424990  57.7209997 110.9439992  52.6894990  56.1939997
 110.4649992  51.9894990  55.4769997 111.7269992  53.0944990  55.5179997
 110.3399992  53.5704990  56.5009997  91.3089992 118.4684990  56.4399997
  92.1929992 118.8654990  56.9839997  90.5699992 119.2904990  56.3279997
  91.7109992 118.3334990  55.4129997  90.8219992 117.1554990  57.0589997
  90.0109992 116.7084990  56.4449997  91.6509992 116.4354990  57.2239997
  90.2299992 117.3374990  58.4609997  90.3509992 116.3414990  58.9379997
  90.8009992 118.2054990  58.8539997  88.6369992 117.7014990  58.4969997
  88.3919992 118.3254990  57.6109997  87.9839992 116.8044990  58.4369997
  88.2339992 118.3964990  59.8189997  88.7949992 119.3504990  59.9099997
  87.1349992 118.5634990  59.8339997  88.4489992 117.5724990  61.1239997
  88.3109992 116.5074990  60.8379997  89.5319992 117.6274990  61.3659997
  87.5979992 118.0994990  62.2179997  86.5309992 117.8434990  62.0439997
  87.9599992 117.4804990  63.0669997  87.6569992 119.6384990  62.5219997
  88.7009992 119.8974990  62.7979997  87.4069992 120.2844990  61.6539997
  86.7059992 120.0964990  63.6569997  86.8439992 121.1974990  63.6019997
  85.6469992 119.9294990  63.3669997  86.7379992 119.5234990  65.0349997
  86.9429992 118.4314990  65.0519997  87.6009992 119.9474990  65.5919997
  85.4789992 119.9094990  65.8089997  84.5609992 119.5554990  65.2939997
  85.5519992 119.3864990  66.7859997  85.4579992 121.4014990  66.3109997
  85.7959992 122.0014990  65.4389997  84.4089992 121.7484990  66.4289997
  86.2639992 121.7014990  67.5309997  87.3499992 121.5694990  67.3359997
  86.0719992 122.7854990  67.6799997  86.0149992 120.9724990  68.8779997
  85.0139992 120.4944990  68.8379997  86.7069992 120.1044990  68.9259997
  86.1699992 121.9404990  70.0609997  86.8699992 122.7814990  69.8699997
  85.1259992 122.2364990  70.3029997  86.7069992 121.2694990  71.3309997
  87.5499992 120.4404990  71.3579997  86.1429992 121.8144990  72.3679997
  86.6569992 121.3104990  73.6299997  85.9599992 121.7984990  74.3449997
  86.3789992 120.2454990  73.7749997  88.1769992 121.6494990  74.0299997
  88.7729992 120.8984990  73.4679997  88.3759992 121.4064990  75.5019997
  87.6129992 121.9194990  76.1239997  88.1509992 120.3264990  75.6379997
  89.6679992 121.7684990  75.8689997  90.7599992 120.7754990  76.2529997
  91.0159992 120.2034990  74.8489997  92.0809992 119.3104990  74.4949997
  92.3659992 119.5764990  73.4549997  93.0169992 119.5604990  75.0389997
  91.5689992 117.8594990  74.8019997  92.3379992 117.1104990  74.9259997
  91.1699992 117.7714990  75.8019997  90.4509992 117.4084990  73.8379997
  90.9389992 117.6054990  72.4409997  91.9689992 117.2804990  72.4209997
  90.3409992 117.0904990  71.7039997  90.7469992 118.6364990  72.1809997
  90.1989992 115.9204990  73.9459997  90.0169992 115.7144990  74.9899997
  89.4389992 115.5754990  73.2599997  91.0319992 115.3464990  73.5669997
  89.1439992 118.0494990  74.1289997  88.9139992 117.9724990  75.1809997
  88.4289992 117.4504990  73.5859997  89.3489992 119.0614990  73.8129997
  91.9659992 121.4954990  76.7229997  90.2109992 119.7024990  77.1279997
  88.5269992 122.9954990  73.6469997  89.4499992 123.1484990  72.7439997
  90.1269992 122.2744990  72.2319997  89.6289992 124.6054990  72.5069997
  90.5929992 124.9324990  72.9529997  88.7849992 125.2274990  72.8739997
  89.5749992 124.6934990  70.9199997  89.1719992 125.6794990  70.6049997
  88.8009992 124.0534990  70.4449997  90.8769992 124.4904990  70.2159997
  91.1279992 123.4084990  70.2069997  91.6069992 125.1854990  70.6839997
  90.8399992 124.7564990  68.6599997  91.6919992 125.3994990  68.3509997
  89.9009992 125.1724990  68.2369997  91.0969992 123.4844990  67.7879997
  90.3419992 122.7144990  68.0569997  92.1269992 123.0864990  67.9099997
  91.0879992 124.0044990  66.3259997  91.8309992 124.8274990  66.2519997
  90.1159992 124.4774990  66.0679997  91.3889992 122.9654990  65.2719997
  92.4239992 122.6094990  65.4619997  91.2389992 123.3494990  64.2409997
  90.4249992 121.7564990  65.3949997  89.3659992 122.0384990  65.2979997
  90.6829992 120.4364990  65.6869997  89.8879992 119.6824990  65.7829997
  91.9799992 119.8734990  65.9619997  91.9199992 119.6244990  67.0429997
  92.7829992 120.6324990  65.8459997  92.2059992 118.5884990  65.0629997
  91.6289992 117.7814990  65.5629997  93.2299992 118.1584990  65.0969997
  91.8569992 118.8374990  63.5279997  90.8639992 119.3334990  63.4739997
  91.8219992 117.9194990  62.9019997  92.8229992 119.7754990  62.7769997
  93.4069992 119.1104990  62.1059997  93.4179992 120.3624990  63.5089997
  92.1499992 120.9344990  61.9969997  93.0119992 121.6014990  61.7799997
  91.4299992 121.5064990  62.6199997  91.5159992 120.4424990  60.6829997
  90.8899992 119.6054990  61.0609997  92.2429992 119.8414990  60.0969997
  90.7559992 121.5684990  59.9289997  90.1449992 122.2224990  60.5869997
  90.0249992 121.0314990  59.2869997  91.6109992 122.4534990  59.0879997
  92.2319992 121.8424990  58.3989997  92.3139992 123.0824990  59.6749997
  90.9609992 123.0424990  58.4049997  18.5689992  57.4314990  56.2039997
  19.2969992  57.8064990  56.9549997  19.1229992  57.5904990  55.2549997
  18.4059992  56.3324990  56.2279997  17.2729992  58.2694990  56.3999997
  17.6229992  59.3234990  56.3879997  16.6329992  58.0174990  55.5279997
  16.3209992  57.8364990  57.5309997  15.3579992  58.3824990  57.4299997
  16.1479992  56.7484990  57.3879997  16.6899992  57.9794990  59.0419997
  17.5609992  57.3134990  59.2189997  17.0739992  59.0114990  59.1919997
  15.5329992  57.7584990  60.0239997  14.7969992  58.5804990  59.8989997
  15.0749992  56.8054990  59.6799997  15.9789992  57.7544990  61.4739997
  16.7269992  58.5714990  61.5629997  15.0459992  57.9074990  62.0579997
  16.7769992  56.5874990  62.0089997  17.6859992  56.3904990  61.4019997
  17.2219992  57.0174990  62.9309997  16.0159992  55.4104990  62.4399997
  15.4199992  55.5594990  63.3659997  15.3729992  55.0784990  61.5969997
  17.1239992  54.3544990  62.8439997  17.6539992  53.9684990  61.9469997
  17.9269992  54.9164990  63.3659997  16.6699992  53.2194990  63.7319997
  16.1069992  53.6864990  64.5679997  15.9839992  52.5874990  63.1279997
  17.8399992  52.3174990  64.2059997  17.3939992  51.3584990  64.5449997
  18.4249992  52.0344990  63.3049997  18.6679992  52.9534990  65.3309997
  19.1789992  53.8514990  64.9219997  18.0709992  53.3324990  66.1879997
  19.7179992  52.1104990  66.1009997  19.2259992  51.2564990  66.6129997
  20.4209992  51.6034990  65.4049997  20.5109992  52.8984990  67.1699997
  21.1699992  53.6414990  66.6719997  19.7159992  53.3754990  67.7829997
  21.3269992  51.9094990  67.9529997  20.6829992  51.0324990  68.1779997
  22.2229992  51.5964990  67.3769997  21.8689992  52.5074990  69.3379997
  22.8949992  53.0754990  69.5359997  20.8909992  52.3114990  70.2489997
  20.9799992  52.8614990  71.5959997  20.2459992  52.3704990  72.2699997
  21.9899992  52.7324990  72.0409997  20.5129992  54.3634990  71.6739997
  21.4209992  54.8704990  71.2849997  20.3299992  54.6904990  73.1579997
  19.3849992  54.1504990  73.3819997  21.1029992  54.3704990  73.8879997
  20.0379992  56.1164990  73.2679997  19.7529992  56.5574990  74.7369997
  19.4169992  58.0904990  74.5489997  18.5509992  58.6374990  73.5779997
  19.0429992  59.2534990  72.7949997  18.1189992  57.8494990  72.9249997
  17.5519992  59.6454990  74.2179997  18.0709992  60.5464990  74.5079997
  16.8359992  59.8684990  73.4409997  16.6939992  59.2554990  75.4919997
  17.6009992  59.2424990  76.7289997  17.2649992  58.8114990  77.6599997
  18.5409992  58.7494990  76.5299997  17.9939992  60.2364990  76.8869997
  15.6569992  60.3214990  75.7309997  16.0939992  61.2304990  76.1169997
  15.1799992  60.4594990  74.7719997  14.9279992  59.9494990  76.4369997
  15.9829992  57.9814990  75.2859997  15.2739992  58.1774990  74.4949997
  15.5929992  57.6184990  76.2259997  16.5389992  57.1384990  74.9029997
  18.5499992  55.9014990  75.3169997  21.0059992  56.4464990  75.5679997
  19.3519992  54.5784990  70.8759997  19.1159992  55.8204990  70.4119997
  19.7579992  56.7834990  70.7039997  17.9059992  55.8604990  69.5139997
  17.0629992  55.9374990  70.2339997  17.9469992  54.8714990  69.0089997
  18.0649992  56.9414990  68.4369997  18.2809992  57.9604990  68.8229997
  17.0979992  57.0904990  67.9109997  19.0419992  56.5984990  67.3179997
  19.0859992  55.5374990  66.9899997  20.0449992  56.6924990  67.7849997
  18.7899992  57.4204990  66.0609997  18.8769992  58.4894990  66.3489997
  17.7329992  57.2604990  65.7559997  19.8319992  57.0474990  64.9879997
  19.4879992  56.1784990  64.3869997  20.7999992  56.7854990  65.4659997
  20.0389992  58.2204990  64.0549997  20.6769992  58.9614990  64.5829997
  19.0269992  58.5894990  63.7839997  20.8879992  57.7994990  62.8289997
  20.3429992  56.9164990  62.4309997  21.8609992  57.4094990  63.1949997
  20.9939992  58.8664990  61.7589997  20.6159992  59.8514990  62.0679997
  21.7009992  58.7204990  60.5749997  21.8949992  59.6534990  60.0249997
  22.4529992  57.4864990  60.2139997  22.8209992  56.9164990  61.0929997
  23.3869992  57.7714990  59.6829997  21.6159992  56.5654990  59.3179997
  21.6679992  57.2264990  58.4259997  20.5739992  56.3854990  59.6599997
  22.2089992  55.2084990  59.1439997  22.0849992  54.7164990  60.1319997
  23.2759992  55.1614990  58.8379997  21.4429992  54.2854990  58.1819997
  20.4549992  54.7564990  57.9919997  21.3519992  53.2424990  58.5529997
  22.0679992  54.1834990  56.7949997  22.7699992  53.3274990  56.7129997
  22.7049992  55.0534990  56.5259997  20.9829992  54.0854990  55.6279997
  21.5699992  53.8984990  54.7029997  20.3949992  55.0284990  55.6219997
  20.0089992  52.8564990  55.8129997  19.4579992  53.0224990  56.7629997
  20.5329992  51.8864990  55.9459997  18.9699992  52.7154990  54.7019997
  19.4559992  52.3384990  53.7769997  18.4549992  53.6784990  54.4989997
  18.3159992  51.8804990  55.0339997 102.9629992 102.0124990  55.5259997
 102.0829992 101.3604990  55.3399997 103.7219992 101.3954990  56.0519997
 103.5239992 102.3684990  54.6349997 102.6119992 103.2924990  56.3429997
 103.4609992 104.0064990  56.2939997 101.7689992 103.7924990  55.8189997
 102.2529992 102.9904990  57.8219997 101.5499992 102.1294990  57.8409997
 103.2229992 102.6684990  58.2569997 101.7419992 104.2694990  58.6379997
 102.5859992 104.9914990  58.6109997 100.8789992 104.7354990  58.1159997
 101.4539992 103.9744990  60.0759997 100.9859992 103.0124990  60.3759997
 102.4509992 104.0204990  60.5649997 100.5389992 105.0814990  60.7439997
 100.7219992 106.1334990  60.4389997  99.5159992 104.8934990  60.3529997
 100.5629992 104.9604990  62.3009997 100.3189992 103.9044990  62.5459997
 101.5849992 105.2024990  62.6629997  99.4319992 105.7944990  63.0039997
  99.7449992 106.7814990  62.6019997  98.4259992 105.5524990  62.6009997
  99.3639992 105.7364990  64.5539997 100.3699992 105.9024990  64.9959997
  98.7639992 106.5874990  64.9419997  98.8559992 104.3764990  65.0209997
  99.3549992 103.4804990  64.5939997  99.0549992 104.4304990  66.1129997
  97.3769992 104.0154990  64.6019997  96.7079992 104.7704990  65.0699997
  97.2119992 104.0294990  63.5029997  96.7759992 102.6444990  64.9419997
  95.6859992 102.7094990  64.7409997  97.2029992 101.9024990  64.2339997
  96.9849992 102.1164990  66.3729997  96.4799992 101.1304990  66.4489997
  98.0809992 102.1264990  66.5569997  96.4029992 103.0344990  67.4499997
  97.0039992 103.9634990  67.5559997  95.3999992 103.1654990  66.9889997
  96.3899992 102.3304990  68.7919997  95.6139992 102.7704990  69.4539997
  96.0409992 101.2834990  68.6649997  97.7229992 102.2914990  69.4399997
  98.7339992 102.7164990  68.9519997  97.5779992 101.7084990  70.5759997
  98.6789992 101.6614990  71.4959997  98.5139992 100.8014990  72.1789997
  99.6439992 101.4454990  70.9889997  98.8769992 102.9934990  72.3979997
  99.7189992 102.7124990  73.0659997  97.7709992 103.3244990  73.3509997
  96.8789992 103.3444990  72.6899997  97.6979992 102.5994990  74.1899997
  97.9469992 104.5604990  73.9009997  98.7999992 104.7614990  75.2099997
  99.7279992 105.8804990  74.6979997  99.2849992 107.1484990  74.3949997
  99.3389992 107.3264990  73.2989997  98.1889992 107.2334990  74.5599997
 100.1339992 108.3274990  75.0639997  99.7579992 109.2564990  74.6609997
  99.8899992 108.3704990  76.1149997 101.6229992 108.2264990  74.8869997
 102.2919992 109.5854990  75.2619997 103.3439992 109.4664990  75.0469997
 101.9719992 110.3894990  74.6159997 101.9969992 109.8404990  76.2689997
 102.1159992 107.1124990  75.8199997 101.7839992 107.3134990  76.8279997
 101.6929992 106.1614990  75.5339997 103.1699992 106.9704990  75.6329997
 102.0739992 108.0264990  73.4599997 101.7589992 108.8194990  72.7979997
 101.6039992 107.1164990  73.1169997 103.1419992 107.9584990  73.3149997
  97.9779992 105.4134990  76.2729997  99.6109992 103.5904990  75.5019997
  99.1189992 104.0874990  71.5089997 100.3959992 104.3654990  71.2519997
 101.3309992 103.6964990  71.5909997 100.5389992 105.7814990  70.6129997
 101.1489992 105.6874990  69.6889997 101.0749992 106.4394990  71.3299997
  99.2699992 106.4124990  70.0019997  98.4039992 106.1854990  70.6619997
  98.9529992 105.8524990  69.0959997  99.1579992 107.9644990  69.7899997
  99.8749992 108.2534990  68.9929997  99.4679992 108.4614990  70.7339997
  97.7489992 108.4124990  69.3519997  97.6499992 109.5004990  69.5569997
  97.0989992 107.8874990  70.0829997  97.4429992 107.9634990  67.9229997
  97.4539992 106.8614990  67.7829997  98.2619992 108.3054990  67.2539997
  96.1359992 108.6614990  67.4389997  95.9059992 109.4954990  68.1369997
  95.3179992 107.9144990  67.5199997  96.1159992 109.1324990  66.0139997
  95.0779992 109.4094990  65.7309997  96.3989992 108.2994990  65.3349997
  96.9249992 110.3644990  65.6439997  96.8469992 111.2604990  66.2769997
  97.6419992 110.4654990  64.4429997  98.1789992 111.4104990  64.2729997
  97.8509992 109.4614990  63.3769997  98.0249992 108.3914990  63.6219997
  98.8779992 109.6534990  62.9979997  97.0389992 109.6694990  62.0309997
  97.6889992 110.2794990  61.3669997  96.0699992 110.2124990  62.0519997
  96.8089992 108.2884990  61.4529997  96.0069992 107.7804990  62.0289997
  97.7569992 107.7094990  61.4159997  96.3009992 108.1654990  59.9889997
  95.3589992 108.7514990  60.0519997  96.0449992 107.1144990  59.7369997
  97.1989992 108.8334990  58.9119997  97.3319992 109.9354990  58.9719997
  96.5659992 108.7284990  58.0049997  98.5589992 108.0584990  58.5249997
  98.3309992 107.0274990  58.1809997  99.1389992 107.9074990  59.4599997
  99.4649992 108.8694990  57.6619997  99.8559992 109.7474990  58.2179997
  98.8079992 109.3274990  56.8929997 100.6089992 108.1334990  56.8489997
 101.3729992 107.8364990  57.5989997 101.0209992 108.8414990  56.0989997
 100.2339992 107.3114990  56.2019997  91.6749992  31.4314990  56.7399997
  91.1049992  31.7774990  57.6279997  91.4909992  30.3384990  56.6619997
  91.3959992  31.8594990  55.7529997  93.1899992  31.5224990  56.8449997
  93.5219992  31.1434990  55.8549997  93.5449992  32.5724990  56.9239997
  93.8229992  30.7324990  58.0039997  94.0069992  29.7104990  57.6079997
  94.7739992  31.2534990  58.2439997  92.9779992  30.5804990  59.3059997
  93.1919992  31.3634990  60.0649997  91.8829992  30.6554990  59.1399997
  93.4349992  29.3014990  60.1519997  93.1689992  28.3384990  59.6659997
  94.5429992  29.3194990  60.0599997  93.1049992  29.3594990  61.5389997
  93.4919992  30.2044990  62.1479997  91.9949992  29.3324990  61.5769997
  93.5989992  28.1014990  62.3369997  92.8169992  27.6964990  63.0149997
  93.7909992  27.3164990  61.5739997  94.9659992  28.2494990  63.0959997
  95.7419992  28.5914990  62.3779997  94.9419992  29.1044990  63.8049997
  95.4729992  26.9794990  63.7699997  95.2189992  26.1584990  63.0659997
  96.5809992  26.9104990  63.8199997  94.7329992  26.6444990  65.0479997
  93.6429992  26.4984990  64.8879997  94.9689992  25.5954990  65.3259997
  94.8449992  27.6494990  66.2299997  95.8259992  28.1654990  66.2959997
  94.0999992  28.4474990  66.0239997  94.7039992  27.0254990  67.6169997
  93.7339992  27.4124990  67.9959997  94.7409992  25.9154990  67.5889997
  95.6729992  27.6764990  68.6559997  95.3159992  27.4684990  69.6879997
  96.7109992  27.3204990  68.4819997  95.8839992  29.2004990  68.7299997
  95.9539992  29.6614990  67.7219997  94.9569992  29.6524990  69.1459997
  97.1679992  29.4904990  69.5099997  97.2429992  29.0284990  70.5179997
  98.0019992  29.1014990  68.8879997  97.3359992  30.9944990  69.7379997
  98.0529992  31.7314990  69.1259997  96.3819992  31.4154990  70.5779997
  96.2119992  32.8314990  70.6319997  97.1239992  33.2694990  71.0909997
  95.9809992  33.2404990  69.6259997  94.9139992  33.2554990  71.4339997
  94.9289992  34.3664990  71.4699997  94.8049992  32.7564990  72.8959997
  95.6679992  33.0224990  73.5439997  93.9759992  33.2414990  73.4549997
  94.6869992  31.3344990  72.8639997  93.3489992  30.6344990  73.1109997
  93.3599992  30.2924990  74.6489997  93.3429992  31.2864990  75.6939997
  93.0109992  32.2334990  75.2189997  92.6289992  31.0574990  76.5149997
  94.7359992  31.4714990  76.3229997  95.2049992  32.1314990  75.6079997
  94.6709992  32.0044990  77.2609997  95.6509992  30.3144990  76.6159997
  96.3979992  29.9664990  75.3169997  96.8559992  30.8344990  74.8679997
  97.1209992  29.1974990  75.5459997  95.7279992  29.4244990  74.6659997
  96.5859992  30.7014990  77.7249997  95.9229992  31.2174990  78.4039997
  97.0709992  29.8184990  78.1149997  97.3799992  31.3904990  77.4789997
  94.8029992  29.1604990  77.0349997  94.2639992  28.8124990  76.1659997
  94.1159992  29.4824990  77.8029997  95.4489992  28.3694990  77.3849997
  92.2469992  31.6074990  72.8919997  93.3829992  29.4134990  72.2449997
  93.7609992  32.7114990  70.8189997  93.1449992  33.3664990  69.8729997
  93.2279992  34.5564990  69.6469997  92.1579992  32.4254990  69.1259997
  91.0959992  32.3984990  69.4519997  92.4309992  31.3604990  69.2829997
  92.3409992  32.7694990  67.6189997  92.3519992  33.8614990  67.4159997
  91.4459992  32.3494990  67.1119997  93.6389992  32.2424990  67.0489997
  93.7009992  31.1684990  67.3259997  94.4829992  32.7944990  67.5159997
  93.5609992  32.3874990  65.5059997  93.1809992  33.3884990  65.2079997
  92.7579992  31.7534990  65.0719997  94.9599992  32.2034990  64.8069997
  95.3359992  31.1864990  65.0499997  95.5409992  32.9934990  65.3279997
  95.1859992  32.3354990  63.3089997  95.1779992  33.4264990  63.0969997
  94.3129992  31.9034990  62.7739997  96.5909992  31.7074990  62.8049997
  96.6009992  31.6644990  61.6949997  96.4839992  30.6694990  63.1869997
  97.8079992  32.2974990  63.3559997  98.3319992  31.8024990  64.1869997
  98.2939992  33.4614990  63.0809997  99.2589992  33.7384990  63.5299997
  97.7479992  34.5024990  62.1169997  97.5159992  35.4954990  62.5579997
  96.7349992  34.2224990  61.7559997  98.6569992  34.6764990  60.8689997
  99.6459992  35.0324990  61.2279997  98.1879992  35.4724990  60.2519997
  98.9289992  33.4544990  60.0139997  97.9389992  33.1694990  59.5989997
  99.3179992  32.6084990  60.6199997  99.7769992  33.7764990  58.7529997
 100.7669992  34.0784990  59.1549997  99.1759992  34.5204990  58.1869997
 100.1089992  32.5894990  57.7979997 100.7599992  31.9114990  58.3909997
 100.7809992  32.9704990  56.9999997  98.9549992  31.9694990  57.0499997
  99.3709992  31.3154990  56.2529997  98.5239992  32.9044990  56.6329997
  97.9679992  31.0564990  57.7819997  97.2109992  31.6344990  58.3529997
  98.6409992  30.5994990  58.5389997  97.2549992  29.9814990  56.9499997
  98.0289992  29.4044990  56.3999997  96.6589992  30.4514990  56.1389997
  96.6269992  29.3104990  57.5739997  32.3059992  96.8264990  58.2399997
  32.9279992  96.7484990  57.3229997  32.8579992  97.4454990  58.9799997
  31.4429992  97.4144990  57.8619997  31.9289992  95.4784990  58.6719997
  31.3929992  95.6124990  59.6359997  31.1579992  95.0934990  57.9709997
  33.0879992  94.4364990  58.8119997  32.6759992  93.4414990  59.0869997
  33.6279992  94.3514990  57.8449997  34.1339992  94.7264990  59.9499997
  34.6779992  93.7774990  60.1439997  34.8309992  95.4824990  59.5289997
  33.4889992  95.1144990  61.2829997  33.2979992  96.2014990  61.1619997
  32.5269992  94.5764990  61.4269997  34.4179992  94.7004990  62.4579997
  35.4549992  94.9984990  62.1929997  34.1229992  95.3114990  63.3379997
  34.4219992  93.2374990  62.9279997  34.7649992  92.5974990  62.0879997
  35.1919992  93.1344990  63.7219997  32.9559992  92.8304990  63.3439997
  32.4809992  93.7544990  63.7389997  32.4529992  92.4514990  62.4289997
  32.8859992  91.7334990  64.3999997  33.4599992  92.1654990  65.2469997
  31.8179992  91.6784990  64.7029997  33.4599992  90.3744990  64.0549997
  32.9789992  89.9954990  63.1269997  34.5539992  90.3774990  63.8599997
  33.2419992  89.3684990  65.2289997  33.8579992  88.4594990  65.0599997
  33.7299992  89.8654990  66.0949997  31.8079992  88.9504990  65.4609997
  31.3659992  89.8114990  66.0059997  31.2699992  88.7224990  64.5159997
  31.7759992  87.6514990  66.2969997  30.7079992  87.6414990  66.6009997
  32.0619992  86.8694990  65.5609997  32.7429992  87.6214990  67.5509997
  32.7799992  86.6664990  68.1189997  33.7639992  87.9364990  67.2449997
  32.3309992  88.6594990  68.5439997  32.1549992  89.6634990  68.1019997
  31.4049992  88.3794990  69.0899997  33.3999992  88.7794990  69.6499997
  34.4299992  88.1134990  69.6969997  33.0989992  89.7974990  70.5139997
  34.1619992  90.1544990  71.3999997  34.6949992  89.3014990  71.8729997
  34.9149992  90.8034990  70.9059997  33.5299992  90.9714990  72.5059997
  34.2909992  91.2664990  73.2599997  32.4089992  90.2344990  73.2909997
  31.6989992  89.7054990  72.6189997  32.8259992  89.5564990  74.0659997
  31.7629992  91.3454990  73.9949997  30.2889992  91.2204990  74.5589997
  30.2289992  92.4544990  75.5649997  31.3899992  92.8974990  76.2089997
  31.1629992  93.2304990  77.2439997  32.0709992  92.0284990  76.3279997
  32.0089992  94.1514990  75.4669997  32.7099992  94.4954990  76.2129997
  32.7009992  93.7674990  74.7319997  31.1269992  95.3504990  75.1129997
  30.2849992  95.7494990  76.2419997  30.9679992  96.1714990  76.9639997
  29.5139992  96.4414990  75.9359997  29.7789992  94.8674990  76.6049997
  32.0089992  96.4724990  74.6739997  32.7149992  96.6154990  75.4789997
  32.4439992  96.2274990  73.7169997  31.3799992  97.3494990  74.7099997
  30.2309992  94.9254990  73.9109997  29.6069992  94.1014990  74.2249997
  30.8529992  94.5584990  73.1079997  29.6119992  95.7734990  73.6599997
  29.3589992  91.5974990  73.4839997  30.2589992  89.9204990  75.2529997
  33.0519992  92.1144990  71.8569997  33.6879992  93.2884990  71.8349997
  34.6779992  93.5814990  72.5109997  33.0589992  94.1904990  70.7609997
  33.4669992  95.2174990  70.8789997  31.9509992  94.2554990  70.8139997
  33.3929992  93.5474990  69.3759997  33.6019992  92.4754990  69.5819997
  34.3459992  93.9294990  68.9519997  32.2289992  93.4284990  68.3959997
  32.6729992  93.0714990  67.4419997  31.7179992  94.4074990  68.2739997
  31.1259992  92.4534990  68.8579997  30.6449992  92.8054990  69.7959997
  31.5859992  91.4764990  69.1219997  29.9939992  92.1564990  67.8299997
  30.4509992  91.3944990  67.1629997  29.7589992  92.9924990  67.1369997
  28.7429992  91.5824990  68.4809997  28.1639992  92.3484990  69.0399997
  29.0099992  90.7584990  69.1769997  27.6969992  91.0914990  67.5089997
  27.4629992  91.9394990  66.8299997  26.7399992  90.8824990  68.0319997
  28.0399992  89.7934990  66.7279997  28.2519992  88.9304990  67.3759997
  27.9189992  89.5684990  65.3819997  28.1499992  88.5984990  64.9179997
  27.4299992  90.5754990  64.3259997  27.0809992  91.4734990  64.8799997
  26.5679992  90.0964990  63.8129997  28.6209992  91.1194990  63.4109997
  29.3319992  91.6264990  64.0979997  28.1239992  91.9304990  62.8379997
  29.0229992  90.0454990  62.4449997  28.1069992  89.6864990  61.9279997
  29.3669992  89.1814990  63.0529997  30.0229992  90.6254990  61.3959997
  30.5189992  89.9104990  60.7059997  30.8189992  91.0894990  62.0179997
  29.4269992  91.6864990  60.5079997  29.5619992  92.7134990  60.9099997
  28.3189992  91.6974990  60.4359997  30.0139992  91.6984990  59.1159997
  31.0979992  91.9234990  59.2149997  29.6219992  92.5764990  58.5609997
  29.6709992  90.5604990  58.1799997  30.0419992  89.6054990  58.6089997
  30.2409992  90.8014990  57.2569997  28.1549992  90.4844990  57.8509997
  27.6969992  91.3654990  57.3519997  27.5059992  90.3164990  58.7369997
  28.0279992  89.5964990  57.1949997  26.5389992  34.4434990  56.1559997
  27.1149992  35.0174990  55.3979997  25.5209992  34.8824990  56.0919997
  26.5149992  33.4094990  55.7499997  27.0739992  34.3764990  57.6459997
  26.4389992  33.6304990  58.1709997  28.1359992  34.0584990  57.7039997
  26.9809992  35.7914990  58.3139997  27.4469992  35.7074990  59.3189997
  27.6049992  36.5284990  57.7639997  25.5449992  36.4354990  58.4549997
  25.0489992  36.7134990  57.5009997  25.0979992  35.6074990  59.0449997
  25.7389992  37.7814990  59.1709997  26.7319992  38.1514990  58.8359997
  25.0029992  38.4914990  58.7369997  25.6029992  37.9464990  60.7239997
  24.6189992  37.5504990  61.0539997  26.4059992  37.3574990  61.2179997
  25.7329992  39.4324990  61.0729997  26.6389992  39.7744990  60.5279997
  24.8919992  40.0844990  60.7549997  25.9029992  39.6764990  62.5839997
  25.8899992  40.7834990  62.6739997  24.9679992  39.4084990  63.1219997
  27.1429992  39.0504990  63.1379997  27.1639992  37.9434990  63.0499997
  28.0179992  39.3044990  62.5029997  27.6889992  39.6414990  64.5349997
  28.5839992  40.2184990  64.2159997  27.0019992  40.3974990  64.9719997
  28.1269992  38.5224990  65.5629997  28.8719992  37.8314990  65.1159997
  28.4599992  39.0024990  66.5079997  26.8499992  37.7654990  65.9309997
  26.0479992  38.4834990  66.2069997  26.4279992  37.0684990  65.1769997
  27.0679992  37.0264990  67.2539997  27.9139992  36.3094990  67.3099997
  27.2459992  37.8464990  67.9829997  25.7989992  36.3274990  67.9109997
  25.3709992  35.4754990  67.3399997  26.1799992  35.9524990  68.8849997
  24.6599992  37.2974990  68.2459997  24.9959992  38.1934990  68.8109997
  24.1489992  37.6864990  67.3399997  23.6719992  36.4884990  69.0919997
  23.3319992  35.3514990  68.8599997  23.3619992  37.1344990  70.2559997
  22.4199992  36.4174990  71.0239997  21.7949992  37.1854990  71.5289997
  21.7269992  35.8114990  70.4039997  23.1399992  35.5894990  72.1179997
  22.4049992  34.9034990  72.5889997  23.9039992  36.3324990  73.1909997
  23.1099992  36.9544990  73.6579997  24.3729992  35.6534990  73.9349997
  24.8089992  37.2374990  72.5789997  26.3939992  37.0204990  72.6409997
  26.6989992  36.8034990  74.1809997  26.4259992  37.7744990  75.2499997
  27.0809992  38.6704990  75.2269997  25.4069992  38.2064990  75.1549997
  26.5759992  37.1614990  76.6729997  27.6099992  36.9054990  76.8479997
  26.3409992  38.0724990  77.2029997  25.5999992  36.1084990  77.1059997
  24.2359992  36.6234990  76.7949997  23.9459992  37.4364990  77.4439997
  24.1709992  36.8864990  75.7489997  23.5019992  35.9024990  77.1229997
  25.7909992  34.8304990  76.3439997  26.6619992  34.3294990  76.7399997
  24.9559992  34.1784990  76.5519997  25.7479992  35.1364990  75.3089997
  25.7649992  35.9914990  78.6799997  26.8049992  35.9914990  78.9719997
  25.3099992  35.0494990  78.9459997  25.2029992  36.7634990  79.1859997
  26.9109992  35.8464990  71.9519997  26.9299992  38.3294990  72.2709997
  23.9239992  34.6894990  71.3949997  24.2859992  33.5474990  71.8909997
  24.0509992  33.1844990  73.0679997  25.0739992  32.7064990  70.8569997
  25.7749992  32.0404990  71.4019997  25.4929992  33.3244990  70.0349997
  24.0969992  31.6494990  70.3439997  23.1189992  32.0834990  70.0449997
  24.0099992  30.8574990  71.1189997  24.6769992  30.8394990  69.1079997
  23.9539992  30.0734990  68.7559997  25.5049992  30.1914990  69.4689997
  25.2069992  31.6574990  67.8559997  25.8139992  30.9514990  67.2499997
  25.9089992  32.4724990  68.1329997  24.1749992  32.1994990  66.8999997
  23.5249992  32.9234990  67.4369997  23.5699992  31.3864990  66.4439997
  24.5589992  33.2454990  65.7479997  25.3409992  33.9164990  66.1619997
  23.6539992  33.8214990  65.4589997  25.0999992  32.5404990  64.4969997
  24.2249992  31.9634990  64.1289997  25.8779992  31.8164990  64.8199997
  25.5879992  33.5564990  63.5139997  26.5899992  33.9964990  63.6259997
  25.0349992  34.0554990  62.4259997  25.4789992  34.8654990  61.8289997
  23.6909992  33.5624990  61.9439997  23.1339992  34.3984990  61.4699997
  23.0969992  33.0964990  62.7599997  23.7019992  32.3494990  60.9059997
  23.7149992  31.4274990  61.5249997  24.6269992  32.4384990  60.2979997
  22.4399992  32.2574990  60.0329997  21.5579992  32.1804990  60.7049997
  22.5529992  31.2464990  59.5879997  22.1869992  33.1544990  58.7649997
  21.7239992  32.4294990  58.0619997  23.1429992  33.4394990  58.2769997
  21.2749992  34.4484990  58.9269997  21.6189992  34.9104990  59.8769997
  20.2169992  34.1154990  58.9849997  21.3709992  35.5534990  57.8209997
  22.4299992  35.8384990  57.6449997  20.9119992  36.5044990  58.1679997
  20.9669992  35.2894990  56.3329997  21.6129992  34.4614990  55.9709997
  21.1529992  36.2454990  55.7989997  19.6029992  34.7024990  56.1599997
  19.3599992  34.5164990  55.0909997  18.8919992  35.4404990  56.5899997
  19.4979992  33.8444990  56.8579997  85.9069992  29.3634990  56.6219997
  85.1989992  29.1824990  55.7849997  86.9339992  29.2494990  56.2129997
  85.8859992  30.3784990  57.0719997  85.7729992  28.3074990  57.7459997
  84.7959992  28.3754990  58.2699997  85.9599992  27.2484990  57.4639997
  86.8539992  28.4254990  58.8679997  86.8279992  27.5994990  59.6109997
  87.8559992  28.3454990  58.3949997  86.7259992  29.8394990  59.5129997
  87.1129992  30.6874990  58.9099997  85.6469992  30.0654990  59.6479997
  87.4239992  29.8574990  60.8539997  88.5049992  29.7124990  60.6439997
  87.3799992  30.8684990  61.3109997  86.9369992  28.8804990  61.9889997
  87.1919992  27.8804990  61.5779997  87.4619992  29.0094990  62.9599997
  85.4049992  28.8204990  62.1479997  85.1409992  29.9004990  62.1439997
  84.8689992  28.3454990  61.2989997  85.0079992  28.0884990  63.4949997
  85.4909992  28.6124990  64.3479997  83.9179992  28.0914990  63.7089997
  85.4349992  26.5064990  63.6239997  84.5219992  25.9174990  63.3919997
  86.1949992  26.3534990  62.8279997  85.8459992  26.1744990  65.0329997
  85.0969992  26.4044990  65.8199997  85.9789992  25.0714990  65.0379997
  87.2569992  26.6544990  65.5009997  87.9999992  26.4564990  64.6999997
  87.2639992  27.7544990  65.6579997  87.8149992  25.9254990  66.7299997
  87.0879992  26.0134990  67.5659997  87.9629992  24.8714990  66.4099997
  89.2369992  26.3394990  67.0389997  89.6639992  25.6114990  67.7609997
  89.9279992  26.3134990  66.1689997  89.4659992  27.7014990  67.7059997
  90.5689992  27.7514990  67.8229997  89.2679992  28.5174990  66.9789997
  88.8419992  27.9404990  69.0049997  88.9179992  26.9534990  69.5099997
  89.3639992  28.6054990  69.7259997  87.4669992  28.2394990  68.8609997
  86.9559992  28.7894990  67.9189997  86.9419992  27.9254990  70.0629997
  85.5949992  28.4094990  70.1809997  85.5099992  29.5144990  70.2619997
  84.8869992  27.9574990  69.4539997  84.9939992  27.9344990  71.5559997
  84.0079992  28.4454990  71.5659997  85.8399992  28.4914990  72.7009997
  85.7919992  29.5974990  72.6009997  85.4209992  28.1654990  73.6769997
  87.2129992  28.1324990  72.6179997  87.9859992  27.5514990  73.8679997
  87.1139992  26.4144990  74.3069997  87.1909992  25.1224990  73.8859997
  86.2549992  24.6624990  73.5039997  88.0219992  24.8674990  73.1949997
  87.3839992  24.3604990  75.1689997  87.4189992  23.3284990  74.8519997
  88.2949992  24.7064990  75.6359997  86.2829992  24.2844990  76.2579997
  85.0119992  23.5734990  75.6969997  85.3779992  22.6904990  75.1929997
  84.3169992  23.3494990  76.4919997  84.4949992  24.2384990  75.0209997
  86.7999992  23.3114990  77.2489997  86.9699992  22.4084990  76.6809997
  87.7089992  23.7534990  77.6309997  86.0509992  23.1404990  78.0079997
  85.9569992  25.6264990  76.8549997  86.8379992  25.9774990  77.3709997
  85.1619992  25.4904990  77.5729997  85.7329992  26.3224990  76.0599997
  89.3099992  27.0194990  73.5379997  87.9869992  28.5464990  75.0259997
  84.9499992  26.4954990  71.6529997  83.7829992  25.9304990  71.1879997
  82.8209992  26.5394990  70.8079997  83.9349992  24.4004990  71.2589997
  83.2029992  24.0454990  72.0159997  84.9909992  24.2394990  71.5659997
  83.7579992  23.6774990  69.8849997  82.8169992  23.9234990  69.3469997
  83.6649992  22.5764990  69.9999997  84.9749992  23.6384990  68.9699997
  85.8569992  23.4004990  69.6019997  85.0919992  24.6894990  68.6299997
  84.8699992  22.7114990  67.7669997  84.3379992  23.0984990  66.8719997
  84.4459992  21.7464990  68.1179997  86.2399992  22.3234990  67.1179997
  86.7519992  23.2534990  66.7889997  86.1209992  21.6284990  66.2599997
  87.2739992  21.6634990  68.1689997  86.8319992  20.6894990  68.4709997
  87.4729992  22.2594990  69.0859997  88.6049992  21.2184990  67.5289997
  88.3269992  20.3864990  66.8469997  89.1899992  20.7784990  68.3639997
  89.4739992  22.2334990  66.7999997  89.9449992  22.9704990  67.4679997
  89.7249992  22.3534990  65.5109997  90.4849992  23.0454990  65.1179997
  89.2389992  21.5114990  64.3489997  89.1029992  20.4604990  64.6809997
  90.0109992  21.4224990  63.5559997  87.9609992  22.0164990  63.7259997
  88.2049992  23.0534990  63.4089997  87.1299992  21.9924990  64.4629997
  87.5649992  21.1704990  62.4969997  87.4609992  20.0764990  62.6589997
  88.3769992  21.1784990  61.7389997  86.2149992  21.6774990  61.9769997
  85.5579992  21.8954990  62.8459997  85.6449992  20.9594990  61.3489997
  86.3439992  22.9744990  61.1389997  87.1959992  22.8514990  60.4369997
  86.6019992  23.8664990  61.7489997  85.1759992  23.3314990  60.2889997
  84.9829992  24.3884990  60.0059997  84.3039992  23.1704990  60.9589997
  85.0179992  22.5514990  59.0539997  83.9229992  22.4114990  58.9219997
  85.4979992  21.5714990  59.2609997  85.6619992  23.1704990  57.7589997
  86.7089992  23.4714990  57.9789997  85.1149992  24.0584990  57.3759997
  85.6629992  22.4364990  56.9249997  13.7749992  72.9164990  53.4099997
  13.1709992  72.4044990  54.1889997  14.7509992  72.3864990  53.3949997
  13.3179992  72.8784990  52.3979997  13.8709992  74.4004990  53.8619997
  14.8599992  74.7734990  53.5169997  12.9589992  74.9074990  53.4809997
  14.0309992  74.5744990  55.3909997  13.1429992  74.3854990  56.0309997
  14.8889992  73.9594990  55.7399997  14.5359992  76.0004990  55.6569997
  15.4609992  76.2384990  55.0879997  13.6499992  76.5244990  55.2379997
  14.8079992  76.2794990  57.1009997  13.9739992  76.0624990  57.8029997
  15.6989992  75.7234990  57.4639997  15.1869992  77.8284990  57.3299997
  15.9819992  78.0584990  56.5889997  14.2679992  78.3414990  56.9739997
  15.4609992  78.2924990  58.8209997  15.5909992  79.3894990  58.7019997
  14.5619992  77.8994990  59.3429997  16.6979992  77.8204990  59.5639997
  16.8389992  76.8064990  59.1309997  17.5889992  78.4804990  59.4999997
  16.5209992  77.8714990  61.1749997  16.3709992  78.9264990  61.4879997
  15.5229992  77.4064990  61.3249997  17.6159992  77.2004990  61.9819997
  17.8079992  76.1324990  61.7439997  18.5499992  77.7054990  61.6539997
  17.4099992  77.4494990  63.5009997  17.1839992  78.5294990  63.6309997
  16.5049992  76.9214990  63.8719997  18.5739992  77.0694990  64.4629997
  18.6569992  75.9684990  64.3359997  19.5129992  77.5714990  64.1449997
  18.2969992  77.3304990  65.9229997  19.1939992  77.0634990  66.5209997
  18.2089992  78.4334990  66.0209997  17.1289992  76.5854990  66.5819997
  16.2259992  76.7184990  65.9489997  17.4309992  75.5234990  66.7029997
  16.8509992  76.9844990  68.0919997  17.7649992  77.0314990  68.7229997
  16.5449992  78.0434990  67.9559997  15.9149992  75.9304990  68.7119997
  15.2079992  75.1774990  68.0769997  16.0369992  75.9824990  70.0039997
  14.8889992  75.6574990  70.7859997  14.5289992  76.5504990  71.3409997
  14.1499992  75.1434990  70.1349997  15.3199992  74.6724990  71.8529997
  14.3969992  74.3784990  72.3969997  16.3709992  75.2474990  72.8429997
  16.2449992  76.3294990  73.0609997  16.3179992  74.6744990  73.7939997
  17.6919992  75.2924990  72.3709997  18.8739992  74.8514990  73.2999997
  18.4949992  75.6184990  74.6119997  18.5229992  77.0414990  74.4839997
  19.4489992  77.4424990  74.9479997  18.4929992  77.4644990  73.4569997
  17.3319992  77.6334990  75.2119997  17.3179992  78.7114990  75.1409997
  16.4219992  77.4314990  74.6649997  17.0769992  77.1784990  76.6149997
  18.3829992  77.0064990  77.3879997  18.1139992  76.5504990  78.3289997
  18.9839992  76.2884990  76.8499997  18.8979992  77.9424990  77.5529997
  16.2279992  78.2504990  77.3719997  15.5179992  78.7744990  76.7489997
  15.6359992  77.8014990  78.1559997  16.9029992  78.9074990  77.8999997
  16.2359992  75.9194990  76.6859997  16.6579992  75.1734990  76.0289997
  15.1949992  76.0874990  76.4519997  16.2609992  75.6284990  77.7259997
  18.7509992  73.4044990  73.5419997  20.1529992  75.2724990  72.8909997
  15.9059992  73.5144990  71.1699997  16.1779992  72.4034990  71.9339997
  15.5909992  72.0944990  72.9339997  17.2509992  71.5904990  71.3129997
  17.0499992  70.5284990  71.5719997  18.2899992  71.7704990  71.6619997
  17.2769992  71.8164990  69.7799997  17.4749992  72.8914990  69.5829997
  16.2729992  71.6244990  69.3469997  18.2939992  70.8224990  69.0369997
  17.9109992  69.8034990  69.2619997  19.3449992  70.9144990  69.3849997
  18.2779992  70.8974990  67.4849997  17.4349992  71.5284990  67.1289997
  17.9749992  69.9354990  67.0179997  19.4519992  71.4744990  66.7019997
  20.2789992  70.8024990  67.0149997  19.8149992  72.4704990  67.0349997
  19.3479992  71.6884990  65.1369997  18.6489992  72.5274990  64.9339997
  18.9199992  70.7384990  64.7519997  20.6399992  71.7994990  64.2029997
  20.3219992  71.9064990  63.1439997  21.2039992  70.8424990  64.2369997
  21.3709992  72.9574990  64.7269997  21.5719992  72.8614990  65.8049997
  21.6099992  74.1174990  64.1239997  22.0449992  75.0004990  64.6149997
  21.1199992  74.3984990  62.7749997  21.2269992  75.4974990  62.6569997
  20.0959992  74.0784990  62.4879997  22.0239992  73.7424990  61.6659997
  22.4069992  72.7064990  61.7849997  22.9309992  74.3764990  61.7609997
  21.5029992  74.0594990  60.2589997  22.1389992  73.5484990  59.5049997
  21.5149992  75.1604990  60.1139997  20.0269992  73.4904990  59.9589997
  19.3309992  74.0994990  60.5739997  19.9309992  72.4064990  60.1859997
  19.6759992  73.6354990  58.4289997  18.7279992  73.0794990  58.2629997
  20.4509992  73.0704990  57.8679997  19.5879992  75.0864990  57.9399997
  20.3259992  75.7614990  58.4239997  18.5699992  75.5044990  58.0869997
  19.8979992  75.1574990  56.3689997  19.2089992  74.4424990  55.8709997
  20.9259992  74.7504990  56.2649997  19.8419992  76.4894990  55.6659997
  19.9479992  76.4304990  54.5619997  20.6799992  77.1434990  55.9909997
  18.8359992  76.9524990  55.7509997  71.1899992   9.3764990  57.3039997
  71.6219992   8.8704990  56.4149997  70.4279992   8.7454990  57.8099997
  72.0029992   9.2984990  58.0559997  70.6689992  10.8024990  56.9779997
  71.5229992  11.2644990  56.4369997  69.9169992  10.6974990  56.1669997
  70.1949992  11.5174990  58.2009997  69.3209992  10.9984990  58.6499997
  71.1189992  11.5754990  58.8139997  69.8179992  13.0384990  58.0699997
  70.6869992  13.6984990  57.8649997  69.0179992  13.0934990  57.3009997
  69.2439992  13.6604990  59.3419997  68.9969992  14.7374990  59.2249997
  68.2769992  13.2114990  59.6549997  70.1759992  13.5504990  60.5509997
  70.5279992  12.5284990  60.8069997  71.0409992  14.1684990  60.2279997
  69.6169992  14.1644990  61.9109997  69.3929992  15.2434990  61.7709997
  68.6839992  13.6374990  62.2049997  70.6759992  13.8854990  62.9759997
  71.0699992  12.8464990  62.9749997  71.5239992  14.5744990  62.7769997
  70.2389992  13.9764990  64.4119997  69.4689992  14.7764990  64.4149997
  69.7789992  13.0344990  64.7789997  71.2309992  14.5724990  65.4039997
  71.9469992  13.7484990  65.6119997  71.8479992  15.3864990  64.9649997
  70.5479992  15.1514990  66.6539997  69.8369992  15.9864990  66.4779997
  69.8429992  14.3824990  67.0369997  71.5999992  15.5434990  67.6789997
  72.1919992  14.6194990  67.8569997  72.2119992  16.3544990  67.2299997
  71.1219992  16.1834990  68.9229997  72.0469992  16.4194990  69.4909997
  70.6109992  17.1454990  68.7049997  70.2439992  15.2804990  69.7749997
  69.5509992  14.5994990  69.2359997  70.8639992  14.6174990  70.4159997
  69.4019992  16.0694990  70.8609997  70.1039992  16.6034990  71.5369997
  68.7649992  16.8694990  70.4259997  68.5239992  15.0404990  71.5429997
  67.4299992  14.7624990  71.1829997  69.0759992  14.5124990  72.6339997
  68.3469992  13.3854990  73.1889997  67.4939992  13.7234990  73.8139997
  68.0189992  12.6444990  72.4289997  69.1839992  12.6424990  74.1999997
  68.6449992  11.7334990  74.5429997  69.5929992  13.5744990  75.3599997
  68.6439992  13.6934990  75.9239997  70.2409992  13.0294990  76.0799997
  70.0149992  14.9094990  75.0079997  71.5729992  15.3534990  74.9489997
  72.2259992  13.8684990  74.7779997  73.5999992  13.7864990  74.4869997
  73.8689992  14.5974990  73.7769997  74.0809992  14.0694990  75.4479997
  73.8789992  12.3074990  74.0639997  73.2949992  12.2064990  73.1609997
  74.8009992  12.1424990  73.5259997  73.8629992  11.1634990  75.0689997
  72.5629992  11.0504990  75.8769997  72.5059992  11.8384990  76.6139997
  71.6809992  11.1464990  75.2609997  72.4809992  10.0704990  76.3239997
  74.2099992   9.9134990  74.3339997  74.2049992   9.0374990  74.9669997
  73.4589992   9.8264990  73.5629997  75.1399992  10.0244990  73.7959997
  75.0169992  11.4284990  75.9289997  75.9519992  11.6374990  75.4289997
  75.1749992  10.6524990  76.6639997  74.7759992  12.3334990  76.4669997
  71.9509992  16.0964990  73.6969997  71.9589992  15.9294990  76.2809997
  70.4869992  12.3334990  73.5619997  70.3729992  11.2094990  72.7029997
  69.4969992  10.4534990  72.6289997  71.4789992  11.2854990  71.6839997
  72.0989992  10.3664990  71.7589997  72.0469992  12.1894990  71.9909997
  70.8669992  11.5934990  70.3239997  71.5739992  12.1464990  69.6679997
  70.0469992  12.3364990  70.4299997  70.3139992  10.3684990  69.6139997
  69.6049992   9.8324990  70.2789997  71.2319992   9.7784990  69.4049997
  69.5429992  10.7644990  68.2999997  68.8129992  11.5424990  68.6089997
  68.9669992   9.9014990  67.9009997  70.2839992  11.3924990  67.0679997
  70.9079992  12.2634990  67.3599997  69.5029992  11.7154990  66.3459997
  71.3329992  10.3864990  66.4439997  70.8729992   9.4544990  66.0529997
  72.0579992  10.0634990  67.2199997  72.2619992  10.9904990  65.3379997
  72.6049992  11.9094990  65.8589997  71.6639992  11.1594990  64.4169997
  73.4959992  10.2174990  64.9979997  73.3829992   9.1274990  65.0979997
  74.5889992  10.8544990  64.5409997  75.4159992  10.1834990  64.2659997
  74.9109992  12.2954990  64.3009997  75.9009992  12.4804990  64.7709997
  74.3229992  13.1144990  64.7669997  74.9899992  12.5264990  62.8299997
  74.0449992  12.0634990  62.4739997  75.8709992  11.9834990  62.4269997
  75.0689992  13.9614990  62.4589997  75.8679992  14.4634990  63.0449997
  74.0479992  14.3354990  62.6859997  75.5449992  14.0294990  61.0499997
  76.4979992  13.4634990  60.9809997  75.6159992  15.1294990  60.9049997
  74.6709992  13.2934990  60.0369997  74.4479992  13.9494990  59.1679997
  73.6499992  13.0584990  60.4049997  75.2449992  11.9444990  59.4199997
  75.1379992  11.1854990  60.2229997  76.3209992  12.0414990  59.1609997
  74.5199992  11.4374990  58.1729997  73.4409992  11.3014990  58.3989997
  74.8929992  10.3934990  58.0949997  74.7419992  12.1664990  56.8949997
  75.7929992  11.9844990  56.5849997  74.6379992  13.2374990  57.1719997
  73.9519992  11.9034990  56.1589997 121.4729992  85.8944990  57.0039997
 120.5939992  85.3004990  56.6749997 122.3379992  85.2184990  57.1719997
 121.6729992  86.6334990  56.1989997 121.0959992  86.5434990  58.3219997
 120.9209992  85.6584990  58.9699997 121.9749992  86.9624990  58.8579997
 119.8849992  87.5734990  58.2849997 120.2279992  88.4184990  57.6489997
 118.9599992  87.2224990  57.7809997 119.6859992  88.2774990  59.7549997
 120.7059992  88.5494990  60.0999997 119.0919992  89.2014990  59.5919997
 119.0069992  87.5284990  60.8319997 117.9519992  87.5964990  60.4909997
 119.3639992  86.4804990  60.9199997 119.1419992  88.1554990  62.2049997
 120.2399992  88.2384990  62.3549997 118.6459992  89.1304990  62.3959997
 118.6469992  87.3454990  63.3439997 119.1619992  86.3614990  63.3529997
 118.9929992  87.9094990  64.2359997 117.1679992  87.2594990  63.4279997
 116.9569992  88.3484990  63.3629997 116.7659992  86.6954990  62.5589997
 116.6729992  86.5504990  64.6609997 117.2029992  85.5934990  64.8539997
 116.9619992  87.1084990  65.5769997 115.1599992  86.3604990  64.7019997
 114.6319992  87.3204990  64.8829997 114.8679992  85.8724990  63.7479997
 114.5999992  85.5734990  65.8919997 113.5339992  85.5184990  65.5819997
 115.0809992  84.5724990  65.9369997 114.8199992  86.1564990  67.3249997
 114.6789992  85.4654990  68.1839997 115.8599992  86.5464990  67.3389997
 113.8699992  87.3314990  67.5849997 114.2009992  88.1714990  66.9379997
 112.9329992  86.9784990  67.1039997 113.6019992  87.7064990  69.0129997
 112.7829992  88.4494990  69.1139997 113.2409992  86.8354990  69.6009997
 114.8469992  88.3164990  69.6839997 115.4669992  88.9514990  69.0149997
 114.5459992  89.0334990  70.4769997 115.8279992  87.3214990  70.2909997
 115.5379992  86.2884990  70.9049997 117.1189992  87.7204990  70.0169997
 118.1509992  86.7614990  70.2999997 117.8109992  85.9234990  70.9449997
 118.4919992  86.3244990  69.3369997 119.3749992  87.4954990  70.8829997
 120.1999992  86.7874990  71.1119997 119.0969992  88.2734990  72.2019997
 118.8339992  87.4814990  72.9349997 120.0789992  88.7814990  72.3159997
 118.1599992  89.2614990  71.8579997 117.5379992  90.0354990  73.0859997
 118.1969992  89.3734990  74.3179997 117.7989992  89.8644990  75.6389997
 118.5629992  90.6304990  75.8899997 116.7969992  90.3444990  75.6279997
 117.8039992  88.8454990  76.7839997 118.7909992  88.4074990  76.7579997
 117.6139992  89.3704990  77.7089997 116.7889992  87.7304990  76.6679997
 115.4449992  88.3244990  76.1919997 115.5819992  88.5854990  75.1529997
 114.6469992  87.5974990  76.1719997 115.1919992  89.1744990  76.8079997
 117.2619992  86.7114990  75.7659997 117.4409992  87.1834990  74.8119997
 118.1809992  86.2314990  76.0679997 116.5299992  85.9184990  75.7299997
 116.5329992  87.2404990  78.0699997 116.0439992  87.8734990  78.7949997
 117.4669992  86.8734990  78.4689997 115.8599992  86.3994990  77.9849997
 118.1129992  91.4604990  73.0189997 116.0649992  89.9084990  73.0719997
 119.7369992  88.3754990  69.8859997 120.9899992  88.8494990  69.8439997
 121.8649992  88.6684990  70.6409997 121.1639992  89.6374990  68.5199997
 120.3379992  89.2964990  67.8599997 122.1409992  89.3604990  68.0709997
 121.2029992  91.1864990  68.9109997 121.2999992  91.8064990  67.9939997
 122.1909992  91.2964990  69.4059997 120.0459992  91.7834990  69.6319997
 120.3269992  92.7954990  69.9939997 119.8289992  91.1104990  70.4899997
 118.7999992  91.8624990  68.7159997 118.3789992  90.8354990  68.7649997
 119.0899992  92.2574990  67.7189997 117.6809992  92.7724990  69.2379997
 118.1399992  93.7834990  69.1899997 117.4909992  92.4614990  70.2879997
 116.2789992  92.7154990  68.5629997 115.7739992  93.6524990  68.8819997
 115.6779992  91.8534990  68.9249997 116.4039992  92.5344990  67.0529997
 117.0809992  91.7044990  66.7599997 116.8909992  93.4524990  66.6599997
 115.0609992  92.0934990  66.4309997 114.3189992  91.6504990  67.1109997
 114.8049992  92.1754990  65.0749997 113.7699992  92.0694990  64.7179997
 115.8609992  92.6734990  64.0849997 116.7499992  93.1034990  64.5929997
 115.4719992  93.5404990  63.5079997 116.2279992  91.4484990  63.2089997
 115.3639992  90.7734990  63.0309997 117.1719992  90.9904990  63.5739997
 116.6159992  92.0154990  61.8909997 117.5899992  92.5454990  61.9489997
 115.8569992  92.7794990  61.6179997 116.5649992  90.8384990  60.7929997
 115.4949992  90.5534990  60.6999997 117.2439992  89.9774990  60.9699997
 117.3259992  91.4984990  59.5789997 117.2469992  90.7014990  58.8079997
 118.3709992  91.7774990  59.8339997 116.6599992  92.7294990  59.0929997
 117.1799992  93.0014990  58.1499997 116.6869992  93.6244990  59.7509997
 115.1859992  92.4504990  58.7159997 114.6349992  92.4374990  59.6799997
 115.0329992  91.4424990  58.2739997 114.6669992  93.3954990  57.7059997
 114.4529992  94.4154990  58.0909997 113.7889992  92.9814990  57.1639997
 115.4359992  93.5154990  56.9129997  50.1069992 116.8824990  58.3119997
  50.5749992 116.2154990  57.5579997  49.3919992 117.6274990  57.9009997
  49.4259992 116.2454990  58.9149997  51.0689992 117.5184990  59.3069997
  51.8129992 116.8014990  59.7149997  51.6449992 118.2514990  58.7029997
  50.4199992 118.3014990  60.4399997  50.9839992 119.2184990  60.7139997
  49.4329992 118.7894990  60.2919997  50.3849992 117.4914990  61.7309997
  49.8009992 116.5534990  61.6109997  51.4319992 117.1324990  61.8319997
  49.9339992 118.2564990  63.0419997  48.8439992 118.0394990  63.0239997
  50.3789992 117.7794990  63.9409997  50.1399992 119.8364990  63.0209997
  51.1939992 120.0104990  62.7159997  49.5129992 120.1754990  62.1689997
  49.8289992 120.5444990  64.3379997  50.5859992 120.1744990  65.0619997
  50.1549992 121.6014990  64.2289997  48.3909992 120.3464990  64.7819997
  47.6999992 120.7694990  64.0219997  48.1279992 119.2854990  64.9779997
  48.0409992 121.1464990  66.1389997  48.2449992 122.2104990  65.8919997
  46.9779992 121.0044990  66.4269997  48.8459992 120.6714990  67.3009997
  49.9149992 120.7484990  67.0079997  48.6589992 121.3084990  68.1919997
  48.5749992 119.2474990  67.8129997  47.4839992 119.0534990  67.7329997
  49.1869992 118.5524990  67.1999997  49.0139992 118.8804990  69.2399997
  50.1159992 119.0134990  69.2779997  48.4869992 119.5014990  69.9949997
  48.7099992 117.3714990  69.5239997  47.6359992 117.2444990  69.2689997
  49.4399992 116.8134990  68.8989997  48.7739992 117.0094990  71.0639997
  49.6839992 117.5024990  71.4679997  47.9889992 117.4604990  71.7089997
  48.7809992 115.5044990  71.4969997  48.6249992 115.4534990  72.5949997
  47.9839992 114.9084990  71.0029997  50.2269992 114.9374990  71.1919997
  50.8289992 115.0894990  70.1789997  50.8009992 114.3784990  72.3389997
  52.2449992 114.1604990  72.2639997  52.5779992 113.4074990  73.0089997
  52.6029992 113.7834990  71.2819997  52.9759992 115.5034990  72.5149997
  54.0679992 115.3154990  72.4389997  52.6169992 116.1214990  73.8869997
  52.6419992 115.2724990  74.6019997  53.3659992 116.8374990  74.2879997
  51.2139992 116.4774990  74.0269997  51.0489992 117.9344990  74.6489997
  52.0079992 118.8614990  73.9109997  51.6579992 120.1534990  73.5169997
  52.3609992 120.5054990  72.7319997  50.6649992 120.1994990  73.0209997
  51.5929992 121.1514990  74.7089997  51.1049992 122.0604990  74.3909997
  50.8499992 120.7854990  75.4019997  52.7799992 121.4964990  75.5749997
  53.5139992 120.4044990  76.2049997  53.9829992 119.6944990  75.5399997
  54.4019992 120.8534990  76.6229997  52.9049992 119.9254990  76.9569997
  53.7689992 122.2844990  74.6439997  54.6209992 122.7244990  75.1429997
  54.1699992 121.6814990  73.8429997  53.2719992 123.1674990  74.2699997
  52.2699992 122.4454990  76.7049997  53.0349992 122.7294990  77.4119997
  51.4489992 121.9084990  77.1579997  51.8069992 123.3204990  76.2739997
  49.6809992 118.4624990  74.5349997  51.6499992 117.8204990  75.9949997
  52.6609992 116.4074990  71.4629997  53.5679992 117.4644990  71.3879997
  54.5689992 117.5704990  72.0509997  53.1469992 118.3174990  70.1819997
  52.2399992 118.9264990  70.3809997  52.9219992 117.6884990  69.2939997
  54.2709992 119.2394990  69.7629997  55.1799992 118.7294990  69.3759997
  54.5339992 119.8634990  70.6439997  53.8719992 120.2534990  68.6869997
  54.7439992 120.7744990  68.2369997  53.3219992 121.0764990  69.1909997
  53.0449992 119.7634990  67.4809997  52.9649992 120.6774990  66.8539997
  52.1019992 119.4284990  67.9639997  53.4689992 118.5904990  66.5979997
  52.7409992 118.3844990  65.7839997  53.4799992 117.7164990  67.2829997
  54.9029992 118.7494990  66.0359997  55.7269992 118.7964990  66.7809997
  54.9319992 119.7404990  65.5349997  55.2999992 117.7194990  65.0099997
  54.5569992 117.7954990  64.1869997  55.1589992 116.7324990  65.4999997
  56.7309992 117.7564990  64.4819997  57.5519992 117.3414990  65.0859997
  57.0649992 118.3064990  63.2759997  58.0949992 118.1354990  62.9309997
  56.0849992 118.8844990  62.3219997  56.4799992 119.8254990  61.8839997
  55.1189992 119.2094990  62.7649997  55.7059992 118.0604990  61.0849997
  56.6409992 117.6494990  60.6489997  55.0779992 118.5074990  60.2849997
  54.9939992 116.7554990  61.5789997  54.0479992 117.0534990  62.0789997
  55.7119992 116.1704990  62.1929997  54.5249992 115.7564990  60.4429997
  53.7749992 116.3844990  59.9169997  53.9749992 114.9634990  60.9939997
  55.6309992 115.1944990  59.5139997  55.1669992 114.3414990  58.9739997
  56.4749992 114.8274990  60.1359997  56.0989992 116.1014990  58.3289997
  56.8829992 116.7474990  58.7799997  55.3059992 116.8094990  58.0039997
  56.5179992 115.3514990  57.1089997  55.6959992 114.6504990  56.8499997
  57.4449992 114.7444990  57.1939997  56.9029992 116.2284990  55.8649997
  57.8719992 116.7454990  56.0289997  56.0659992 116.8564990  55.4919997
  57.0469992 115.4774990  55.0599997  20.2199992  54.4034990  53.4099997
  20.3789992  55.1794990  54.1889997  19.1249992  54.2174990  53.3949997
  20.5559992  54.7154990  52.3979997  21.0619992  53.1774990  53.8619997
  20.5149992  52.2734990  53.5169997  22.0919992  53.3424990  53.4809997
  21.0429992  52.9424990  55.3909997  21.6249992  53.6404990  56.0309997
  19.9889992  52.8944990  55.7399997  21.5279992  51.5094990  55.6569997
  20.9479992  50.7504990  55.0879997  22.5479992  51.6444990  55.2379997
  21.4869992  51.1214990  57.1009997  22.0079992  51.8074990  57.8029997
  20.4429992  51.0074990  57.4639997  22.1459992  49.6704990  57.3299997
  21.6639992  48.9964990  56.5889997  23.1859992  49.8344990  56.9739997
  22.2179992  49.1354990  58.8209997  22.7939992  48.1924990  58.7019997
  22.6809992  50.0004990  59.3429997  20.9529992  48.7424990  59.5639997
  20.2169992  49.4524990  59.1309997  20.6609992  47.6724990  59.4999997
  21.1239992  48.8114990  61.1749997  21.8949992  48.0744990  61.4879997
  21.6209992  49.7934990  61.3249997  19.8479992  48.6624990  61.9819997
  19.0379992  49.3834990  61.7439997  19.4269992  47.6884990  61.6539997
  20.1639992  48.5934990  63.5009997  21.0099992  47.8844990  63.6309997
  20.5489992  49.5674990  63.8719997  19.0139992  48.1724990  64.4629997
  18.2689992  48.9864990  64.3359997  18.5869992  47.1974990  64.1449997
  19.3939992  48.1394990  65.9229997  18.5239992  47.7944990  66.5209997
  20.1449992  47.3264990  66.0209997  19.8509992  49.4454990  66.5819997
  20.6429992  49.8994990  65.9489997  18.9579992  50.0944990  66.7029997
  20.3159992  49.3044990  68.0919997  19.6269992  48.7034990  68.7229997
  21.2119992  48.6604990  67.9559997  20.4009992  50.7114990  68.7119997
  20.4909992  51.7404990  68.0769997  20.3369992  50.5954990  70.0039997
  21.0379992  51.5604990  70.7859997  21.8729992  51.0814990  71.3409997
  21.3019992  52.4204990  70.1349997  20.0899992  52.0684990  71.8529997
  20.6349992  52.8694990  72.3969997  19.6199992  50.9664990  72.8429997
  20.3879992  50.1944990  73.0609997  19.3079992  51.4494990  73.7939997
  18.6099992  50.1144990  72.3709997  17.4069992  49.7304990  73.2999997
  18.1799992  49.3624990  74.6119997  19.0379992  48.2264990  74.4839997
  18.5579992  47.3384990  74.9479997  19.3219992  47.9114990  73.4569997
  20.3399992  48.4974990  75.2119997  21.0169992  47.6584990  75.1409997
  20.9299992  49.2184990  74.6649997  20.2589992  49.0124990  76.6149997
  19.1259992  48.3394990  77.3879997  19.0549992  48.8654990  78.3289997
  18.2099992  48.5334990  76.8499997  19.2999992  47.2864990  77.5529997
  21.5889992  48.6944990  77.3719997  22.4709992  48.7214990  76.7489997
  21.7759992  49.4134990  78.1559997  21.4649992  47.7604990  77.8999997
  20.1419992  50.5214990  76.6859997  19.3489992  50.8474990  76.0289997
  21.0629992  51.0334990  76.4519997  19.9429992  50.7354990  77.7259997
  16.6099992  50.9444990  73.5419997  16.6629992  48.6084990  72.8909997
  18.9149992  52.6164990  71.1699997  18.0139992  53.3214990  71.9339997
  18.2839992  53.9274990  72.9339997  16.6679992  53.2974990  71.3129997
  16.1699992  54.2564990  71.5719997  15.9629992  52.5134990  71.6619997
  16.7869992  53.1034990  69.7799997  17.2959992  52.1364990  69.5829997
  17.4579992  53.8754990  69.3469997  15.3729992  53.2564990  69.0369997
  15.0449992  54.2944990  69.2619997  14.6039992  52.5344990  69.3849997
  15.4329992  53.2074990  67.4849997  16.4849992  53.2324990  67.1289997
  15.0759992  54.1504990  67.0179997  14.8659992  52.0284990  66.7019997
  13.7999992  52.0454990  67.0149997  15.1959992  51.0214990  67.0349997
  15.0799992  51.9234990  65.1369997  16.1479992  51.6964990  64.9339997
  14.8289992  52.9354990  64.7519997  14.1329992  51.0384990  64.2029997
  14.4489992  51.1504990  63.1439997  13.0979992  51.4414990  64.2369997
  14.2739992  49.6764990  64.7269997  14.0569992  49.6274990  65.8049997
  14.8029992  48.6164990  64.1239997  15.0079992  47.6544990  64.6149997
  15.3619992  48.6984990  62.7749997  15.9579992  47.7684990  62.6569997
  15.9699992  49.5834990  62.4879997  14.2459992  48.6554990  61.6659997
  13.3049992  49.2334990  61.7849997  13.9249992  47.5964990  61.7609997
  14.8509992  48.7284990  60.2589997  14.0349992  48.7364990  59.5049997
  15.5229992  47.8554990  60.1139997  15.6599992  50.0884990  59.9589997
  16.5839992  50.0394990  60.5739997  15.0659992  50.9994990  60.1859997
  16.0259992  50.1914990  58.4289997  16.4269992  51.2144990  58.2629997
  15.0669992  50.1564990  57.8679997  16.9909992  49.1044990  57.9399997
  16.8289992  48.1184990  58.4239997  18.0509992  49.4054990  58.0869997
  16.7929992  48.8574990  56.3689997  16.8919992  49.8454990  55.8709997
  15.7319992  48.5414990  56.2649997  17.6589992  47.8444990  55.6659997
  17.5389992  47.8254990  54.5619997  17.4049992  46.8134990  55.9909997
  18.7359992  48.1024990  55.7509997 120.3349992  62.8504990  57.3589997
 120.4799992  61.8384990  57.7939997 121.3559992  63.2414990  57.1649997
 119.7139992  62.7304990  56.4449997 119.5329992  63.8504990  58.2619997
 119.9489992  63.5544990  59.2489997 119.7519992  64.9124990  58.0219997
 117.9939992  63.8674990  58.1729997 117.5449992  64.0374990  57.1709997
 117.7109992  62.8574990  58.5369997 117.4639992  64.8624990  59.1749997
 117.6909992  65.9224990  58.9319997 116.3569992  64.7704990  59.2009997
 117.8799992  64.5814990  60.6359997 118.3609992  63.5824990  60.7119997
 118.6739992  65.3034990  60.9219997 116.8129992  64.7564990  61.7449997
 117.3259992  64.6724990  62.7269997 116.3499992  65.7654990  61.6999997
 115.7019992  63.6574990  61.6319997 114.8059992  63.9294990  61.0329997
 116.0279992  62.7804990  61.0329997 115.0459992  63.1934990  62.9239997
 114.6469992  64.1044990  63.4199997 114.2449992  62.4724990  62.6539997
 115.9149992  62.4854990  63.9609997 116.5159992  61.6484990  63.5469997
 116.5989992  63.2554990  64.3779997 115.1389992  61.9474990  65.1769997
 114.3619992  62.6694990  65.5079997 114.5769992  61.0654990  64.8009997
 115.9639992  61.6724990  66.4339997 116.9419992  61.2144990  66.1719997
 116.2309992  62.6514990  66.8859997 115.1919992  60.9574990  67.5299997
 114.1999992  61.4574990  67.5219997 114.9999992  59.8934990  67.2779997
 115.6499992  61.1804990  69.0119997 114.9339992  60.6484990  69.6739997
 116.7209992  60.9344990  69.1809997 115.5659992  62.6244990  69.4699997
 116.3299992  63.3134990  69.0509997 114.5499992  63.0464990  69.3089997
 115.9889992  62.7414990  70.9929997 116.9659992  62.2824990  71.2569997
 116.2339992  63.8024990  71.2119997 114.8889992  62.1844990  71.8529997
 113.7289992  62.5374990  71.8679997 115.3819992  61.2434990  72.7169997
 114.3389992  60.5824990  73.4499997 113.5979992  61.2374990  73.9559997
 113.7199992  60.1044990  72.6609997 115.1159992  59.7014990  74.3739997
 114.4569992  58.8604990  74.6779997 115.5769992  60.5224990  75.5949997
 114.7129992  61.0244990  76.0809997 116.1349992  59.8064990  76.2359997
 116.4649992  61.5894990  75.1029997 116.8799992  62.5154990  76.2449997
 118.1789992  63.2204990  75.6629997 118.4049992  63.5284990  74.2599997
 117.4509992  63.9094990  73.8379997 119.2279992  64.2714990  74.3269997
 118.9299992  62.3724990  73.4349997 118.1689992  61.6074990  73.3869997
 119.0599992  62.7704990  72.4399997 120.1909992  61.6344990  73.8779997
 121.3439992  62.6144990  74.0679997 121.1719992  63.3464990  74.8429997
 122.1439992  61.9324990  74.3179997 121.4289992  63.1714990  73.1469997
 119.8769992  60.8594990  75.1029997 119.4749992  61.4654990  75.9019997
 119.2009992  60.0244990  74.9899997 120.8639992  60.4964990  75.3509997
 120.4729992  60.6954990  72.7499997 121.4779992  60.3164990  72.8649997
 120.4919992  61.2154990  71.8029997 119.7599992  59.8964990  72.6059997
 115.7969992  63.4854990  76.5209997 117.2799992  61.7304990  77.4459997
 116.2939992  59.2144990  73.6729997 116.0439992  58.3314990  72.6579997
 115.0259992  57.6824990  72.5259997 117.2499992  58.1964990  71.7659997
 118.0459992  57.7084990  72.3689997 117.5889992  59.1624990  71.3349997
 117.1199992  57.1584990  70.6689997 116.1889992  57.3324990  70.0879997
 117.1519992  56.1554990  71.1439997 118.2779992  57.0004990  69.6459997
 117.9059992  56.3804990  68.8019997 119.0449992  56.5194990  70.2889997
 118.7289992  58.3834990  69.0399997 119.2549992  58.9744990  69.8199997
 117.8199992  58.8854990  68.6459997 119.6119992  58.1814990  67.7659997
 119.1989992  57.2444990  67.3349997 120.5989992  57.8554990  68.1559997
 119.5669992  59.3664990  66.7889997 119.6669992  60.3074990  67.3719997
 118.6179992  59.3534990  66.2119997 120.6619992  59.3314990  65.6619997
 121.6789992  59.3274990  66.1099997 120.5349992  60.2774990  65.0939997
 120.6409992  58.0964990  64.7909997 120.7269992  57.1174990  65.2859997
 120.6109992  58.1234990  63.4379997 120.5809992  57.1224990  62.9829997
 120.5829992  59.3494990  62.5819997 121.5469992  59.3534990  62.0299997
 120.4689992  60.2954990  63.1519997 119.4189992  59.3354990  61.5569997
 119.4439992  58.3284990  61.0889997 119.7239992  60.1354990  60.8489997
 118.1309992  59.7324990  62.2009997 118.0609992  60.8334990  62.3329997
 118.2119992  59.2984990  63.2209997 116.8309992  59.2704990  61.5299997
 115.8909992  59.3224990  62.1199997 116.9719992  58.1854990  61.3379997
 116.5899992  59.9634990  60.2189997 117.1409992  59.2714990  59.5469997
 117.0969992  60.9524990  60.2349997 115.1079992  60.3524990  59.9289997
 114.7269992  60.9744990  60.7679997 114.4029992  59.5054990  59.7899997
 115.0019992  61.2244990  58.7269997 115.9539992  61.6824990  58.3819997
 114.2689992  61.9774990  59.0879997 114.3229992  60.4254990  57.5609997
 113.5849992  59.6664990  57.8979997 115.1159992  59.9154990  56.9729997
 113.7359992  61.0294990  56.8369997  81.9779992  19.9834990  56.7679997
  80.8779992  19.8854990  56.6449997  82.3879992  18.9734990  56.9819997
  82.3619992  20.0594990  55.7279997  82.4419992  21.0734990  57.7469997
  81.9989992  20.7534990  58.7139997  83.5249992  21.0164990  57.9909997
  81.9469992  22.4714990  57.4699997  82.5989992  22.9674990  56.7189997
  80.9179992  22.4474990  57.0519997  81.8799992  23.4644990  58.6509997
  82.8619992  23.6034990  59.1509997  81.6899992  24.4284990  58.1329997
  80.8589992  23.1914990  59.7279997  79.9029992  23.0444990  59.1809997
  81.0049992  22.2414990  60.2849997  80.7909992  24.2954990  60.7859997
  81.7909992  24.4744990  61.2359997  80.4539992  25.2244990  60.2779997
  79.7249992  24.0584990  61.8939997  79.9339992  23.0404990  62.2849997
  79.8619992  24.8554990  62.6549997  78.2119992  24.0104990  61.5009997
  77.8869992  25.0524990  61.2919997  78.1439992  23.4084990  60.5689997
  77.3369992  23.4134990  62.6099997  77.6049992  22.3354990  62.6549997
  77.5769992  23.8944990  63.5819997  75.8569992  23.5464990  62.2099997
  75.5449992  24.5304990  61.7999997  75.7099992  22.9244990  61.3009997
  74.7389992  23.1814990  63.1799997  73.8309992  23.6724990  62.7689997
  74.7199992  22.0714990  63.2249997  74.8759992  23.5294990  64.6639997
  75.3709992  24.5234990  64.6979997  73.8339992  23.6774990  65.0189997
  75.6649992  22.4714990  65.4969997  74.8889992  21.7064990  65.7109997
  76.4769992  21.9684990  64.9309997  76.2719992  23.0554990  66.7819997
  76.8889992  22.2954990  67.3069997  77.0019992  23.7984990  66.3939997
  75.2559992  23.6864990  67.6729997  74.7279992  24.5794990  67.2769997
  74.5129992  22.9144990  67.9649997  76.0779992  24.2564990  68.9029997
  76.4219992  25.3994990  68.9469997  76.2489992  23.3514990  69.9259997
  76.5719992  24.0054990  71.1899997  77.0669992  24.9954990  71.0939997
  75.6359992  24.1034990  71.7799997  77.5579992  23.0494990  71.9139997
  77.0039992  22.1384990  72.2259997  78.2609992  23.6834990  73.1579997
  79.0059992  24.4774990  72.9349997  77.5099992  24.1544990  73.8269997
  79.0849992  22.6814990  73.8469997  78.6829992  21.7344990  75.0089997
  80.0389992  21.0064990  75.5159997  81.1439992  20.6774990  74.6229997
  81.1709992  21.4974990  73.8729997  82.1169992  20.6474990  75.1579997
  80.8299992  19.3014990  74.1029997  79.8259992  19.3954990  73.7179997
  81.5079992  19.1864990  73.2709997  80.8299992  18.0224990  75.0019997
  79.5419992  18.0624990  75.7919997  79.3889992  17.1674990  76.3759997
  79.5009992  18.9134990  76.4549997  78.6939992  18.0334990  75.1239997
  80.8069992  16.7904990  74.1519997  79.8969992  16.7394990  73.5729997
  81.6689992  16.7274990  73.5059997  80.7819992  15.9304990  74.8059997
  82.0449992  18.0854990  75.8719997  82.8639992  17.9904990  75.1749997
  81.9859992  17.2114990  76.5029997  82.0489992  19.0354990  76.3869997
  78.2309992  22.5184990  76.1969997  77.8469992  20.7024990  74.3589997
  78.5759992  22.6904990  71.0059997  78.6569992  21.4714990  70.4289997
  78.2829992  20.4274990  70.9489997  79.2479992  21.5714990  69.0349997
  80.3099992  21.8944990  69.0849997  78.5749992  22.1764990  68.3889997
  79.2479992  20.2134990  68.1939997  78.2789992  19.6994990  68.3729997
  80.0949992  19.6674990  68.6599997  79.6429992  20.4194990  66.7229997
  78.7259992  20.8284990  66.2469997  79.7059992  19.4984990  66.1049997
  80.9129992  21.2184990  66.3199997  81.9019992  20.8514990  66.6709997
  80.7969992  22.2124990  66.8029997  81.1299992  21.2684990  64.8129997
  81.8269992  22.0824990  64.5189997  80.1639992  21.4904990  64.3119997
  81.7379992  19.9994990  64.2469997  81.0459992  19.1704990  64.5089997
  82.6739992  19.6484990  64.7329997  82.1299992  19.9824990  62.7019997
  83.0199992  20.6444990  62.6229997  81.2789992  20.4424990  62.1569997
  82.4299992  18.5874990  62.1679997  83.4199992  18.1674990  62.3999997
  81.4879992  17.7324990  61.6589997  81.7989992  16.7614990  61.2449997
  80.0809992  18.0744990  61.5459997  79.7429992  18.5554990  62.4889997
  79.4419992  17.1664990  61.5049997  79.7589992  18.8704990  60.3069997
  80.2899992  18.5124990  59.3989997  80.1049992  19.9244990  60.3699997
  78.2429992  18.9594990  59.8679997  77.6989992  19.3544990  60.7529997
  77.9039992  17.9304990  59.6239997  77.7729992  19.9924990  58.7559997
  78.2069992  20.9884990  58.9869997  76.6689992  20.0624990  58.8649997
  78.0919992  19.3664990  57.3429997  77.4389992  18.4694990  57.2989997
  79.1149992  18.9334990  57.3669997  77.8109992  20.3874990  56.1819997
  78.3089992  19.9214990  55.3039997  78.4709992  21.2774990  56.2579997
  76.3109992  20.6534990  55.9639997  75.7009992  20.7834990  56.8839997
  75.9459992  19.7404990  55.4489997  75.9649992  21.7194990  54.8609997
  76.4749992  21.4554990  53.9109997  76.4039992  22.7354990  54.9579997
  74.8999992  21.6994990  54.5429997  65.4919992   7.9014990  55.7479997
  65.9639992   8.8284990  55.3579997  65.1169992   8.2904990  56.7189997
  64.6229992   7.7134990  55.0829997  66.2449992   6.6074990  55.9959997
  66.4349992   6.2794990  54.9519997  67.2659992   6.7334990  56.4169997
  65.6739992   5.5584990  56.8819997  64.8049992   5.1034990  56.3609997
  66.5269992   4.8634990  57.0339997  65.0809992   5.9654990  58.2219997
  65.5159992   6.9734990  58.3949997  63.9949992   6.1664990  58.1079997
  65.5069992   4.8984990  59.2939997  64.9129992   3.9774990  59.1099997
  66.5609992   4.5884990  59.1229997  65.3219992   5.4904990  60.7389997
  65.9189992   6.3964990  60.9789997  64.2689992   5.7744990  60.9479997
  65.7539992   4.5034990  61.8829997  64.9659992   3.7304990  62.0089997
  66.7709992   4.0714990  61.7709997  65.6849992   5.1214990  63.3049997
  64.7459992   5.7024990  63.4279997  65.6789992   4.2104990  63.9409997
  66.9029992   5.9974990  63.8769997  66.8799992   6.9884990  63.3769997
  66.6729992   6.2284990  64.9389997  68.2689992   5.3894990  63.8559997
  68.2129992   4.4014990  64.3599997  68.6019992   5.2204990  62.8099997
  69.2899992   6.1134990  64.6339997  70.3119992   6.1094990  64.1979997
  69.0009992   7.1854990  64.6549997  69.5179992   5.6104990  66.0449997
  68.5849992   5.5854990  66.6459997  69.7919992   4.5414990  66.1659997
  70.6109992   6.4374990  66.8559997  71.5989992   6.3884990  66.3499997
  70.1399992   7.4434990  66.8219997  70.5739992   6.1214990  68.3509997
  69.5519992   6.0044990  68.7729997  71.0449992   5.1154990  68.3409997
  71.4409992   7.1304990  69.2449997  72.5489992   7.0474990  69.2119997
  71.1129992   8.1464990  68.9389997  71.0059992   6.9544990  70.7819997
  70.4969992   5.9224990  71.2179997  71.0949992   8.0504990  71.4699997
  70.4039992   8.1754990  72.7469997  70.4609992   7.2584990  73.3719997
  70.9859992   8.8954990  73.3609997  69.0229992   8.8764990  72.6169997
  69.2129992   9.9674990  72.5339997  68.2039992   8.4324990  73.8709997
  68.9019992   8.4274990  74.7359997  67.4029992   9.1974990  73.9569997
  67.6329992   7.1634990  73.6049997  67.0729992   6.2474990  74.7319997
  65.7229992   7.0314990  75.1139997  64.8789992   7.4454990  74.0809997
  65.3109992   8.2244990  73.4169997  64.5939992   6.5474990  73.4919997
  63.5779992   8.0124990  74.6449997  62.7789992   8.1884990  73.9399997
  63.2649992   7.2654990  75.3599997  63.6959992   9.3474990  75.3499997
  64.2829992   9.0164990  76.6809997  63.7379992   8.2324990  77.1869997
  65.2759992   8.6044990  76.5769997  64.4449992   9.9594990  77.1809997
  64.5429992  10.3294990  74.6189997  65.5709992  10.0014990  74.6369997
  64.2009992  10.3254990  73.5939997  64.5649992  11.2574990  75.1709997
  62.2629992   9.8914990  75.5839997  62.3549992  10.9654990  75.6489997
  62.0129992   9.5114990  76.5629997  61.5969992   9.5104990  74.8229997
  66.7629992   4.9734990  74.1179997  67.8689992   6.1964990  75.9429997
  68.3629992   8.4704990  71.4049997  67.2609992   9.0854990  71.1489997
  66.8899992  10.1644990  71.6219997  66.5569992   8.1444990  70.1739997
  65.5189992   8.5324990  70.1029997  66.6029992   7.0924990  70.5259997
  67.1289992   8.1604990  68.6809997  67.1809992   7.0894990  68.3889997
  68.1559992   8.5584990  68.5379997  66.1259992   8.7204990  67.6369997
  66.6059992   8.6794990  66.6349997  65.9469992   9.7554990  68.0009997
  64.8789992   7.8984990  67.4169997  64.3209992   7.7354990  68.3629997
  65.0709992   6.8574990  67.0809997  63.8639992   8.6824990  66.4929997
  64.1299992   9.7604990  66.4449997  62.8709992   8.6714990  66.9909997
  63.7319992   8.1204990  65.1279997  62.6359992   7.9904990  64.9989997
  64.0219992   7.0494990  65.0809997  64.5329992   8.7194990  64.0199997
  64.4819992   8.0714990  63.1189997  65.6079992   8.6444990  64.2909997
  64.2559992  10.1574990  63.7009997  64.4609992  10.8434990  64.5369997
  63.6949992  10.7624990  62.6699997  63.4929992  11.8434990  62.6729997
  63.1309992   9.8964990  61.5299997  62.1929992  10.4344990  61.2739997
  62.9499992   8.8344990  61.8039997  64.0179992  10.0024990  60.2559997
  64.0229992  11.0834990  59.9989997  63.5939992   9.3414990  59.4699997
  65.4869992   9.5354990  60.5819997  65.3189992   8.4394990  60.6549997
  65.8079992   9.8344990  61.6019997  66.5639992   9.7664990  59.6069997
  66.9639992  10.7784990  59.8319997  66.2569992   9.6804990  58.5429997
  67.7039992   8.8084990  59.7609997  67.2999992   7.7744990  59.7959997
  68.1439992   8.9394990  60.7729997  68.7889992   9.2074990  58.7879997
  69.1089992  10.2644990  58.9139997  68.3239992   9.0224990  57.7959997
  70.1779992   8.3524990  58.8819997  69.8979992   7.3024990  58.6509997
  70.4399992   8.3644990  59.9619997  71.2729992   8.7394990  57.9199997
  71.8799992   9.6294990  58.1919997  70.8709992   8.9624990  56.9079997
  72.0159992   7.9334990  57.7389997 105.2359992  34.6514990  58.0019997
 105.7149992  34.1994990  57.1069997 105.6159992  34.2544990  58.9669997
 105.4769992  35.7224990  57.8289997 103.7889992  34.4074990  58.0029997
 103.2729992  35.0004990  57.2179997 103.5749992  33.3434990  57.7659997
 103.1359992  34.8354990  59.3239997 103.4679992  35.8834990  59.4849997
 102.0439992  34.9554990  59.1589997 103.3879992  33.8964990  60.5469997
 103.1099992  32.8294990  60.4149997 104.4759992  33.9494990  60.7649997
 102.5789992  34.3444990  61.8419997 103.0079992  33.7304990  62.6629997
 102.7109992  35.4424990  61.9509997 101.0689992  34.1334990  61.5449997
 100.7069992  34.7264990  60.6779997 100.7789992  33.0694990  61.4089997
 100.2039992  34.6134990  62.7549997 100.2529992  35.7134990  62.9029997
  99.1499992  34.3294990  62.5479997 100.4519992  33.9154990  64.1509997
  99.9759992  32.9134990  64.2149997 101.5159992  33.6944990  64.3819997
 100.0009992  34.9504990  65.2259997 100.8709992  35.6034990  65.4529997
  99.0629992  35.5064990  65.0099997  99.8449992  34.2004990  66.5799997
  98.9489992  33.5664990  66.4099997 100.7439992  33.5544990  66.6749997
  99.7219992  35.0884990  67.8259997 100.3889992  35.9714990  67.7279997
  98.7259992  35.5794990  67.8519997  99.8099992  34.3184990  69.1709997
  99.7619992  35.0534990  70.0039997  98.9899992  33.5734990  69.2469997
 101.1259992  33.5934990  69.4659997 101.0729992  33.0574990  70.4379997
 101.1819992  32.7254990  68.7759997 102.4359992  34.3574990  69.3689997
 103.2589992  33.9454990  69.9909997 102.8549992  34.3414990  68.3399997
 102.3139992  35.8244990  69.8899997 101.5809992  36.3804990  69.2669997
 102.0169992  35.8104990  70.9609997 103.6989992  36.4754990  69.8219997
 104.6689992  36.2364990  69.0729997 103.7099992  37.3314990  70.7209997
 104.8329992  38.1644990  71.0979997 105.7849992  37.7884990  70.6669997
 104.6069992  39.1534990  70.6449997 104.8059992  38.2964990  72.6269997
 105.5889992  39.0324990  72.9089997 105.2439992  36.9394990  73.3539997
 106.0499992  36.4684990  72.7509997 105.6639992  37.1484990  74.3609997
 104.1849992  36.0184990  73.4569997 104.5009992  34.5394990  74.0729997
 103.4139992  34.4224990  75.1899997 103.2619992  35.3254990  76.2719997
 102.9139992  34.6894990  77.1139997 104.1629992  35.9564990  76.4279997
 102.0359992  36.2954990  75.9789997 101.9309992  36.9714990  76.8149997
 102.3059992  36.9164990  75.1379997 100.6969992  35.8894990  75.5489997
 100.2919992  34.6984990  76.3769997  99.3339992  34.4414990  75.9499997
 101.0079992  33.8954990  76.2749997 100.1249992  35.0264990  77.3929997
  99.8039992  37.0274990  75.7979997  99.7779992  37.0584990  76.8779997
 100.3069992  37.8934990  75.3939997  98.7929992  36.9334990  75.4299997
 100.7479992  35.5394990  74.0439997  99.7659992  35.2074990  73.7389997
 101.4199992  34.7414990  73.7649997 101.1429992  36.4134990  73.5469997
 104.1669992  33.4644990  73.0499997 105.8049992  34.4794990  74.6829997
 103.5249992  38.8374990  72.9839997 103.3199992  39.4004990  74.1439997
 104.0959992  39.5744990  75.0399997 101.9119992  40.0664990  74.1019997
 102.0759992  41.0624990  73.6379997 101.5179992  40.2274990  75.1279997
 100.8479992  39.2894990  73.2549997  99.8729992  39.4764990  73.7539997
 100.9689992  38.1934990  73.3909997 100.8629992  39.6804990  71.7819997
 101.9479992  39.5884990  71.5609997 100.7059992  40.7544990  71.5429997
  99.8739992  38.8614990  70.7999997  98.8379992  38.9714990  71.1859997
 100.1499992  37.7874990  70.8819997  99.9559992  39.4004990  69.4099997
  99.6559992  40.4694990  69.3989997  99.2709992  38.8994990  68.6929997
 101.3699992  39.3614990  68.8359997 101.9009992  38.4094990  69.0529997
 101.8929992  40.1854990  69.3669997 101.4819992  39.5034990  67.3269997
 100.7389992  40.2984990  67.1019997 101.0859992  38.6224990  66.7799997
 102.8349992  39.9184990  66.7109997 103.0679992  40.9914990  66.6429997
 103.7939992  39.1304990  66.1769997 104.7389992  39.6084990  65.8779997
 103.7679992  37.6994990  66.0399997 102.7439992  37.3204990  66.2419997
 104.5479992  37.2464990  66.6889997 104.0829992  37.0824990  64.6589997
 103.3889992  37.6344990  63.9899997 103.7719992  36.0174990  64.7249997
 105.5359992  37.3464990  64.2169997 106.2939992  37.0234990  64.9619997
 105.6429992  38.4504990  64.2839997 105.9329992  37.0704990  62.7819997
 105.9239992  35.9624990  62.7129997 106.9679992  37.4524990  62.6509997
 104.9549992  37.7464990  61.8069997 104.5589992  38.6984990  62.2189997
 104.1059992  37.0374990  61.6999997 105.5739992  38.0344990  60.4229997
 105.8539992  37.0974990  59.8959997 106.4089992  38.7444990  60.6029997
 104.7339992  39.0144990  59.5079997 104.3139992  39.7734990  60.2029997
 103.7759992  38.5444990  59.1989997 105.4649992  39.6864990  58.3699997
 104.7179992  40.2634990  57.7829997 105.9199992  38.9574990  57.6659997
 106.2099992  40.3964990  58.7879997  44.8769992 111.3484990  54.4699997
  45.5129992 110.6934990  53.8359997  45.4329992 112.3074990  54.4019997
  43.8469992 111.4694990  54.0719997  44.9639992 110.9324990  55.9319997
  44.4629992 109.9414990  55.9029997  46.0629992 110.8164990  56.0449997
  44.3129992 111.9644990  56.8439997  44.6839992 112.9644990  56.5359997
  43.2329992 111.9384990  56.5809997  44.3199992 111.6574990  58.2919997
  43.9419992 110.6434990  58.5439997  45.3599992 111.7554990  58.6699997
  43.4089992 112.6554990  59.0679997  43.7129992 113.7084990  58.8839997
  42.3449992 112.5244990  58.7769997  43.4489992 112.3964990  60.5879997
  44.5509992 112.3494990  60.7179997  43.0869992 113.3154990  61.0969997
  42.6609992 111.2324990  61.1699997  41.5509992 111.2764990  61.1579997
  42.7999992 110.5154990  60.3329997  43.1019992 110.6224990  62.5079997
  42.7809992 109.5604990  62.5769997  44.2019992 110.7344990  62.6189997
  42.4649992 111.3674990  63.7109997  42.8589992 112.3944990  63.5529997
  41.3569992 111.3344990  63.7769997  43.0459992 111.0114990  65.0589997
  42.4319992 110.1504990  65.3979997  44.0749992 110.6194990  64.9089997
  43.1659992 112.0504990  66.1629997  43.8709992 111.6674990  66.9309997
  43.8049992 112.8174990  65.6739997  41.9099992 112.8044990  66.6319997
  42.3709992 113.7724990  66.9249997  41.1969992 112.9174990  65.7859997
  41.1309992 112.1944990  67.8469997  40.0599992 112.1874990  67.5539997
  41.4869992 111.1554990  68.0099997  41.1429992 112.9644990  69.1499997
  40.8909992 114.0274990  68.9469997  40.4099992 112.5084990  69.8489997
  42.5389992 113.0884990  69.7899997  43.3229992 113.1644990  69.0059997
  42.5669992 113.9504990  70.4909997  42.9019992 111.7794990  70.6279997
  42.4119992 110.6774990  70.6069997  44.0569992 112.0404990  71.2399997
  44.6449992 110.9354990  72.0199997  43.9519992 110.4604990  72.7469997
  44.7409992 110.1634990  71.2269997  46.0239992 111.3034990  72.6299997
  46.4009992 110.3674990  73.0949997  45.8949992 112.3014990  73.7309997
  44.8339992 112.5834990  73.8999997  46.2419992 111.7104990  74.6049997
  46.7159992 113.4514990  73.6009997  46.2319992 114.8464990  73.0489997
  45.2979992 115.4694990  74.1739997  45.8139992 115.6624990  75.4639997
  46.8859992 115.9384990  75.5489997  45.3549992 116.5384990  75.9709997
  45.4819992 114.3874990  76.3399997  45.8459992 113.6464990  75.6429997
  46.0809992 114.3434990  77.2369997  44.0689992 114.1224990  76.6909997
  43.1189992 114.2494990  75.5009997  42.0689992 114.2274990  75.7549997
  43.2939992 115.1664990  74.9569997  43.3849992 113.4224990  74.8589997
  43.8159992 112.7744990  77.2499997  42.7549992 112.7504990  77.4459997
  44.0399992 112.0624990  76.4689997  44.3239992 112.6614990  78.1959997
  43.6239992 115.2394990  77.5749997  42.5849992 115.2474990  77.8709997
  43.6999992 116.1224990  76.9579997  44.2289992 115.3154990  78.4669997
  47.3619992 115.7444990  73.0669997  45.5779992 114.6404990  71.7609997
  46.9139992 111.7554990  71.5019997  47.2819992 110.7684990  70.6579997
  47.0939992 109.5624990  70.7709997  48.0739992 111.5144990  69.5469997
  49.1219992 111.1894990  69.3739997  48.1619992 112.5824990  69.8399997
  47.2849992 111.4094990  68.1799997  47.7009992 112.2084990  67.5309997
  46.1779992 111.4374990  68.2629997  47.5879992 110.0574990  67.4259997
  47.0589992 109.2014990  67.8949997  48.6649992 109.7874990  67.3949997
  47.3049992 110.3874990  65.9749997  46.2569992 110.7264990  65.8319997
  47.2489992 109.3934990  65.4819997  48.2159992 111.2644990  65.2399997
  49.2469992 110.8484990  65.2299997  48.2869992 112.2714990  65.7029997
  47.8479992 111.6004990  63.8329997  47.0709992 112.3934990  63.8719997
  47.4029992 110.7234990  63.3169997  49.1379992 111.9504990  63.0229997
  48.7559992 112.2944990  62.0379997  49.7079992 111.0164990  62.8309997
  50.0219992 112.9564990  63.6259997  50.6999992 112.5534990  64.3939997
  50.0619992 114.2074990  63.3399997  50.8509992 114.7064990  63.9209997
  49.1439992 114.9674990  62.4119997  48.7589992 115.8144990  63.0189997
  48.3909992 114.2864990  61.9599997  50.1449992 115.4814990  61.2869997
  50.6819992 114.5884990  60.9009997  50.8439992 116.2574990  61.6639997
  49.3339992 116.1604990  60.1289997  48.4799992 116.7504990  60.5249997
  48.8769992 115.4504990  59.4079997  50.0769992 117.2544990  59.2869997
  51.0209992 116.8114990  58.9049997  50.3449992 118.0714990  59.9899997
  49.2309992 117.7164990  58.1189997  49.6869992 118.6634990  57.7569997
  48.2289992 118.1414990  58.3439997  49.0969992 116.6794990  57.0059997
  48.4989992 115.8254990  57.3889997  50.0909992 116.2694990  56.7239997
  48.3479992 117.3104990  55.8379997  48.4309992 118.3744990  55.5269997
  47.3189992 117.1864990  56.2359997  48.3859992 116.5984990  54.5589997
  47.9509992 115.5864990  54.7009997  49.4359992 116.5024990  54.2099997
  47.9289992 117.2434990  53.7789997  73.6629992 123.8354990  55.9249997
  74.0379992 122.7974990  56.0589997  73.5739992 124.1114990  54.8519997
  72.6819992 123.9174990  56.4399997  74.7539992 124.6814990  56.5859997
  75.7449992 124.5034990  56.1169997  74.4839992 125.7444990  56.4089997
  74.8859992 124.3914990  58.0879997  73.8659992 124.3964990  58.5269997
  75.2469992 123.3794990  58.3709997  75.6309992 125.5064990  58.8359997
  76.5579992 125.6624990  58.2449997  75.1789992 126.4924990  58.5969997
  75.7729992 125.2964990  60.3429997  74.7869992 125.1634990  60.8379997
  76.3699992 124.3614990  60.4009997  76.5159992 126.4904990  60.8979997
  77.4839992 126.6674990  60.3819997  75.8109992 127.3254990  60.6989997
  76.8669992 126.3264990  62.3619997  75.9459992 126.0054990  62.8919997
  77.6349992 125.5494990  62.5659997  77.2919992 127.5584990  63.0549997
  78.2189992 127.9014990  62.5489997  76.5459992 128.3614990  62.8689997
  77.6189992 127.3584990  64.5459997  78.4569992 126.6344990  64.6359997
  77.8529992 128.3804990  64.9129997  76.4779992 126.7424990  65.3449997
  75.5079992 127.2414990  65.1319997  76.3169992 125.6844990  65.0469997
  76.7229992 126.7684990  66.8839997  77.5849992 126.0874990  67.0549997
  76.8859992 127.8014990  67.2599997  75.5639992 126.1254990  67.6949997
  75.4119992 125.0894990  67.3259997  75.7889992 125.9954990  68.7749997
  74.2489992 126.8334990  67.5979997  74.5389992 127.8464990  67.9489997
  73.8719992 126.9674990  66.5619997  73.1249992 126.1164990  68.3779997
  72.8209992 125.2564990  67.7439997  73.5809992 125.7264990  69.3129997
  71.8069992 126.8424990  68.5049997  71.8669992 127.7994990  69.0649997
  71.4939992 127.1194990  67.4759997  70.6929992 125.9544990  69.1849997
  70.2479992 124.9184990  68.6749997  70.4269992 126.4514990  70.3709997
  69.7449992 125.6194990  71.3389997  68.8939992 126.1784990  71.7829997
  69.3809992 124.6974990  70.8359997  70.6919992 125.2664990  72.5909997
  70.2179992 124.4754990  73.2099997  70.9739992 126.4504990  73.4619997
  70.3579992 127.3004990  73.0999997  70.5909992 126.2834990  74.4909997
  72.3209992 126.7914990  73.3719997  73.2469992 127.4514990  74.4129997
  73.7509992 126.2564990  75.3049997  73.9099992 124.9714990  74.7479997
  73.0079992 124.3234990  74.7729997  74.1309992 124.9744990  73.6589997
  75.1109992 124.4034990  75.6189997  74.7989992 124.2944990  76.6469997
  75.2239992 123.4004990  75.2349997  76.3969992 124.9744990  75.5349997
  76.8629992 125.0854990  74.0839997  76.5109992 126.0174990  73.6669997
  77.9299992 125.2514990  74.0849997  76.6569992 124.2124990  73.4829997
  76.5189992 126.2614990  76.2109997  75.9589992 126.9814990  75.6319997
  76.0419992 126.0734990  77.1609997  77.5719992 126.4654990  76.0799997
  77.3399992 123.9654990  76.1169997  77.3409992 123.0254990  75.5859997
  76.9919992 123.8604990  77.1339997  78.3279992 124.4024990  76.1509997
  74.4029992 128.0774990  73.6819997  72.5339992 128.3224990  75.3859997
  71.9949992 124.6624990  72.0979997  71.8949992 123.6054990  71.3669997
  70.9239992 122.8874990  71.2069997  73.3019992 123.1704990  70.8209997
  73.7469992 122.7124990  71.7289997  73.8289992 124.0344990  70.3619997
  73.0999992 122.1004990  69.7769997  72.6519992 122.6814990  68.9429997
  72.4099992 121.2764990  70.0579997  74.4669992 121.5334990  69.3149997
  74.7159992 120.8804990  70.1789997  75.2099992 122.3594990  69.3239997
  74.4909992 120.7824990  67.9309997  73.6949992 120.0104990  68.0059997
  75.5359992 120.4934990  67.6869997  74.1949992 121.7864990  66.8099997
  74.7209992 122.7554990  66.9459997  73.1079992 121.9984990  66.7289997
  74.6849992 121.2994990  65.4449997  74.1529992 120.3434990  65.2469997
  75.7629992 121.0364990  65.4009997  74.5089992 122.3814990  64.3859997
  74.9039992 121.9994990  63.4209997  75.0549992 123.3134990  64.6439997
  73.0689992 122.7474990  64.0779997  72.5819992 121.9674990  63.4739997
  72.4479992 123.9514990  64.2679997  71.3709992 123.9094990  64.0489997
  72.9699992 125.2324990  64.7569997  74.0469992 125.1194990  65.0049997
  72.4549992 125.4634990  65.7139997  72.8679992 126.5114990  63.7579997
  73.2059992 126.2224990  62.7399997  73.4059992 127.2724990  64.3619997
  71.5649992 127.2204990  63.7399997  71.1759992 127.3774990  64.7689997
  70.7519992 126.6874990  63.2029997  71.6879992 128.6504990  63.0749997
  72.7529992 128.9634990  63.0289997  71.1319992 129.3244990  63.7619997
  71.1589992 128.6704990  61.6139997  71.4139992 129.6754990  61.2129997
  70.0549992 128.5544990  61.5919997  71.8159992 127.7834990  60.5629997
  71.6029992 126.7404990  60.8799997  72.9159992 127.7474990  60.4109997
  71.1749992 128.1204990  59.1139997  71.5849992 129.1294990  58.8959997
  70.0829992 128.3284990  59.1009997  71.5579992 127.0534990  58.0999997
  71.1259992 127.2504990  57.0959997  71.2419992 126.0104990  58.3159997
  72.6539992 126.9444990  57.9509997  59.1679992 121.1094990  57.1179997
  59.6249992 121.2634990  58.1179997  59.8499992 120.7684990  56.3099997
  58.3129992 120.4004990  57.1359997  58.6299992 122.5224990  56.7849997
  59.2779992 122.9614990  55.9969997  57.5849992 122.5074990  56.4099997
  58.7099992 123.5184990  57.9909997  58.0569992 123.1454990  58.8089997
  59.7309992 123.6984990  58.3899997  58.0579992 124.8454990  57.7029997
  58.5879992 125.6054990  57.0889997  57.1619992 124.5794990  57.1039997
  57.4819992 125.6284990  58.9869997  57.1419992 126.5164990  58.4119997
  56.5329992 125.1254990  59.2699997  58.5519992 126.0594990  60.0739997
  59.2909992 125.2754990  60.3449997  59.2169992 126.8244990  59.6189997
  57.9599992 126.5634990  61.4249997  57.1839992 125.8334990  61.7399997
  58.7629992 126.5884990  62.1929997  57.3649992 127.9914990  61.4039997
  58.1939992 128.7254990  61.3189997  56.6619992 128.1274990  60.5539997
  56.6649992 128.2274990  62.6879997  56.1269992 129.1954990  62.6019997
  55.9209992 127.4064990  62.7619997  57.6069992 128.3854990  63.9319997
  58.2429992 127.4854990  64.0729997  58.2819992 129.2164990  63.6339997
  57.1049992 128.6454990  65.3539997  57.9609992 128.8414990  66.0349997
  56.4999992 129.5724990  65.2619997  56.2049992 127.4494990  65.8729997
  55.1359992 127.7284990  65.7559997  56.3619992 126.4394990  65.4389997
  56.5509992 127.2444990  67.3289997  57.6489992 127.0794990  67.3519997
  56.4429992 128.2344990  67.8209997  55.7939992 126.1144990  68.0529997
  54.7309992 126.4344990  68.0279997  55.9309992 125.2314990  67.3919997
  56.3219992 125.9754990  69.4519997  57.3389992 126.4144990  69.5379997
  55.7009992 126.7534990  69.9449997  56.0609992 124.5304990  69.9789997
  55.5989992 123.5864990  69.3079997  56.2999992 124.3944990  71.2649997
  56.7109992 122.9314990  71.4959997  56.5979992 122.9134990  72.6009997
  56.0749992 122.0844990  71.1609997  58.1679992 122.6344990  71.1449997
  58.3439992 121.5404990  71.0579997  59.1809992 123.0994990  72.1879997
  59.1129992 122.6534990  73.2029997  60.1809992 122.7104990  71.8979997
  59.0739992 124.5314990  72.3079997  60.1229992 125.2964990  73.1349997
  60.4799992 124.2924990  74.3759997  60.7329992 124.9224990  75.6209997
  61.2039992 124.1084990  76.2129997  61.5319992 125.6734990  75.4469997
  59.4929992 125.5074990  76.3439997  59.8129992 125.9534990  77.2739997
  58.9979992 126.2364990  75.7189997  58.4059992 124.4734990  76.6409997
  57.3929992 125.2614990  77.5079997  56.9549992 126.0714990  76.9439997
  56.6169992 124.6194990  77.8989997  57.7279992 125.5904990  78.4809997
  57.6309992 124.1894990  75.3919997  57.2629992 125.1334990  75.0179997
  58.2629992 123.5924990  74.7509997  56.7249992 123.6424990  75.6079997
  58.7819992 123.1764990  77.2679997  59.0979992 123.5314990  78.2379997
  59.7049992 122.8124990  76.8409997  57.9959992 122.4504990  77.4129997
  61.3449992 125.5304990  72.2519997  59.5779992 126.5444990  73.6279997
  58.6009992 123.2534990  69.9009997  59.6479992 122.8554990  69.2939997
  60.2689992 121.7984990  69.5529997  59.9889992 123.7474990  68.1009997
  60.2109992 124.7324990  68.5649997  59.1349992 123.8124990  67.3939997
  61.2929992 123.0884990  67.4609997  61.0849992 122.0044990  67.3309997
  62.2619992 123.0204990  67.9989997  61.5929992 123.6224990  66.0409997
  62.5109992 123.0554990  65.7759997  61.8099992 124.7114990  65.9989997
  60.6169992 123.0274990  64.9839997  59.6049992 123.4194990  65.2189997
  60.5449992 121.9184990  64.9759997  60.9459992 123.6374990  63.6599997
  61.0279992 124.7414990  63.5689997  60.0749992 123.3364990  63.0389997
  62.1859992 123.1094990  62.8889997  62.1839992 121.9994990  62.9509997
  63.1219992 123.4574990  63.3759997  62.3639992 123.6064990  61.4769997
  62.6119992 124.6794990  61.6199997  61.4099992 123.4944990  60.9189997
  63.5659992 122.9864990  60.8269997  64.4149992 122.9324990  61.5239997
  63.7709992 122.5394990  59.5699997  64.6729992 122.0144990  59.2229997
  62.7039992 122.6324990  58.5239997  61.6699992 122.5374990  58.9209997
  62.7409992 121.7234990  57.8849997  62.6959992 123.9134990  57.5989997
  62.4409992 124.7914990  58.2299997  61.8689992 123.8754990  56.8569997
  64.0169992 124.0324990  56.8749997  64.7989992 124.1134990  57.6599997
  63.8849992 124.8924990  56.1829997  64.3199992 122.8864990  55.8709997
  64.5329992 122.0584990  56.5789997  65.1089992 123.2404990  55.1739997
  63.1429992 122.5544990  54.9809997  62.8189992 123.4434990  54.3989997
  62.1879992 122.2584990  55.4669997  63.4189992 121.3644990  53.9999997
  63.6209992 120.5074990  54.6779997  64.3129992 121.4934990  53.3529997
  62.2009992 121.0834990  53.0729997  62.5729992 120.1624990  52.5759997
  61.8249992 121.8574990  52.3699997  60.8579992 120.6254990  53.7399997
  60.2229992 120.0124990  53.0659997  60.2639992 121.4854990  54.1169997
  61.0839992 119.9644990  54.6039997  96.9619992 116.1944990  56.1039997
  96.4279992 117.1684990  56.0879997  96.3399992 115.6494990  56.8459997
  96.8119992 115.6834990  55.1289997  98.4909992 116.2204990  56.3719997
  98.8519992 115.2264990  56.7129997  99.0109992 116.3674990  55.4009997
  98.8829992 117.2404990  57.3579997  99.9829992 117.0914990  57.2999997
  98.6179992 118.2344990  56.9389997  98.3769992 116.9764990  58.7409997
  97.2679992 116.9134990  58.7849997  98.7549992 115.9764990  59.0429997
  98.7359992 118.0494990  59.8589997  98.4249992 119.0354990  59.4519997
  98.1629992 117.8384990  60.7869997 100.1609992 118.1644990  60.2769997
 100.8739992 118.2434990  59.4289997 100.3249992 119.1414990  60.7809997
 100.6519992 117.1164990  61.2799997  99.8109992 116.9664990  61.9909997
 100.8429992 116.1344990  60.7979997 101.8519992 117.5784990  61.9849997
 102.6739992 117.6834990  61.2449997 101.7759992 118.6424990  62.2949997
 102.1959992 116.5964990  63.1029997 101.7409992 115.6244990  62.8149997
 103.2999992 116.5944990  63.2289997 101.5449992 116.8404990  64.5159997
 100.4409992 116.7174990  64.5269997 101.8889992 116.0924990  65.2619997
 101.7739992 118.1454990  65.2359997 102.8519992 118.2654990  65.4759997
 101.5889992 119.0044990  64.5559997 101.0609992 118.3014990  66.6179997
 101.5659992 119.2424990  66.9269997  99.9939992 118.3874990  66.3209997
 101.2569992 117.0604990  67.5989997 100.5739992 117.1514990  68.4699997
 100.9619992 116.0834990  67.1589997 102.7329992 116.9314990  67.9149997
 103.2839992 116.9764990  66.9519997 103.1039992 117.8394990  68.4359997
 103.0559992 115.6784990  68.7399997 102.7519992 114.7724990  68.1719997
 104.1669992 115.6844990  68.7649997 102.3259992 115.6434990  70.1169997
 101.9439992 114.6964990  70.7679997 102.2079992 116.9374990  70.5549997
 101.5109992 117.2054990  71.7859997 101.9369992 116.6774990  72.6659997
 101.7139992 118.2294990  72.1659997 100.0049992 117.2384990  71.5329997
  99.9459992 117.7264990  70.5369997  99.2569992 117.9664990  72.6889997
  99.8739992 118.8004990  73.0859997  98.3789992 118.3914990  72.1569997
  98.9269992 117.1084990  73.6889997  98.0709992 117.4524990  74.9929997
  97.8319992 116.0394990  75.7349997  97.4809992 114.8974990  74.9649997
  97.0489992 114.0814990  75.5829997  96.6699992 115.2354990  74.2849997
  98.6809992 114.2754990  74.2509997  98.2949992 113.3234990  73.9169997
  98.8939992 114.7844990  73.3229997 100.0689992 114.1264990  74.9409997
 100.7339992 115.4524990  75.0949997 100.3369992 116.0224990  75.9219997
 101.7659992 115.3444990  75.3949997 100.6989992 116.0204990  74.1769997
  99.9349992 113.5244990  76.3079997  99.2509992 114.0124990  76.9869997
  99.5709992 112.5114990  76.2189997 100.9249992 113.4844990  76.7359997
 100.8889992 113.2894990  74.0189997 100.4009992 112.3664990  73.7419997
 101.7609992 113.0414990  74.6059997 101.0889992 113.8304990  73.1059997
  98.8409992 118.3354990  75.8589997  96.7609992 117.9504990  74.6179997
  99.5559992 115.8664990  71.3639997  98.3689992 115.6454990  70.7319997
  97.5999992 116.5434990  70.4359997  98.0359992 114.2004990  70.4909997
  97.5849992 113.7284990  71.3899997  98.9659992 113.5984990  70.3989997
  97.0479992 113.9484990  69.3569997  96.0209992 114.2624990  69.6439997
  97.0349992 112.8394990  69.2919997  97.6209992 114.4904990  68.0219997
  98.4549992 113.9034990  67.5829997  97.8999992 115.5554990  68.1699997
  96.4799992 114.3204990  67.0529997  95.4849992 114.6594990  67.4129997
  96.3169992 113.2294990  66.9209997  96.8479992 114.9464990  65.6509997
  95.9829992 114.6184990  65.0359997  97.7399992 114.3954990  65.2839997
  96.9709992 116.3904990  65.6979997  97.7659992 116.7094990  66.4069997
  96.0769992 116.8324990  66.1859997  97.2779992 117.1224990  64.4289997
  98.2449992 116.8094990  63.9799997  97.5679992 118.1614990  64.6959997
  96.1269992 117.0474990  63.4619997  95.3039992 117.7244990  63.7349997
  96.0389992 116.1904990  62.4059997  95.0799992 116.2724990  61.8729997
  96.9999992 115.1814990  61.8489997  97.8149992 114.9274990  62.5609997
  97.4249992 115.5764990  60.9019997  96.3359992 113.8654990  61.3769997
  95.4569992 114.1224990  60.7489997  95.9249992 113.3444990  62.2679997
  97.2979992 112.8104990  60.7929997  96.8189992 111.8104990  60.7169997
  98.2119992 112.7164990  61.4179997  97.7559992 113.0404990  59.3559997
  98.5409992 113.8204990  59.4609997  96.9719992 113.4104990  58.6619997
  98.3179992 111.7784990  58.6369997  97.6799992 110.9444990  58.9989997
  99.3249992 111.5054990  59.0189997  98.2779992 111.8734990  57.0899997
  97.9889992 112.9354990  56.9379997  97.4939992 111.1094990  56.8969997
  99.6319992 111.5814990  56.4009997  99.3079992 111.2684990  55.3849997
 100.0009992 110.7614990  57.0539997 100.5359992 112.8204990  56.4469997
 100.1349992 113.4594990  55.6309997 101.5479992 112.5014990  56.1179997
 100.5649992 113.3964990  57.3969997  27.4129992  27.0234990  55.9669997
  27.2919992  27.0754990  54.8629997  27.3699992  25.9174990  56.0629997
  28.4609992  27.2844990  56.2279997  26.4359992  27.8214990  56.7829997
  26.7139992  28.8974990  56.7749997  25.3949992  27.6394990  56.4409997
  26.3939992  27.5364990  58.2999997  26.5409992  26.4584990  58.5269997
  27.2299992  28.1034990  58.7619997  25.1149992  28.0184990  59.1109997
  25.1909992  29.1274990  59.0849997  24.2399992  27.6704990  58.5219997
  24.9419992  27.4374990  60.5449997  25.9219992  27.3384990  61.0589997
  24.5009992  28.2654990  61.1389997  24.0029992  26.2534990  60.7189997
  23.0049992  26.5344990  60.3219997  24.4439992  25.4024990  60.1569997
  23.7809992  25.9844990  62.1699997  24.6939992  25.7394990  62.7529997
  23.2249992  26.8734990  62.5369997  22.8479992  24.7964990  62.3609997
  21.9259992  24.7754990  61.7399997  23.4269992  23.8534990  62.2679997
  22.2479992  25.0074990  63.8679997  23.1309992  25.2014990  64.5129997
  21.6269992  25.9234990  63.7729997  21.4479992  23.7834990  64.4129997
  20.3929992  23.9474990  64.1039997  21.6929992  22.7534990  64.0769997
  21.3879992  23.6394990  65.9439997  20.7229992  24.3994990  66.4079997
  20.8369992  22.6864990  66.0999997  22.7519992  23.6354990  66.7509997
  23.3439992  22.9084990  66.1539997  23.2069992  24.6404990  66.6189997
  22.6029992  23.1104990  68.1489997  21.9929992  23.8224990  68.7459997
  21.9969992  22.1834990  68.0649997  23.9429992  22.8264990  68.8079997
  24.5489992  22.0034990  68.3729997  24.5839992  23.7234990  68.6709997
  23.8129992  22.4164990  70.3169997  23.3589992  23.2914990  70.8299997
  23.1899992  21.5254990  70.5469997  25.2709992  22.2954990  70.9089997
  26.1069992  21.6194990  70.3629997  25.3289992  22.8574990  72.0819997
  26.5899992  22.7664990  72.7339997  26.5929992  22.5854990  73.8299997
  27.1209992  21.8464990  72.4079997  27.4709992  24.0404990  72.5609997
  28.4909992  23.6634990  72.7879997  27.0219992  25.1094990  73.5569997
  27.0899992  24.6664990  74.5729997  27.6049992  26.0544990  73.5309997
  25.6659992  25.3554990  73.3199997  25.0419992  26.7124990  72.8449997
  24.8799992  27.6984990  74.0719997  24.4249992  27.2324990  75.3519997
  23.5159992  27.7754990  75.6889997  23.9999992  26.2124990  75.2329997
  25.4929992  27.3424990  76.3899997  25.1389992  26.8444990  77.2809997
  26.3319992  26.7704990  76.0209997  25.9349992  28.7764990  76.8719997
  26.3499992  29.6474990  75.6929997  26.8739992  30.4964990  76.1049997
  27.0049992  29.0314990  75.0939997  25.4379992  29.9054990  75.1739997
  24.8189992  29.3414990  77.7919997  24.6759992  28.7114990  78.6579997
  25.3139992  30.2474990  78.1099997  23.8699992  29.4144990  77.2809997
  27.0679992  28.5854990  77.8549997  27.9459992  28.2404990  77.3289997
  26.8829992  27.9184990  78.6839997  27.2579992  29.5244990  78.3549997
  26.0069992  27.2904990  71.8459997  23.6259992  26.4114990  72.4339997
  27.4329992  24.5064990  71.2209997  28.5219992  25.2474990  70.7689997
  29.5889992  25.3624990  71.3529997  28.1619992  26.0214990  69.4859997
  29.1239992  26.4164990  69.0949997  27.3809992  26.7974990  69.6319997
  27.7039992  25.1894990  68.3149997  26.7519992  24.7874990  68.7209997
  28.3799992  24.3884990  67.9439997  27.1999992  26.1014990  67.1319997
  27.9749992  26.8624990  66.9009997  26.3669992  26.6044990  67.6689997
  26.6219992  25.4164990  65.8769997  25.9079992  26.0684990  65.3289997
  26.1129992  24.5144990  66.2779997  27.7939992  25.0344990  64.9619997
  28.5819992  24.5514990  65.5779997  28.2029992  25.9484990  64.4799997
  27.2989992  24.1764990  63.7899997  26.7839992  24.8964990  63.1179997
  26.4869992  23.5334990  64.1919997  28.3949992  23.5724990  62.9339997
  28.0649992  22.9884990  62.0479997  28.8739992  22.8354990  63.6129997
  29.5239992  24.4994990  62.6139997  30.4119992  24.5294990  63.2629997
  29.5329992  25.3144990  61.5909997  30.4889992  25.7754990  61.2999997
  28.4939992  25.4994990  60.5129997  28.2319992  26.5644990  60.3349997
  27.5169992  25.0364990  60.7699997  28.7969992  24.8494990  59.1499997
  28.0539992  24.8944990  58.3249997  28.9429992  23.7684990  59.3599997
  30.1789992  25.2494990  58.6109997  30.9039992  25.0974990  59.4399997
  30.2179992  26.3444990  58.4259997  30.7189992  24.4444990  57.4099997
  31.0149992  23.4084990  57.6809997  31.5759992  25.0684990  57.0789997
  29.8289992  24.3224990  56.1819997  29.3549992  25.3124990  56.0109997
  29.1209992  23.4824990  56.3439997  30.4719992  23.9264990  54.8409997
  30.9199992  22.9344990  55.0619997  31.3529992  24.5174990  54.5129997
  29.4999992  23.7004990  53.6679997  28.6499992  23.2124990  54.1909997
  29.9179992  23.0294990  52.8869997  29.0199992  24.9384990  53.0159997
  28.4299992  24.6294990  52.1269997  29.8949992  25.5374990  52.6839997
  28.3909992  25.4874990  53.7499997  38.9909992   9.7424990  57.1909997
  38.9529992   9.7254990  56.0809997  40.0259992   9.9044990  57.5609997
  38.5009992  10.6224990  57.6599997  38.3439992   8.4274990  57.8309997
  37.9089992   8.6554990  58.8279997  37.5419992   8.0544990  57.1589997
  39.4029992   7.4134990  58.3249997  38.8519992   6.4904990  58.6059997
  40.1529992   7.1904990  57.5369997  40.2249992   7.6904990  59.5649997
  40.6629992   8.7044990  59.4439997  39.5489992   7.9014990  60.4209997
  41.4129992   6.7124990  59.8999997  40.8569992   5.8584990  60.3419997
  41.8979992   6.3544990  58.9669997  42.4189992   7.2794990  60.9579997
  41.9029992   7.8454990  61.7629997  43.0919992   6.5394990  61.4399997
  43.4409992   8.3024990  60.2289997  43.9759992   7.7464990  59.4299997
  42.9209992   9.1364990  59.7119997  44.5809992   8.8624990  61.1259997
  45.2149992   8.0514990  61.5429997  45.1029992   9.6144990  60.4969997
  44.0349992   9.5234990  62.3459997  43.3659992  10.4024990  62.2269997
  43.5229992   8.7554990  62.9639997  45.1809992  10.1624990  63.2909997
  46.0299992   9.4674990  63.1109997  45.4829992  11.1864990  62.9839997
  44.7959992  10.1144990  64.8199997  44.5149992   9.0914990  65.1499997
  45.7449992  10.4454990  65.2949997  43.6449992  11.0604990  65.2469997
  43.8739992  12.1284990  65.0419997  42.7789992  10.8854990  64.5729997
  43.3089992  10.9014990  66.7399997  42.7769992   9.9274990  66.6979997
  44.2619992  10.7584990  67.2929997  42.4529992  12.0554990  67.3699997
  42.8929992  13.0654990  67.2249997  41.6339992  12.3484990  66.6789997
  41.9379992  11.8024990  68.8419997  42.7869992  11.2394990  69.2879997
  41.7409992  12.8244990  69.2289997  40.6509992  10.9654990  68.7859997
  40.0939992  10.5624990  67.8129997  40.2569992  10.7694990  70.0869997
  39.1889992   9.8754990  70.3069997  38.4499992  10.3604990  70.9809997
  38.5989992   9.6194990  69.4009997  39.5999992   8.4794990  70.9249997
  38.6599992   7.8894990  70.9749997  40.1239992   8.6504990  72.3239997
  39.2959992   9.1194990  72.8969997  40.1559992   7.6444990  72.7949997
  41.3609992   9.3624990  72.1789997  42.5379992   9.1984990  73.3099997
  41.9209992   9.9494990  74.5349997  41.7129992   9.3804990  75.8219997
  41.7909992   8.2724990  75.8609997  42.4719992   9.8434990  76.4879997
  40.4029992   9.8824990  76.4429997  39.6099992   9.3214990  75.9719997
  40.5169992   9.5024990  77.4479997  40.0389992  11.3184990  76.4289997
  38.7629992  11.5804990  77.2179997  37.9689992  11.0034990  76.7679997
  38.7969992  11.4004990  78.2819997  38.4539992  12.6084990  77.1009997
  41.1249992  12.1834990  77.1039997  41.0259992  12.0184990  78.1669997
  42.0809992  11.8724990  76.7089997  40.9669992  13.2494990  77.0299997
  39.9899992  11.8374990  74.9939997  39.4979992  12.7984990  74.9779997
  39.6039992  11.0304990  74.3889997  41.0259992  11.8514990  74.6899997
  42.6779992   7.7434990  73.5999997  43.7209992   9.9784990  72.8379997
  40.6289992   7.9214990  70.0919997  40.4699992   6.7854990  69.5529997
  39.5269992   5.9944990  69.8149997  41.4849992   6.6384990  68.4149997
  42.1029992   5.7624990  68.7069997  42.1429992   7.4474990  68.0309997
  40.8539992   6.2014990  66.9949997  39.9869992   5.5304990  67.1739997
  41.6419992   5.6534990  66.4339997  40.3809992   7.3304990  66.1119997
  41.2469992   8.0254990  66.1199997  39.5449992   7.8464990  66.6319997
  39.9679992   6.8534990  64.6889997  39.4879992   5.8744990  64.9059997
  40.8369992   6.7434990  64.0049997  38.8609992   7.7524990  64.0209997
  38.0249992   7.7864990  64.7519997  38.5019992   7.1834990  63.1369997
  39.3199992   9.1654990  63.6539997  40.3079992   9.0924990  63.1519997
  39.4579992   9.7664990  64.5779997  38.3829992   9.9324990  62.6819997
  37.3649992   9.9134990  63.1279997  38.4389992   9.4874990  61.6649997
  38.6219992  11.4064990  62.5219997  38.0039992  12.1014990  63.1079997
  39.4409992  12.0264990  61.6709997  39.6719992  13.0934990  61.8049997
  40.3429992  11.3504990  60.6309997  39.7499992  11.3864990  59.6909997
  40.4229992  10.2564990  60.8099997  41.7079992  12.0314990  60.5009997
  42.5159992  11.2764990  60.3919997  41.9499992  12.5964990  61.4259997
  41.6329992  12.9994990  59.3199997  40.9039992  13.7794990  59.6299997
  41.2819992  12.3944990  58.4569997  42.9499992  13.6694990  58.9339997
  43.3999992  14.2624990  59.7589997  42.6449992  14.2844990  58.0599997
  44.0209992  12.7724990  58.3449997  44.4489992  12.3244990  59.2679997
  44.7159992  13.4844990  57.8529997  43.4889992  11.7304990  57.3239997
  42.9119992  12.2704990  56.5429997  42.7299992  11.0084990  57.6939997
  44.6619992  10.9794990  56.5659997  45.0399992  10.2704990  57.3329997
  45.2859992  11.8624990  56.3099997  44.3189992  10.0954990  55.4039997
  43.5549992   9.4134990  55.8329997  45.1889992   9.5474990  54.9829997
  43.9479992  10.7984990  54.6269997  51.1189992   2.7774990  53.7529997
  50.0649992   2.6584990  54.0839997  51.7039992   2.8234990  54.6959997
  51.3389992   1.9264990  53.0719997  51.2269992   4.0724990  52.9349997
  52.0539992   3.9254990  52.2069997  50.2779992   4.0774990  52.3579997
  51.4359992   5.4074990  53.6529997  51.5129992   6.1794990  52.8569997
  50.5029992   5.4984990  54.2499997  52.6249992   5.5404990  54.5939997
  52.7189992   4.5664990  55.1199997  53.5469992   5.7074990  53.9969997
  52.5039992   6.7744990  55.5249997  53.4799992   6.9284990  56.0339997
  52.1879992   7.6604990  54.9329997  51.5339992   6.5534990  56.7389997
  50.6119992   7.1664990  56.6469997  51.1679992   5.5074990  56.6599997
  52.1379992   6.9624990  58.1119997  52.8329992   6.1424990  58.3899997
  52.6409992   7.9484990  58.0159997  51.1949992   6.7934990  59.3979997
  50.1189992   6.9394990  59.1639997  51.2939992   5.7284990  59.6989997
  51.7399992   7.6254990  60.6339997  52.8469992   7.6834990  60.6989997
  51.2869992   8.6374990  60.5589997  51.2899992   6.9514990  62.0079997
  50.1929992   6.8624990  62.1579997  51.6539992   5.9024990  62.0429997
  51.9459992   7.7994990  63.1269997  53.0529992   7.8844990  63.0809997
  51.5869992   8.8514990  63.1099997  51.7819992   7.2834990  64.5749997
  52.0969992   8.1494990  65.1969997  50.7159992   7.0904990  64.8179997
  52.5559992   5.9414990  64.7449997  52.3329992   5.1824990  63.9639997
  53.5719992   6.3534990  64.5649997  52.5159992   5.2994990  66.0849997
  53.1339992   4.3924990  65.9109997  53.1689992   5.9344990  66.7219997
  51.1489992   5.0894990  66.8019997  50.6519992   6.0694990  66.9609997
  50.5269992   4.5574990  66.0499997  51.1539992   4.2624990  68.0659997
  51.9769992   3.3964990  68.4159997  50.2159992   4.7124990  68.8549997
  50.2769992   4.1744990  70.1989997  49.2529992   4.1964990  70.6279997
  50.4759992   3.0814990  70.1729997  51.2069992   4.9754990  71.1829997
  52.2559992   4.6844990  70.9639997  50.9979992   4.3904990  72.6679997
  51.1169992   3.2894990  72.5779997  51.7889992   4.9174990  73.2429997
  49.7369992   4.8164990  73.1929997  49.3059992   4.1274990  74.5329997
  49.2369992   5.1924990  75.6819997  50.2729992   6.1414990  75.7609997
  50.3729992   6.3424990  76.8489997  51.2829992   5.7474990  75.5169997
  50.0709992   7.4394990  75.0289997  50.9099992   8.1184990  74.9869997
  50.0669992   7.1504990  73.9889997  48.8919992   8.3164990  75.2629997
  47.7149992   7.4774990  74.8649997  47.8899992   6.9574990  73.9339997
  47.7289992   6.7224990  75.6369997  46.7859992   8.0264990  74.8369997
  48.9039992   8.6244990  76.6669997  48.6239992   7.6884990  77.1269997
  49.9529992   8.8454990  76.8029997  48.2659992   9.4344990  76.9869997
  49.1139992   9.5554990  74.3589997  48.1779992  10.0364990  74.1129997
  49.5519992   9.2244990  73.4279997  49.7429992  10.2894990  74.8389997
  47.8989992   3.5944990  74.2939997  50.3229992   3.1284990  74.8279997
  50.9759992   6.4054990  71.2449997  51.7469992   7.1134990  70.4619997
  52.7069992   6.7074990  69.8019997  51.4499992   8.5344990  70.6729997
  52.4119992   9.0434990  70.4499997  51.1589992   8.8104990  71.7089997
  50.5039992   8.8974990  69.4789997  51.0599992   8.8254990  68.5199997
  50.2669992   9.9764990  69.5989997  49.1709992   8.1724990  69.3869997
  48.7149992   8.2454990  70.3979997  49.3679992   7.1084990  69.1379997
  48.2099992   8.5874990  68.2519997  47.7299992   9.5304990  68.5899997
  47.3909992   7.8384990  68.2979997  48.8319992   8.8524990  66.8939997
  49.3849992   7.9544990  66.5439997  49.5729992   9.6794990  66.8679997
  47.7979992   9.2044990  65.7979997  48.4559992   9.3094990  64.9089997
  47.2329992  10.1344990  66.0239997  46.7579992   8.0894990  65.5339997
  46.0609992   8.5964990  64.8329997  46.2259992   7.8564990  66.4809997
  47.3889992   6.8334990  64.9869997  47.9639992   6.2594990  65.7289997
  47.4459992   6.3754990  63.7539997  47.8419992   5.3504990  63.7139997
  46.8269992   6.9634990  62.4899997  46.0639992   7.7664990  62.5739997
  46.4409992   6.0894990  61.9229997  47.7529992   7.6584990  61.4439997
  48.2509992   6.7814990  60.9779997  48.4489992   8.3524990  61.9629997
  47.0829992   8.4174990  60.3939997  47.7669992   9.1604990  59.9309997
  46.1929992   8.9244990  60.8249997  46.3979992   7.5774990  59.3339997
  45.6629992   8.2634990  58.8589997  45.8099992   6.7384990  59.7629997
  47.3499992   7.1614990  58.1319997  47.9949992   6.3474990  58.5259997
  48.0239992   8.0124990  57.8939997  46.6519992   6.4274990  57.0019997
  45.6939992   6.8514990  56.6319997  46.3769992   5.3984990  57.3199997
  47.6019992   6.2414990  55.7439997  47.2419992   5.5094990  54.9899997
  48.4679992   5.7234990  56.2079997  47.8619992   7.5244990  55.0709997
  48.2949992   8.2994990  55.7379997  46.9129992   7.9594990  54.6889997
  48.5389992   7.3634990  54.2049997  26.5559992  86.2714990  56.6789997
  27.4219992  86.9614990  56.7739997  26.9799992  85.3284990  56.2709997
  26.2209992  86.0134990  57.7059997  25.5529992  86.7884990  55.6579997
  26.1149992  87.2454990  54.8149997  25.0569992  85.8604990  55.3019997
  24.6259992  87.8234990  56.1889997  24.0759992  87.4244990  57.0679997
  25.0499992  88.7414990  56.6499997  23.4829992  88.1654990  55.2289997
  23.9749992  88.6124990  54.3389997  22.8799992  87.2944990  54.8979997
  22.4129992  89.2514990  55.7359997  22.8369992  90.2734990  55.8409997
  21.5299992  89.2834990  55.0619997  21.7419992  88.9724990  57.1359997
  22.5469992  88.9904990  57.9009997  21.0149992  89.7784990  57.3729997
  20.9919992  87.6214990  57.4099997  20.1769992  87.4124990  56.6839997
  21.6799992  86.7494990  57.4209997  20.3039992  87.5684990  58.7939997
  19.3679992  88.1644990  58.7409997  19.9509992  86.5314990  58.9779997
  21.0439992  88.0794990  59.9519997  21.4319992  89.0724990  59.6379997
  20.3009992  88.3274990  60.7399997  22.1889992  87.1464990  60.4009997
  22.9279992  86.8864990  59.6129997  22.7909992  87.6754990  61.1709997
  21.7069992  85.7564990  60.8899997  20.6729992  85.9234990  61.2599997
  21.7179992  84.9504990  60.1259997  22.5669992  85.3174990  62.0849997
  22.2169992  84.3284990  62.4509997  23.6399992  85.2954990  61.7979997
  22.3659992  86.1414990  63.3879997  22.6819992  87.1954990  63.2349997
  21.2809992  86.1814990  63.6259997  23.2899992  85.6584990  64.5079997
  22.8979992  84.6264990  64.6269997  24.3579992  85.7724990  64.2219997
  23.0809992  86.4924990  65.8139997  23.5229992  87.5114990  65.8009997
  22.0009992  86.6874990  65.9839997  23.6269992  85.7824990  67.0559997
  23.7039992  84.6094990  67.2059997  24.1109992  86.7694990  67.9609997
  24.9769992  86.1884990  69.0319997  24.3459992  85.4824990  69.6129997
  25.8259992  85.6044990  68.6169997  25.4449992  87.1354990  70.1389997
  26.1929992  86.6324990  70.7889997  24.2749992  87.5604990  71.0629997
  23.3459992  87.9144990  70.5679997  23.8829992  86.7824990  71.7529997
  24.6679992  88.6154990  71.8829997  25.4719992  88.5084990  73.2389997
  24.9429992  89.6234990  74.0919997  23.4949992  89.7294990  74.2519997
  22.9949992  90.2004990  73.3789997  22.9839992  88.7444990  74.2939997
  23.0409992  90.5674990  75.4329997  23.3649992  91.5824990  75.2529997
  21.9659992  90.5744990  75.5389997  23.5299992  90.1764990  76.8209997
  25.0269992  90.4494990  76.9509997  25.5139992  90.1414990  77.8639997
  25.5829992  89.9194990  76.1919997  25.2249992  91.5014990  76.8099997
  22.7389992  90.8554990  77.9319997  22.9969992  90.4514990  78.8999997
  22.9999992  91.8924990  78.0779997  21.6809992  90.8354990  77.7199997
  23.2409992  88.7234990  77.0489997  23.3379992  88.5354990  78.1079997
  24.0239992  88.1584990  76.5649997  22.2659992  88.4244990  76.6929997
  25.2289992  87.1784990  73.9089997  26.8649992  88.8924990  72.9119997
  26.1379992  88.3454990  69.5829997  27.4339992  88.3944990  69.5289997
  28.2139992  87.5064990  69.8149997  27.8269992  89.8504990  69.1999997
  28.9179992  90.0604990  69.1989997  27.3509992  90.5144990  69.9529997
  27.2959992  90.2664990  67.8469997  27.8539992  91.1984990  67.6119997
  26.1939992  90.4034990  67.8849997  27.5239992  89.2064990  66.7089997
  27.2029992  88.1854990  67.0099997  28.6099992  89.1794990  66.4799997
  26.7719992  89.3734990  65.3979997  27.0609992  90.3344990  64.9229997
  25.6839992  89.2674990  65.5959997  27.2419992  88.3724990  64.3739997
  26.7989992  87.3994990  64.6789997  28.3469992  88.2764990  64.3079997
  26.6149992  88.7484990  63.0419997  26.9039992  89.7384990  62.6289997
  25.5599992  88.7234990  63.3889997  26.8869992  87.8794990  61.8689997
  27.0239992  86.8154990  62.1589997  27.9139992  88.1294990  61.5259997
  25.9349992  87.9444990  60.7059997  25.1809992  87.1514990  60.8099997
  25.9419992  88.9134990  59.7129997  25.2699992  88.8864990  58.8429997
  26.9379992  90.0394990  59.6849997  27.4029992  90.0664990  58.6769997
  27.8479992  89.8984990  60.3059997  26.3919992  91.5434990  59.8209997
  27.2189992  92.2474990  60.0539997  25.5449992  91.5464990  60.5399997
  25.8249992  92.2404990  58.5179997  25.0739992  93.0194990  58.7699997
  25.2779992  91.5094990  57.8849997  26.8489992  92.9474990  57.5819997
  27.5459992  92.2324990  57.0939997  27.4779992  93.6504990  58.1699997
  26.0819992  93.6824990  56.3939997  26.7709992  94.4754990  56.0329997
  25.2429992  94.2324990  56.8719997  25.7419992  92.8124990  55.1179997
  25.2569992  93.5264990  54.4189997  25.0709992  91.9804990  55.4179997
  26.9999992  92.3044990  54.5069997  27.5499992  91.4944990  55.0319997
  27.5669992  93.2514990  54.3839997  26.7779992  91.7264990  53.0969997
  26.6649992  90.6234990  53.1759997  27.6649992  91.8664990  52.4419997
  25.8959992  92.1754990  52.5929997 128.2349992  76.7864990  56.9649997
 129.1839992  76.3674990  56.5669997 128.5719992  77.2344990  57.9239997
 128.0349992  77.6164990  56.2539997 127.1269992  75.7794990  57.2499997
 126.7079992  75.3664990  56.3079997 127.3679992  74.9434990  57.9409997
 125.8709992  76.4254990  57.9339997 125.5689992  77.3344990  57.3729997
 125.1659992  75.5714990  57.8469997 126.1709992  76.7994990  59.4059997
 126.8769992  76.0604990  59.8429997 126.6829992  77.7804990  59.5019997
 124.9459992  76.9044990  60.2919997 124.7979992  77.9884990  60.4819997
 124.0599992  76.6414990  59.6759997 124.8889992  75.9584990  61.4919997
 123.9599992  76.3494990  61.9609997 124.7429992  74.9394990  61.0769997
 126.0659992  75.9594990  62.4779997 126.8859992  75.5224990  61.8699997
 126.4699992  76.9644990  62.7259997 125.9039992  75.0444990  63.7099997
 125.3379992  75.5974990  64.4899997 125.1669992  74.2734990  63.3999997
 127.2299992  74.5384990  64.4109997 126.9259992  73.6424990  64.9929997
 128.0489992  74.4214990  63.6699997 127.7639992  75.5894990  65.4149997
 127.9199992  76.6074990  64.9989997 127.0159992  75.8034990  66.2079997
 129.0979992  75.2064990  66.0279997 128.9279992  74.2714990  66.6039997
 129.8389992  74.9644990  65.2359997 129.8029992  76.1984990  66.8959997
 130.5989992  75.7384990  67.5199997 130.2339992  77.0274990  66.2949997
 128.9229992  76.7754990  68.0029997 128.3269992  77.5354990  67.4529997
 128.2599992  75.9494990  68.3369997 129.6549992  77.4764990  69.1829997
 130.3379992  76.6524990  69.4809997 130.1129992  78.3574990  68.6839997
 128.8039992  77.7724990  70.4089997 128.2679992  76.8244990  70.6279997
 129.5289992  77.9934990  71.2219997 127.7609992  78.8254990  70.2909997
 127.4309992  79.2484990  69.1799997 127.3299992  79.1644990  71.5139997
 126.3559992  80.2274990  71.4869997 126.5609992  80.9554990  72.3009997
 126.4679992  80.9134990  70.6199997 124.9879992  79.6004990  71.5809997
 124.3309992  80.4924990  71.6589997 124.8909992  78.6554990  72.7699997
 125.1859992  79.2134990  73.6839997 123.8369992  78.3094990  72.7079997
 125.8089992  77.5824990  72.6019997 125.3479992  76.1524990  73.0349997
 124.7929992  76.4504990  74.4939997 125.6499992  76.7864990  75.5279997
 126.7319992  76.7294990  75.2829997 125.3569992  77.8234990  75.7979997
 125.4199992  75.9484990  76.8499997 126.0509992  76.3344990  77.6369997
 124.3839992  75.9684990  77.1529997 125.7299992  74.4654990  76.6989997
 124.5329992  73.8874990  76.0179997 124.5499992  74.2954990  75.0179997
 124.6799992  72.8314990  75.8469997 123.5769992  74.0904990  76.4769997
 127.0349992  74.1254990  76.0049997 126.9169992  74.3074990  74.9469997
 127.8719992  74.5724990  76.5209997 127.2119992  73.0654990  76.1069997
 125.6609992  73.8204990  78.0289997 124.7209992  74.1204990  78.4669997
 126.4949992  74.2534990  78.5619997 125.8209992  72.7624990  77.8789997
 124.2149992  75.8104990  72.1299997 126.5429992  75.2584990  73.0839997
 124.7719992  78.8964990  70.3229997 123.5539992  78.4374990  69.9979997
 122.5329992  78.5684990  70.6709997 123.7189992  77.7034990  68.6299997
 122.7499992  77.2404990  68.3459997 124.4939992  76.9094990  68.6929997
 124.0689992  78.6564990  67.4709997 125.0129992  79.1134990  67.8369997
 123.3519992  79.5034990  67.4169997 124.3809992  77.9884990  66.0339997
 123.4749992  77.4314990  65.7119997 125.3099992  77.3814990  66.0849997
 124.5739992  79.0134990  64.8669997 125.2779992  78.6864990  64.0719997
 125.1119992  79.8344990  65.3859997 123.2569992  79.4374990  64.2319997
 122.6219992  79.7894990  65.0729997 122.7979992  78.5004990  63.8509997
 123.4219992  80.5304990  63.0709997 123.9499992  80.1324990  62.1779997
 124.0509992  81.3334990  63.5109997 122.0519992  80.9804990  62.4649997
 121.2889992  81.1414990  63.2559997 121.6039992  80.1174990  61.9279997
 122.3279992  82.1564990  61.6879997 122.6209992  82.9744990  62.3619997
 122.3289992  82.3684990  60.3329997 122.4339992  83.3394990  59.8259997
 122.0339992  81.2364990  59.3449997 121.0059992  81.3824990  58.9499997
 122.1419992  80.2194990  59.7779997 122.8689992  81.2694990  58.0809997
 122.6229992  82.2534990  57.6259997 122.4699992  80.4694990  57.4219997
 124.4129992  81.1864990  58.1199997 124.6529992  80.2064990  58.5839997
 124.6859992  82.0564990  58.7539997 125.1409992  81.4674990  56.8029997
 126.2389992  81.6334990  56.8469997 124.5879992  82.3484990  56.4109997
 125.0169992  80.2414990  55.9369997 123.9619992  80.1114990  55.6129997
 125.3249992  79.3164990  56.4689997 125.7979992  80.3254990  54.7139997
 126.8129992  80.7294990  54.9169997 125.2499992  80.9874990  54.0099997
 126.0469992  78.9644990  53.9819997 125.0659992  78.5594990  53.6549997
 126.4599992  78.2964990  54.7669997 127.1509992  79.0104990  52.9069997
 127.4569992  77.9474990  52.7939997 128.0589992  79.5134990  53.3029997
 126.7399992  79.4924990  51.9939997 107.7869992 104.4524990  57.6989997
 107.1819992 103.7964990  58.3609997 108.0979992 103.8174990  56.8429997
 107.2269992 105.3414990  57.3369997 109.0639992 104.9314990  58.4379997
 109.6439992 104.0474990  58.7789997 109.7019992 105.3064990  57.6089997
 108.9909992 105.9994990  59.5239997 110.0339992 106.2884990  59.7779997
 108.4239992 106.8964990  59.1949997 108.3869992 105.4604990  60.9039997
 108.4289992 106.3514990  61.5669997 107.3159992 105.1944990  60.7709997
 109.1589992 104.2344990  61.4039997 109.1189992 103.3924990  60.6809997
 110.2579992 104.3994990  61.4209997 108.6549992 103.6864990  62.7429997
 109.1149992 102.7004990  62.9649997 108.9179992 104.4244990  63.5299997
 107.1199992 103.4034990  62.7809997 106.6089992 104.3884990  62.7309997
 106.7999992 102.8894990  61.8489997 106.6009992 102.4744990  63.9099997
 105.4919992 102.4464990  63.9679997 106.8929992 101.4554990  63.5769997
 107.0409992 102.7794990  65.3259997 108.1159992 103.0604990  65.3189997
 106.4659992 103.6264990  65.7579997 107.0309992 101.5284990  66.2599997
 105.9439992 101.3244990  66.3719997 107.4409992 100.5984990  65.8109997
 107.7729992 101.6984990  67.6109997 108.8619992 101.8274990  67.4279997
 107.4409992 102.5954990  68.1769997 107.6749992 100.4074990  68.3959997
 106.6129992 100.2614990  68.6869997 107.9599992  99.6044990  67.6829997
 108.4709992 100.5484990  69.7519997 109.3949992 101.0674990  69.4169997
 108.0129992 101.3084990  70.4189997 108.6569992  99.1314990  70.3909997
 107.6679992  98.6334990  70.2989997 109.2559992  98.4134990  69.7899997
 108.9129992  99.1424990  71.9269997 108.4789992 100.1064990  72.2699997
 108.3069992  98.3954990  72.4839997 110.3299992  99.0044990  72.2619997
 111.1339992  98.4694990  71.5459997 110.5049992  99.3844990  73.5559997
 111.8019992  99.3674990  74.0439997 111.9769992  98.6144990  74.8419997
 112.5209992  99.1454990  73.2279997 112.2289992 100.7834990  74.6739997
 113.2969992 100.6634990  74.9569997 111.4419992 101.1504990  75.9129997
 111.3919992 100.2414990  76.5509997 111.9659992 101.8544990  76.5939997
 110.1699992 101.6244990  75.5589997 109.3079992 102.4044990  76.6159997
 109.4589992 103.8564990  75.9629997 110.2739992 104.4004990  75.0219997
 111.0149992 105.0604990  75.5219997 110.8149992 103.6464990  74.4099997
 109.4909992 105.2224990  73.9739997 109.1669992 106.1314990  74.4599997
 110.1779992 105.6494990  73.2569997 108.1869992 104.6574990  73.3979997
 107.1059992 104.4664990  74.4389997 107.3469992 103.7234990  75.1849997
 106.7509992 105.3894990  74.8719997 106.2219992 104.0224990  74.0069997
 107.6009992 105.7124990  72.4849997 108.0389992 105.6454990  71.4999997
 106.5389992 105.5784990  72.3439997 107.8059992 106.7174990  72.8249997
 108.4529992 103.4314990  72.6309997 109.2099992 103.6104990  71.8819997
 107.5509992 103.2074990  72.0809997 108.8749992 102.7364990  73.3419997
 107.8979992 102.0174990  76.5089997 110.0679992 102.3834990  77.8749997
 112.0769992 101.8494990  73.7219997 112.9489992 102.0044990  72.7249997
 114.0539992 101.5654990  72.5819997 112.1309992 102.8554990  71.6329997
 111.4829992 103.6674990  72.0269997 111.4959992 102.0814990  71.1519997
 113.0399992 103.5244990  70.5659997 113.9899992 103.0204990  70.2859997
 113.3979992 104.5084990  70.9359997 112.2229992 103.8084990  69.2819997
 112.4709992 104.7864990  68.8159997 111.1399992 103.7634990  69.5269997
 112.4259992 102.8214990  68.1289997 111.9329992 101.8554990  68.3709997
 113.5319992 102.7654990  68.0499997 111.7759992 103.1874990  66.8189997
 110.6699992 103.1134990  66.8929997 112.0739992 102.3944990  66.1009997
 112.0219992 104.5794990  66.2769997 112.8719992 105.0444990  66.8209997
 111.2179992 105.3274990  66.4449997 112.2309992 104.6334990  64.7199997
 112.3889992 105.7054990  64.4759997 111.3379992 104.2434990  64.1859997
 113.4559992 103.8604990  64.2289997 114.4129992 104.2324990  64.6239997
 113.4429992 102.7214990  63.5119997 114.3879992 102.4454990  63.0219997
 112.2489992 101.9864990  63.0039997 111.9609992 102.3464990  61.9929997
 111.3809992 102.0834990  63.6899997 112.3469992 100.4694990  62.8729997
 111.5539992 100.0094990  63.5009997 113.3369992 100.0844990  63.1989997
 112.0159992  99.8294990  61.4879997 112.0229992  98.7184990  61.4949997
 112.8639992 100.1604990  60.8519997 110.6369992 100.2294990  60.8359997
 110.6569992 101.3184990  60.6199997 109.8989992  99.9104990  61.6029997
 110.2329992  99.3784990  59.6799997 109.8569992  98.3564990  59.9029997
 111.0599992  99.4104990  58.9389997 109.0739992 100.0404990  58.9049997
 108.9649992  99.4394990  57.9779997 109.3739992 101.0954990  58.7269997
 107.6759992 100.1264990  59.5759997 107.7619992 100.3474990  60.6619997
 107.3319992  99.0724990  59.5059997 106.7139992 101.1044990  58.8869997
 106.9949992 101.3004990  57.8299997 106.5679992 102.0224990  59.4949997
 105.6979992 100.6564990  58.8959997 114.6359992  46.6104990  56.8149997
 115.4259992  46.2794990  57.5229997 115.0369992  46.5014990  55.7849997
 113.8059992  45.8734990  56.8619997 114.1329992  47.9204990  57.2509997
 115.1419992  48.3864990  57.2179997 113.6769992  48.3644990  56.3399997
 113.3249992  48.0054990  58.5289997 112.3879992  47.4104990  58.4809997
 113.9539992  47.4724990  59.2729997 113.1329992  49.4004990  59.0959997
 113.8699992  50.2134990  58.9219997 112.1459992  49.7034990  58.6869997
 112.9299992  49.4484990  60.6169997 112.4929992  48.4594990  60.8739997
 113.9399992  49.5314990  61.0709997 111.9769992  50.4354990  61.0529997
 112.2939992  51.4124990  60.6299997 110.9339992  50.3084990  60.6919997
 111.8339992  50.7174990  62.5299997 111.8059992  49.7464990  63.0679997
 112.7949992  51.1304990  62.9049997 110.6179992  51.5454990  62.9939997
 110.5479992  52.5004990  62.4289997 109.7729992  50.8824990  62.7129997
 110.6199992  51.8784990  64.5409997 111.6549992  52.1054990  64.8759997
 109.8379992  52.6434990  64.7389997 110.3629992  50.6824990  65.4459997
 109.2599992  50.6254990  65.5649997 110.7629992  49.7694990  64.9559997
 111.1279992  50.7344990  66.8209997 112.1229992  51.1454990  66.5479997
 110.6999992  51.5144990  67.4859997 111.3119992  49.3714990  67.4829997
 111.7469992  48.6954990  66.7169997 112.1679992  49.5294990  68.1729997
 110.1369992  48.7134990  68.2199997 109.9159992  49.4164990  69.0509997
 109.3809992  48.7654990  67.4079997 110.5019992  47.3314990  68.5539997
 110.9959992  46.7264990  67.7629997 111.3659992  47.3254990  69.2519997
 109.4159992  46.3664990  69.1649997 108.9339992  46.9604990  69.9709997
 108.6999992  46.0964990  68.3599997 110.0649992  45.1264990  69.8019997
 110.7339992  44.2744990  69.1989997 109.8559992  45.1044990  71.1449997
 110.7949992  44.2994990  71.8739997 110.4639992  44.2204990  72.9319997
 110.9489992  43.3004990  71.4119997 112.2289992  44.9294990  72.0919997
 112.8379992  44.0994990  72.5109997 112.1009992  46.1194990  73.1359997
 111.4389992  45.7914990  73.9659997 113.0759992  46.4954990  73.5099997
 111.4619992  47.3254990  72.5319997 112.1279992  48.7114990  72.5239997
 112.0079992  49.0754990  74.0629997 110.8199992  49.2004990  74.8449997
 110.0709992  49.8094990  74.2949997 110.2609992  48.2514990  74.9839997
 111.0579992  49.7524990  76.2669997 111.5999992  50.6804990  76.1539997
 110.0969992  50.0914990  76.6229997 111.6999992  48.9944990  77.3319997
 111.1219992  47.5954990  77.5289997 111.1359992  47.1054990  76.5669997
 111.6959992  46.9784990  78.2039997 110.1269992  47.6534990  77.9449997
 113.1879992  48.7994990  76.9909997 113.1699992  48.6004990  75.9299997
 113.7289992  49.7014990  77.2369997 113.5489992  47.9374990  77.5319997
 111.6149992  49.8814990  78.5629997 110.5809992  49.6964990  78.8159997
 111.6849992  50.9234990  78.2879997 112.3509992  49.6024990  79.3019997
 113.4959992  48.8534990  71.9569997 111.1829992  49.6464990  71.8689997
 112.6749992  45.4454990  70.8479997 113.9579992  45.2484990  70.5849997
 114.7159992  44.5034990  71.1919997 114.3889992  46.2034990  69.3789997
 115.4869992  46.3584990  69.3109997 113.8749992  47.1874990  69.3379997
 113.9989992  45.4084990  68.1419997 112.9349992  45.6494990  67.9339997
 114.2499992  44.3284990  68.2079997 114.6739992  45.9414990  66.9169997
 115.7409992  45.6954990  67.1019997 114.5209992  47.0354990  66.7989997
 114.2049992  45.3504990  65.5919997 113.7329992  44.3624990  65.7769997
 115.0739992  45.2694990  64.9049997 113.1869992  46.1634990  64.8959997
 113.5339992  47.2154990  64.8139997 112.2149992  46.0714990  65.4259997
 113.1079992  45.7094990  63.4139997 113.2759992  44.6114990  63.4349997
 113.9709992  45.9984990  62.7779997 111.9069992  46.1344990  62.6049997
 112.1409992  46.0944990  61.5199997 111.7989992  47.2034990  62.8879997
 110.7029992  45.2864990  62.9319997 110.9139992  44.2074990  62.9239997
 109.4599992  45.7494990  63.2459997 108.6299992  45.0984990  63.5569997
 109.0919992  47.2244990  63.3159997 109.7419992  47.7074990  64.0769997
 108.0549992  47.1314990  63.7029997 108.9649992  48.0344990  61.9819997
 110.0179992  48.2954990  61.7429997 108.3349992  48.9384990  62.1259997
 108.4129992  47.3634990  60.7299997 107.3459992  47.0574990  60.7779997
 109.0009992  46.4254990  60.6319997 108.7779992  48.1664990  59.5119997
 109.8609992  48.2914990  59.3019997 108.5399992  49.2504990  59.5499997
 108.0489992  47.5824990  58.3249997 106.9799992  47.8454990  58.4679997
 108.1239992  46.4874990  58.5009997 108.3529992  48.2534990  56.9929997
 109.2709992  47.7934990  56.5679997 108.2519992  49.3564990  57.0759997
 107.2719992  47.8854990  56.0189997 107.4519992  48.4564990  55.0839997
 106.2759992  48.2354990  56.3649997 107.1469992  46.4064990  55.5329997
 106.3489992  46.2154990  54.7839997 106.9119992  45.6384990  56.2999997
 108.1289992  46.1324990  55.0929997  20.1809992  38.0264990  58.5379997
  20.5409992  37.1624990  57.9399997  20.7129992  38.1264990  59.5079997
  20.3769992  38.9714990  57.9879997  18.6749992  37.7594990  58.7339997
  18.1499992  37.7154990  57.7559997  18.7519992  36.7294990  59.1459997
  17.9189992  38.7344990  59.6659997  17.7509992  39.7344990  59.2109997
  16.9359992  38.2184990  59.6709997  18.3049992  38.7744990  61.1469997
  18.0629992  37.7714990  61.5589997  19.3939992  38.9844990  61.0769997
  17.4829992  39.7334990  61.9909997  17.8449992  40.7284990  61.6549997
  16.3949992  39.6034990  61.8059997  17.7469992  39.4114990  63.5129997
  17.6589992  38.3254990  63.7319997  18.7869992  39.6754990  63.7999997
  16.8009992  40.1134990  64.5449997  17.0429992  41.1924990  64.6519997
  15.7359992  40.0334990  64.2389997  16.9289992  39.5074990  65.9789997
  16.1209992  39.9434990  66.6039997  16.7639992  38.4124990  65.8839997
  18.2889992  39.7134990  66.6449997  18.9069992  38.9304990  66.1559997
  18.7829992  40.6574990  66.3309997  18.1529992  39.5744990  68.1689997
  17.3819992  40.2844990  68.5369997  17.7199992  38.6044990  68.4959997
  19.4759992  39.7184990  69.0169997  19.4019992  39.7594990  70.1249997
  20.0589992  38.7784990  68.9129997  20.4199992  40.8664990  68.6159997
  20.7589992  40.6734990  67.5749997  19.9349992  41.8654990  68.6319997
  21.7579992  40.9734990  69.4129997  22.3069992  41.7754990  68.8759997
  21.5329992  41.4434990  70.3949997  22.6049992  39.7624990  69.6549997
  22.0039992  38.9274990  70.0739997  23.1119992  39.6114990  68.6779997
  23.7159992  39.9744990  70.7449997  24.4509992  39.1454990  70.6709997
  24.3589992  40.8664990  70.5799997  23.1039992  39.9764990  72.1249997
  22.7789992  38.9654990  72.7279997  22.9909992  41.2504990  72.5269997
  22.4209992  41.5084990  73.8319997  21.6369992  40.7684990  74.0989997
  23.2359992  41.3964990  74.5789997  21.8269992  42.9474990  74.0219997
  22.6419992  43.6944990  74.1389997  20.9559992  42.9844990  75.3509997
  21.6209992  42.9074990  76.2379997  20.5819992  44.0274990  75.4329997
  19.8089992  42.1854990  75.1749997  18.8209992  41.8754990  76.4429997
  18.2619992  40.4414990  76.1179997  19.0829992  39.4144990  75.4909997
  20.1889992  39.4214990  75.5929997  18.7879992  38.4544990  75.9659997
  18.8029992  39.3444990  73.9679997  19.3339992  40.1494990  73.4819997
  19.2319992  38.4194990  73.6129997  17.3679992  39.3434990  73.4809997
  16.8719992  40.7784990  73.4799997  17.5859992  41.3364990  72.8929997
  15.8609992  40.7264990  73.1019997  16.8379992  41.1194990  74.5039997
  17.3479992  39.0194990  72.0379997  16.4049992  39.3124990  71.6019997
  18.1749992  39.4614990  71.5029997  17.2679992  37.9424990  72.0229997
  16.4779992  38.4724990  74.2789997  16.7509992  37.5014990  73.8929997
  15.4489992  38.7894990  74.1979997  16.8679992  38.5724990  75.2809997
  19.4709992  41.8424990  77.7249997  17.7179992  42.7624990  76.2729997
  20.9829992  43.2834990  72.9349997  20.5819992  44.5134990  72.8499997
  20.9659992  45.4874990  73.5949997  19.4149992  44.5584990  71.8709997
  19.7429992  44.4944990  70.8119997  18.8609992  45.5114990  72.0099997
  18.4709992  43.3444990  72.1219997  18.1489992  43.3474990  73.1859997
  18.9659992  42.3734990  71.9099997  17.2039992  43.6214990  71.2469997
  16.8589992  44.6764990  71.2729997  16.4479992  42.9914990  71.7629997
  17.2549992  43.1334990  69.7689997  17.5589992  42.0654990  69.7199997
  18.0529992  43.7304990  69.2779997  15.9419992  43.3914990  69.0169997
  15.6699992  44.4434990  69.2489997  15.1399992  42.7834990  69.4879997
  15.9079992  43.2234990  67.4889997  14.8169992  43.1704990  67.2829997
  16.4739992  42.2984990  67.2489997  16.3789992  44.3154990  66.5779997
  15.8239992  45.2124990  66.9249997  16.1659992  44.2174990  65.4919997
  17.8199992  44.8264990  66.6359997  18.0919992  45.5254990  67.4409997
  18.6839992  44.6154990  65.6989997  19.6949992  45.0084990  65.8859997
  18.4099992  43.9634990  64.3619997  17.9619992  44.7434990  63.7089997
  17.8579992  42.9994990  64.3339997  19.7379992  43.5414990  63.5439997
  20.5019992  44.3474990  63.5109997  19.4309992  43.2114990  62.5289997
  20.5319992  42.4144990  64.2139997  19.7779992  41.5984990  64.2299997
  20.8709992  42.5874990  65.2569997  21.8959992  41.9884990  63.4609997
  22.3949992  41.1424990  63.9799997  22.5709992  42.8614990  63.5879997
  21.7929992  41.5984990  62.0069997  21.4379992  42.5504990  61.5579997
  20.9499992  40.8874990  61.8739997  22.9889992  41.1364990  61.3179997
  23.2879992  40.2234990  61.8739997  23.8319992  41.8234990  61.5429997
  22.7269992  40.8854990  59.8169997  22.0929992  40.0044990  59.5789997
  23.7199992  40.8234990  59.3239997  22.2969992  42.1454990  59.1259997
  23.0139992  42.9684990  59.3339997  21.2749992  42.4754990  59.4089997
  22.2719992  42.0024990  58.0239997 124.4589992  85.3604990  58.7979997
 124.0679992  85.5044990  57.7679997 125.5179992  85.0304990  58.7369997
 124.4109992  86.3284990  59.3409997 123.6089992  84.4064990  59.5929997
 123.5849992  83.4934990  58.9589997 124.2599992  84.1294990  60.4489997
 122.1779992  84.8724990  59.9089997 122.1399992  85.9404990  60.2139997
 121.6289992  84.6874990  58.9609997 121.6189992  84.0704990  61.1029997
 120.5229992  84.2074990  61.2219997 121.8069992  82.9794990  61.0119997
 122.3039992  84.4254990  62.4229997 123.3519992  84.7464990  62.2449997
 121.6829992  85.2324990  62.8669997 122.2459992  83.1914990  63.3159997
 121.3129992  82.6154990  63.1419997 123.0889992  82.5464990  62.9869997
 122.3469992  83.5464990  64.7979997 121.6349992  84.3594990  65.0549997
 122.1219992  82.6144990  65.3599997 123.6959992  83.9764990  65.3629997
 124.3419992  83.1124990  65.0979997 124.1989992  84.9134990  65.0419997
 123.6869992  84.0784990  66.9319997 123.0719992  84.9434990  67.2619997
 123.2139992  83.1194990  67.2329997 125.0919992  84.3054990  67.5179997
 125.0169992  83.9054990  68.5519997 125.8839992  83.8584990  66.8799997
 125.5129992  85.8284990  67.8279997 125.2739992  86.4944990  66.9709997
 124.8549992  86.3194990  68.5769997 126.8959992  86.0164990  68.4109997
 126.9569992  85.4534990  69.3659997 127.6249992  85.7054990  67.6319997
 127.2199992  87.4564990  68.8219997 128.2529992  87.4924990  69.2289997
 127.1189992  87.9664990  67.8399997 126.2929992  88.1724990  69.7839997
 125.3079992  88.3124990  69.2909997 126.2259992  87.5604990  70.7089997
 126.8029992  89.5854990  70.2759997 127.7079992  89.3404990  70.8729997
 127.0739992  90.3174990  69.4859997 125.7769992  90.2944990  71.2179997
 125.5699992  91.5154990  71.2509997 125.1199992  89.3544990  72.0109997
 124.1419992  89.9224990  72.8439997 124.6109992  90.5824990  73.6049997
 123.3359992  90.4794990  72.3189997 123.4319992  88.7974990  73.6289997
 122.6309992  89.1974990  74.2869997 124.4429992  88.0264990  74.5159997
 125.1069992  87.3424990  73.9459997 125.0349992  88.8484990  74.9719997
 123.7289992  87.2834990  75.4369997 124.7009992  86.5374990  76.5619997
 124.2999992  84.9814990  76.4049997 123.3209992  84.5884990  75.4609997
 122.9649992  83.5394990  75.5399997 122.4149992  85.2194990  75.5869997
 123.6689992  84.6464990  73.9679997 122.7789992  84.4704990  73.3819997
 123.8169992  85.7014990  73.7889997 124.9259992  84.0234990  73.3249997
 126.0919992  84.3824990  74.0759997 126.2939992  85.4394990  73.9869997
 126.0339992  84.1144990  75.1209997 126.9549992  83.8854990  73.6599997
 124.8539992  82.5144990  73.2009997 124.1019992  82.1694990  72.5079997
 125.6359992  82.0954990  72.5849997 124.7789992  81.9694990  74.1309997
 125.0609992  84.6014990  72.0069997 126.0109992  84.2884990  71.5989997
 124.9439992  85.6744990  71.9569997 124.2569992  84.2654990  71.3689997
 126.1459992  86.7004990  76.1719997 124.2349992  87.0224990  77.8579997
 122.8049992  87.8704990  72.7409997 122.0009992  88.3084990  71.7569997
 121.5319992  89.4674990  71.7949997 121.7869992  87.2954990  70.7199997
 121.0669992  86.5634990  71.1439997 122.7209992  86.7244990  70.5289997
 121.1379992  87.7844990  69.4439997 120.3069992  88.4684990  69.7189997
 120.4779992  87.0104990  68.9969997 122.1019992  88.1854990  68.2649997
 122.8689992  87.3854990  68.1829997 122.4909992  89.2084990  68.4559997
 121.3219992  88.3624990  66.9869997 120.6429992  89.2314990  67.1219997
 120.6929992  87.4624990  66.8219997 122.3019992  88.3844990  65.7839997
 123.0049992  87.5234990  65.7669997 122.8319992  89.3544990  65.8979997
 121.3739992  88.3204990  64.5499997 120.8029992  89.2724990  64.5819997
 120.7079992  87.4324990  64.4999997 122.2759992  88.3624990  63.2449997
 121.5729992  88.2394990  62.3939997 123.0159992  87.5334990  63.2589997
 122.9679992  89.7014990  63.0799997 122.2349992  90.4794990  62.8249997
 124.2329992  90.0334990  63.3209997 124.5519992  91.0714990  63.1459997
 125.3869992  89.2214990  63.8409997 124.9409992  88.4954990  64.5529997
 126.0629992  89.9414990  64.3509997 125.9019992  88.3414990  62.7549997
 126.2989992  88.9434990  61.9099997 125.2889992  87.4594990  62.4719997
 127.1519992  87.6104990  63.3259997 126.8419992  87.0304990  64.2209997
 127.8509992  88.3914990  63.6949997 127.7839992  86.6904990  62.2799997
 126.9829992  86.0754990  61.8169997 128.5809992  86.0754990  62.7489997
 128.5229992  87.4944990  61.1979997 129.3549992  87.9964990  61.7359997
 127.7729992  88.1744990  60.7399997 129.1559992  86.7904990  60.0299997
 129.6199992  85.8264990  60.3289997 129.9899992  87.4854990  59.7959997
 128.1579992  86.5344990  58.8829997 127.2709992  87.1954990  58.9909997
 127.7889992  85.4884990  58.8209997 128.7989992  86.9334990  57.5349997
 129.0939992  87.9984990  57.6489997 128.0249992  86.9064990  56.7379997
 129.6419992  86.2924990  57.1999997  35.4629992 110.6884990  53.9199997
  35.7029992 110.1854990  52.9589997  34.3579992 110.8034990  53.9209997
  35.7469992 110.0544990  54.7879997  36.2489992 111.9644990  54.0359997
  35.9249992 112.7774990  53.3529997  36.1479992 112.4394990  55.0359997
  37.7859992 111.8214990  53.9459997  38.0559992 111.5564990  52.9019997
  38.2449992 112.8074990  54.1739997  38.4569992 110.7454990  54.8299997
  38.2039992 109.7304990  54.4549997  39.5249992 110.8734990  54.5549997
  38.2469992 111.0284990  56.4009997  38.2759992 112.1384990  56.4409997
  37.2699992 110.6864990  56.8039997  39.3539992 110.2944990  57.1059997
  39.3369992 109.2264990  56.8009997  40.3629992 110.7384990  56.9639997
  39.1819992 110.3084990  58.6419997  38.1479992 109.9824990  58.8879997
  39.8209992 109.5034990  59.0629997  39.4679992 111.5724990  59.4909997
  40.5369992 111.5934990  59.7939997  39.2559992 112.4034990  58.7839997
  38.6699992 111.6194990  60.7479997  38.7409992 110.7024990  61.3729997
  39.0849992 112.4754990  61.3219997  37.2089992 111.9004990  60.3959997
  37.1829992 112.1074990  59.3049997  36.5869992 111.0024990  60.5989997
  36.7729992 113.2114990  61.0459997  37.3479992 114.0814990  60.6629997
  35.7419992 113.4064990  60.6819997  36.9139992 113.3514990  62.5299997
  37.4429992 112.4514990  62.9089997  37.5619992 114.2384990  62.6959997
  35.6459992 113.4004990  63.2809997  35.0459992 114.2994990  63.0219997
  35.1519992 112.4204990  63.1099997  35.9349992 113.6204990  64.8489997
  36.4199992 114.6074990  65.0139997  34.9319992 113.7204990  65.3159997
  36.8509992 112.5744990  65.5499997  36.5619992 111.5734990  65.1619997
  37.9329992 112.7044990  65.3319997  36.6369992 112.7744990  67.0749997
  36.2249992 113.7864990  67.6449997  37.0719992 111.6804990  67.6859997
  37.3859992 111.8084990  69.0589997  38.3649992 111.2884990  69.1229997
  37.6159992 112.8544990  69.3569997  36.4149992 111.2184990  70.0369997
  35.4519992 111.7524990  69.8899997  36.9959992 111.4764990  71.5409997
  37.4839992 112.4724990  71.4799997  36.0829992 111.5344990  72.1719997
  37.8029992 110.4014990  71.9919997  38.5759992 110.3504990  73.3589997
  37.3239992 110.3534990  74.3789997  36.4989992 109.2394990  74.2099997
  35.9559992 109.2574990  73.2409997  37.0749992 108.2964990  74.3259997
  35.2899992 109.1994990  75.2499997  34.7879992 110.1444990  75.1029997
  34.6879992 108.3604990  74.9329997  35.6339992 109.1214990  76.6989997
  36.5149992 110.1724990  77.1399997  36.8639992 109.9904990  78.1459997
  37.4269992 110.0614990  76.5709997  36.1529992 111.1764990  76.9699997
  34.3349992 109.0414990  77.5399997  33.8179992 109.9864990  77.4559997
  33.6289992 108.2744990  77.2599997  34.6849992 108.8284990  78.5399997
  36.3459992 107.7954990  76.9659997  37.2059992 107.7494990  76.3139997
  35.6679992 106.9544990  76.9349997  36.8399992 107.7814990  77.9259997
  39.2639992 109.0494990  73.4859997  39.3989992 111.6154990  73.4499997
  36.2909992 109.7904990  69.7369997  35.2989992 109.1634990  70.3079997
  34.3559992 109.6944990  70.9119997  35.4059992 107.6544990  69.9959997
  34.4379992 107.2044990  70.3019997  36.2329992 107.1824990  70.5689997
  35.6269992 107.5154990  68.4719997  35.9669992 106.4864990  68.2299997
  36.4739992 108.1494990  68.1329997  34.3149992 107.6284990  67.6979997
  33.9719992 108.6644990  67.4929997  33.4549992 107.0954990  68.1559997
  34.4209992 106.8084990  66.3879997  33.3899992 106.8354990  65.9759997
  34.6939992 105.7744990  66.6929997  35.4349992 107.3954990  65.3409997
  35.4639992 106.5624990  64.6049997  36.4239992 107.3034990  65.8369997
  35.0329992 108.7084990  64.7659997  35.1009992 109.5544990  65.4839997
  33.9539992 108.7644990  64.5069997  35.8719992 109.1224990  63.4979997
  35.7019992 110.2154990  63.3969997  35.4779992 108.6724990  62.5619997
  37.3319992 108.7584990  63.7929997  37.7809992 109.2264990  64.6819997
  38.1139992 107.8274990  63.2239997  39.0959992 107.4784990  63.5779997
  37.6569992 106.8864990  62.0309997  36.5559992 106.8204990  62.1619997
  38.0279992 105.8424990  62.1119997  38.0329992 107.4624990  60.6529997
  39.1369992 107.5754990  60.6019997  37.6159992 108.4644990  60.4139997
  37.3869992 106.6024990  59.4799997  36.4099992 106.2574990  59.8809997
  38.0119992 105.6854990  59.4389997  37.2049992 107.1614990  58.0289997
  37.0589992 106.3024990  57.3389997  38.1949992 107.5524990  57.7089997
  36.0809992 108.2054990  57.7979997  36.0299992 108.4184990  56.7089997
  36.4999992 109.1724990  58.1489997  34.6979992 107.8824990  58.3159997
  34.5689992 108.0404990  59.4079997  34.5709992 106.8114990  58.0509997
  33.6819992 108.7404990  57.6979997  32.7749992 108.4034990  58.2429997
  33.6779992 108.4424990  56.6279997  33.7319992 110.3154990  57.7139997
  34.5069992 110.7864990  57.0709997  33.8489992 110.5134990  58.8009997
  32.7669992 110.7434990  57.3679997  19.0649992  88.8134990  58.0419997
  20.0969992  88.4234990  57.9079997  19.0459992  89.8364990  57.6099997
  18.3889992  88.1904990  57.4179997  18.4639992  88.8494990  59.4289997
  19.1959992  89.3894990  60.0679997  17.5559992  89.4674990  59.2649997
  17.9559992  87.5494990  60.1239997  17.4109992  87.8654990  61.0389997
  17.2789992  86.9874990  59.4459997  18.9969992  86.5774990  60.5149997
  19.6109992  86.2474990  59.6489997  19.6849992  87.0924990  61.2189997
  18.4069992  85.2774990  61.2389997  17.5749992  84.8824990  60.6169997
  19.1709992  84.4704990  61.2379997  18.1099992  85.4854990  62.7269997
  18.9479992  85.9374990  63.2989997  17.3399992  86.2834990  62.6539997
  17.4069992  84.3054990  63.4129997  18.1419992  83.4724990  63.4219997
  17.3489992  84.5984990  64.4829997  16.1029992  83.8394990  62.7989997
  16.3669992  83.3524990  61.8359997  15.6549992  83.1154990  63.5129997
  15.0249992  84.8694990  62.3539997  15.4529992  85.7104990  61.7679997
  14.2509992  84.3354990  61.7619997  14.2349992  85.3614990  63.5089997
  14.8749992  85.5274990  64.4019997  13.8389992  86.3104990  63.0879997
  13.0469992  84.4724990  63.9949997  12.4919992  84.2604990  63.0569997
  13.4119992  83.5854990  64.5549997  12.0329992  85.1654990  64.8869997
  11.6219992  86.1044990  64.4579997  11.1259992  84.5534990  65.0799997
  12.6739992  85.6874990  66.1669997  13.0779992  84.8744990  66.8069997
  13.5369992  86.3114990  65.8519997  11.6349992  86.4934990  66.9739997
  11.2779992  87.2684990  66.2619997  10.8709992  85.7114990  67.1689997
  12.2549992  87.1694990  68.2529997  13.1559992  87.7504990  67.9599997
  11.5529992  87.9044990  68.7019997  12.5839992  86.2334990  69.3269997
  12.0669992  85.1494990  69.6049997  13.5579992  86.7824990  70.1029997
  13.9419992  86.0784990  71.2579997  14.3109992  86.8944990  71.9149997
  13.2509992  85.3194990  71.6839997  15.2199992  85.2934990  70.9749997
  14.9109992  84.3114990  70.5579997  15.9029992  84.8874990  72.3599997
  15.6349992  85.7094990  73.0569997  15.3959992  84.0084990  72.8129997
  17.2979992  84.7424990  72.3199997  18.2369992  85.6044990  73.3049997
  18.1369992  84.9984990  74.7379997  17.7779992  83.6374990  75.0549997
  18.1339992  82.9134990  74.2909997  18.3669992  83.3604990  75.9559997
  16.2639992  83.5894990  75.4119997  15.7039992  83.8004990  74.5139997
  15.9599992  82.5684990  75.5889997  15.6669992  84.4564990  76.5399997
  15.6979992  85.9134990  76.1489997  16.7309992  86.1014990  75.8939997
  15.0549992  85.9584990  75.2829997  15.3959992  86.5614990  76.9589997
  14.2889992  84.0194990  76.8879997  14.3029992  83.0984990  77.4519997
  13.7979992  84.7824990  77.4749997  13.7499992  83.6724990  76.0179997
  16.5599992  84.2244990  77.8019997  16.4709992  83.1744990  78.0379997
  16.2739992  84.8564990  78.6299997  17.5939992  84.2884990  77.4989997
  19.6179992  85.3384990  72.8289997  17.7919992  86.9934990  73.4329997
  16.1779992  86.1024990  70.2229997  16.7289992  85.5784990  69.1879997
  16.5849992  84.3804990  68.8469997  17.6719992  86.5604990  68.5669997
  18.7309992  86.2244990  68.5369997  17.6609992  87.5554990  69.0629997
  17.1749992  86.8054990  67.1579997  17.0789992  85.9214990  66.4919997
  18.0029992  87.4324990  66.7629997  15.8919992  87.7244990  67.1199997
  16.1659992  88.5894990  67.7609997  14.9759992  87.1674990  67.4129997
  15.6399992  88.2954990  65.7059997  15.6289992  87.5114990  64.9189997
  16.4709992  88.9664990  65.4019997  14.3609992  89.1674990  65.5519997
  14.3419992  89.9244990  66.3649997  13.4209992  88.5784990  65.4939997
  14.4119992  90.1624990  64.3199997  15.3549992  90.7494990  64.3239997
  13.7139992  91.0274990  64.3229997  14.3049992  89.4704990  62.9279997
  15.0709992  88.6914990  62.7239997  14.4339992  90.2544990  62.1519997
  12.9189992  88.9064990  62.7619997  12.6549992  88.3634990  63.6819997
  12.1749992  88.8414990  61.5879997  11.1869992  88.3604990  61.6399997
  12.7189992  89.4424990  60.2549997  13.1109992  90.4544990  60.4919997
  11.8709992  89.6824990  59.5799997  13.7499992  88.7134990  59.4379997
  14.7309992  88.5554990  59.9359997  13.8569992  89.2204990  58.4549997
  13.2649992  87.2984990  59.1519997  12.2679992  87.3104990  58.6619997
  13.2229992  86.7714990  60.1289997  14.1549992  86.5494990  58.1699997
  15.1759992  86.4314990  58.5909997  14.3069992  87.3074990  57.3719997
  13.6529992  85.2794990  57.4679997  12.9959992  85.5774990  56.6229997
  13.0519992  84.7804990  58.2579997  14.8269992  84.3274990  57.1189997
  15.5139992  84.2014990  57.9819997  15.2979992  84.6714990  56.1729997
  14.3149992  82.9364990  56.7439997  13.7639992  83.0684990  55.7879997
  13.5809992  82.6634990  57.5309997  15.2859992  81.8214990  56.5619997
  14.7299992  80.8804990  56.7649997  16.1089992  81.8564990  57.3069997
  15.6539992  81.8874990  55.5159997  35.9639992  14.7984990  54.9449997
  35.7209992  15.2534990  55.9289997  36.1289992  15.6384990  54.2359997
  36.9729992  14.3414990  54.8549997  34.8069992  14.0224990  54.3959997
  33.9209992  14.6184990  54.0889997  35.1339992  13.2994990  53.6179997
  34.0469992  13.0874990  55.4049997  33.6319992  13.8074990  56.1429997
  33.2109992  12.6554990  54.8149997  34.8589992  12.0124990  56.1179997
  35.4769992  11.4624990  55.3769997  35.6429992  12.5314990  56.7099997
  33.9629992  11.0164990  56.8699997  33.4679992  10.4214990  56.0729997
  34.6239992  10.3114990  57.4189997  32.9749992  11.6094990  57.8119997
  33.4109992  12.5554990  58.1979997  32.0309992  11.7234990  57.2369997
  32.7239992  10.6354990  58.9129997  32.1399992   9.7244990  58.6609997
  33.6489992  10.2224990  59.3699997  31.9099992  11.1914990  60.0889997
  32.0639992  12.2884990  60.1759997  30.8169992  11.0444990  59.9499997
  32.4009992  10.5484990  61.3809997  32.4619992   9.4554990  61.1929997
  33.4199992  10.8674990  61.6869997  31.4889992  10.9594990  62.5519997
  31.4539992  12.0594990  62.7009997  30.4699992  10.6024990  62.2909997
  31.9599992  10.3584990  63.9459997  31.2299992  10.5714990  64.7559997
  31.7599992   9.2904990  63.7169997  33.3699992  10.6094990  64.4509997
  33.3839992  10.0744990  65.4239997  34.0779992  10.0814990  63.7769997
  33.8449992  12.0674990  64.4179997  34.2899992  12.1764990  63.4059997
  33.0749992  12.8674990  64.3789997  34.8959992  12.5594990  65.4509997
  35.7569992  11.8574990  65.4619997  35.1559992  13.5464990  65.0139997
  34.3349992  12.7464990  66.8859997  33.7149992  13.6674990  66.9049997
  33.6879992  11.8894990  67.1729997  35.4149992  12.9554990  67.9939997
  36.6359992  13.0734990  67.7789997  34.7189992  13.1444990  69.0829997
  35.4869992  13.1254990  70.3169997  35.2879992  12.2484990  70.9699997
  36.5659992  13.0354990  70.0679997  35.1929992  14.4554990  71.0479997
  35.8359992  15.3014990  70.7249997  35.4339992  14.2474990  72.5999997
  36.4669992  13.8874990  72.7959997  35.3799992  15.1884990  73.1879997
  34.5339992  13.3244990  73.1619997  34.8549992  12.8184990  74.6579997
  33.6169992  13.2764990  75.5279997  32.2989992  13.3294990  74.9879997
  32.1549992  12.6734990  74.1029997  31.5919992  13.1334990  75.8219997
  31.8119992  14.7334990  74.3739997  32.3039992  15.0314990  73.4599997
  30.7499992  14.5674990  74.2759997  31.8639992  15.9854990  75.2789997
  33.2899992  16.4094990  75.5539997  33.7589992  16.7224990  74.6329997
  33.3509992  17.2164990  76.2689997  33.7659992  15.5734990  76.0429997
  31.1909992  17.1244990  74.6479997  31.4159992  17.9784990  75.2689997
  31.6039992  17.3544990  73.6779997  30.1219992  17.0714990  74.4979997
  31.1399992  15.6684990  76.5429997  30.1049992  15.6544990  76.2329997
  31.3329992  16.5214990  77.1769997  31.4569992  14.7394990  76.9929997
  34.7049992  11.3444990  74.6239997  36.1159992  13.4474990  75.1139997
  33.8229992  14.7754990  70.8569997  33.3299992  15.8954990  71.4759997
  33.9519992  16.7524990  72.0569997  31.8519992  15.9134990  71.1379997
  31.3059992  16.5994990  71.8199997  31.4219992  14.9304990  71.4289997
  31.5769992  16.3694990  69.7079997  31.6069992  15.4574990  69.0739997
  32.3589992  16.9794990  69.2069997  30.2219992  17.1684990  69.5979997
  30.5959992  18.1654990  69.9169997  29.4979992  16.8724990  70.3869997
  29.5599992  17.1354990  68.2569997  28.6479992  17.7414990  68.4419997
  29.2549992  16.0954990  68.0149997  30.4079992  17.6964990  67.1119997
  30.8429992  18.6694990  67.4259997  29.5749992  17.8844990  66.4009997
  31.4089992  16.7164990  66.4129997  30.9849992  15.7374990  66.1019997
  32.2129992  16.4804990  67.1419997  32.0139992  17.2884990  65.0679997
  31.1469992  17.6304990  64.4629997  32.4759992  16.4344990  64.5289997
  32.9209992  18.4964990  65.2249997  32.4229992  19.3184990  65.7599997
  34.2249992  18.6104990  64.7849997  34.7569992  19.5294990  65.0729997
  34.9989992  17.5744990  64.0379997  34.6749992  16.5464990  64.3079997
  36.0549992  17.5134990  64.3759997  34.9349992  17.7604990  62.4999997
  35.3999992  18.7674990  62.4479997  33.9079992  17.9484990  62.1199997
  35.5859992  16.7824990  61.5659997  36.5279992  16.4884990  62.0769997
  35.9039992  17.3094990  60.6409997  34.7949992  15.4904990  61.2889997
  34.5769992  14.9884990  62.2559997  35.4049992  14.7864990  60.6829997
  33.4159992  15.7064990  60.6459997  32.7719992  16.3564990  61.2749997
  32.7759992  14.8024990  60.5509997  33.5349992  16.3534990  59.2809997
  34.3499992  15.8684990  58.7039997  33.9419992  17.3854990  59.3329997
  32.2779992  16.3354990  58.4399997  31.7159992  15.3964990  58.6349997
  32.5339992  16.2674990  57.3609997  31.2589992  17.5104990  58.6949997
  31.7959992  18.4734990  58.8299997  30.6699992  17.3894990  59.6289997
  30.5929992  17.6184990  57.8129997 125.6999992  69.2594990  56.1589997
 125.9769992  70.3234990  56.3159997 124.6889992  69.1334990  55.7159997
 126.3629992  68.5754990  55.5869997 125.5009992  68.5094990  57.4999997
 124.7409992  69.0984990  58.0569997 125.0599992  67.5354990  57.1999997
 126.7059992  68.3094990  58.4149997 127.3789992  67.7074990  57.7669997
 127.1449992  69.3134990  58.5989997 126.2489992  67.5604990  59.7099997
 125.6559992  66.6444990  59.5009997 127.2169992  67.1504990  60.0709997
 125.4209992  68.3904990  60.7769997 126.0919992  69.2504990  60.9909997
 124.4579992  68.6064990  60.2669997 125.0489992  67.6154990  62.0439997
 124.2409992  68.0084990  62.6969997 124.7259992  66.6094990  61.6999997
 126.2329992  67.4614990  62.9739997 125.8969992  66.7974990  63.7989997
 127.1929992  66.9954990  62.6679997 126.6129992  68.7764990  63.7089997
 127.0419992  69.4714990  62.9549997 125.7189992  69.2794990  64.1339997
 127.5279992  68.6494990  64.9349997 127.5299992  67.5854990  65.2529997
 128.5479992  68.9474990  64.6099997 127.0839992  69.6194990  66.1149997
 127.9289992  69.6314990  66.8359997 127.0019992  70.6234990  65.6459997
 125.7519992  69.2714990  66.7809997 124.9119992  69.5014990  66.0909997
 125.8259992  68.1784990  66.9659997 125.4819992  70.2344990  67.9739997
 126.2279992  70.1454990  68.7919997 125.5729992  71.2774990  67.6039997
 124.0649992  69.9414990  68.6589997 123.9349992  70.6464990  69.5079997
 123.4099992  70.0964990  67.7759997 124.0159992  68.5574990  69.2739997
 124.3089992  67.8584990  68.4629997 124.7319992  68.4674990  70.1179997
 122.6979992  68.2614990  69.9689997 122.5709992  68.6524990  71.0009997
 121.8009992  68.6424990  69.4369997 122.4569992  66.6714990  70.0439997
 121.3579992  66.1924990  69.9719997 123.6109992  66.0514990  70.0709997
 123.5909992  64.5814990  70.0949997 122.6129992  64.1204990  70.3499997
 123.8589992  64.3244990  69.0479997 124.6599992  64.0714990  71.0689997
 124.5169992  62.9694990  71.0809997 124.6279992  64.6194990  72.4679997
 124.7079992  65.7244990  72.3959997 123.6649992  64.4634990  73.0009997
 125.5529992  63.9604990  73.2659997 126.4869992  64.8494990  74.1739997
 125.4529992  65.4854990  75.1019997 125.8609992  66.1024990  76.3039997
 125.7259992  65.3904990  77.1459997 126.9569992  66.2814990  76.2589997
 125.1809992  67.4474990  76.4589997 124.1069992  67.3504990  76.5079997
 125.5729992  67.7594990  77.4159997 125.4749992  68.6284990  75.4479997
 126.9809992  68.6254990  74.9889997 127.5279992  68.1794990  75.8059997
 126.9489992  67.9394990  74.1549997 127.2879992  69.6124990  74.6739997
 124.5699992  68.5074990  74.1959997 124.7469992  67.5344990  73.7609997
 123.5609992  68.5734990  74.5739997 124.7329992  69.2794990  73.4579997
 125.1699992  69.9374990  76.2229997 125.2469992  70.8144990  75.5969997
 125.7419992  69.9634990  77.1389997 124.1339992  69.9484990  76.5259997
 127.3589992  63.8584990  74.9079997 127.1269992  65.9654990  73.4039997
 125.9289992  64.4824990  70.4919997 126.3859992  63.6604990  69.5309997
 125.9729992  62.5594990  69.2329997 127.8019992  64.1564990  69.1229997
 128.2969992  63.2464990  68.7189997 128.3379992  64.4224990  70.0589997
 127.8359992  65.3674990  68.1309997 127.8229992  66.2744990  68.7729997
 126.9229992  65.2524990  67.5079997 129.0309992  65.4214990  67.1099997
 129.9799992  65.6714990  67.6309997 128.7419992  66.2254990  66.3999997
 129.1819992  64.1424990  66.2909997 129.5529992  63.2424990  66.8259997
 129.9959992  64.2324990  65.5389997 127.9729992  63.6204990  65.4819997
 127.9149992  64.3254990  64.6249997 127.0829992  63.8294990  66.1129997
 128.0499992  62.2164990  64.9689997 128.1199992  61.6454990  65.9199997
 128.9359992  61.9884990  64.3389997 126.7769992  61.8564990  64.2469997
 126.7409992  60.8114990  63.8709997 126.5859992  62.5464990  63.3969997
 125.6839992  61.9244990  65.2909997 125.9219992  61.5344990  66.2919997
 124.4719992  62.5084990  65.1169997 123.8059992  62.5734990  65.9909997
 123.8969992  63.2404990  63.8779997 124.6579992  63.7764990  63.2719997
 123.1179992  63.9734990  64.1779997 123.2779992  62.1884990  62.9309997
 122.6619992  61.4814990  63.5269997 124.0559992  61.6034990  62.3949997
 122.4379992  62.7984990  61.8719997 122.8649992  63.7714990  61.5459997
 121.4129992  62.9734990  62.2639997 122.1819992  61.8044990  60.7339997
 121.4339992  61.0384990  61.0309997 123.1439992  61.2894990  60.5239997
 121.6769992  62.4554990  59.3989997 120.6139992  62.7314990  59.5669997
 121.6029992  61.6394990  58.6479997 122.5369992  63.5144990  58.7799997
 123.4039992  63.0374990  58.2749997 122.8939992  64.2224990  59.5579997
 121.7199992  64.4524990  57.7449997 120.8989992  64.9934990  58.2619997
 121.2289992  63.7714990  57.0169997 122.5929992  65.4394990  56.9949997
 121.9939992  65.9614990  56.2189997 123.4559992  64.9394990  56.5059997
 123.0529992  66.0854990  57.7739997 113.7859992  97.1944990  57.2969997
 112.8719992  96.5634990  57.3099997 114.6289992  96.4824990  57.4289997
 113.8739992  97.7564990  56.3429997 113.7599992  98.1184990  58.4529997
 114.6089992  98.8274990  58.3449997 112.8399992  98.6814990  58.1879997
 113.6909992  97.4934990  59.8609997 113.4479992  98.2684990  60.6189997
 112.8839992  96.7324990  59.8029997 114.9419992  96.7334990  60.2599997
 115.0799992  95.8374990  59.6179997 115.8499992  97.3664990  60.1669997
 114.9019992  96.1604990  61.7279997 114.3839992  96.8564990  62.4209997
 114.3659992  95.1884990  61.7569997 116.2879992  95.8804990  62.2039997
 116.2679992  95.2204990  63.0979997 116.8359992  95.1504990  61.5709997
 116.9869992  97.2314990  62.5069997 117.2839992  97.6274990  61.5119997
 116.1869992  97.9164990  62.8609997 118.2239992  97.3364990  63.4929997
 118.5409992  98.4004990  63.4519997 117.8849992  97.1554990  64.5349997
 119.3239992  96.3884990  63.1609997 119.1159992  95.3224990  63.3969997
 119.4909992  96.3574990  62.0629997 120.6649992  96.8534990  63.7499997
 121.3399992  96.0814990  63.3229997 121.0619992  97.7994990  63.3219997
 120.6019992  96.8484990  65.2529997 120.1669992  97.7354990  65.7609997
 119.8989992  96.0094990  65.4489997 121.9879992  96.5074990  65.8989997
 122.5169992  95.8314990  65.1949997 122.6859992  97.3544990  66.0749997
 121.7139992  95.7774990  67.2099997 120.8229992  95.1384990  67.0299997
 122.6289992  95.1894990  67.4379997 121.4659992  96.6474990  68.3749997
 122.3659992  97.2944990  68.4479997 120.5089992  97.1964990  68.2469997
 121.3049992  95.6844990  69.5979997 120.3499992  95.1364990  69.4479997
 122.0629992  94.8784990  69.6969997 121.2309992  96.5794990  70.8389997
 121.5599992  97.7654990  70.8439997 120.7769992  95.9204990  71.8549997
 120.6539992  96.6314990  73.1149997 120.9479992  95.8434990  73.8419997
 121.3359992  97.5084990  73.0929997 119.2289992  97.2394990  73.3609997
 119.2249992  97.7564990  74.3449997 118.1859992  96.1094990  73.2569997
 118.2889992  95.4844990  72.3449997 118.3069992  95.4274990  74.1259997
 116.8629992  96.5534990  72.9939997 116.1309992  97.3494990  74.1819997
 116.4929992  98.8384990  73.8779997 115.5569992  99.8654990  73.6529997
 115.9809992 100.6894990  73.0389997 114.6379992  99.4844990  73.1579997
 115.0599992 100.5234990  75.0229997 114.3649992 101.3344990  74.8589997
 114.4599992  99.7854990  75.5349997 116.1669992 100.9634990  76.0739997
 117.2709992 101.5644990  75.3109997 117.0339992 102.5454990  74.9259997
 118.1569992 101.6594990  75.9209997 117.5479992 100.8784990  74.5249997
 115.5199992 101.8974990  77.0999997 116.1489992 102.0444990  77.9659997
 115.1749992 102.8034990  76.6249997 114.6689992 101.3804990  77.5199997
 116.8259992  99.8374990  76.8069997 116.0409992  99.2264990  77.2289997
 117.4039992 100.1594990  77.6609997 117.4909992  99.2724990  76.1719997
 114.7139992  97.2394990  73.9159997 116.6709992  97.0394990  75.5329997
 118.8599992  98.0764990  72.2479997 119.0999992  99.3764990  72.4109997
 119.7219992  99.8994990  73.3389997 118.4769992 100.3354990  71.2619997
 119.3229992 100.8764990  70.7869997 117.8499992 101.0514990  71.8359997
 117.8599992  99.4774990  70.1509997 117.0039992  98.8324990  70.4419997
 118.6069992  98.8044990  69.6779997 117.4479992 100.3714990  68.9989997
 118.3189992 101.0084990  68.7349997 116.7099992 101.1434990  69.3039997
 116.7629992  99.7074990  67.7059997 115.9019992  99.1454990  68.1269997
 117.3459992  98.8514990  67.3039997 116.1199992 100.6394990  66.7169997
 115.8769992 101.5784990  67.2579997 115.2719992 100.1554990  66.1859997
 117.1559992 101.1484990  65.6819997 117.3909992 100.3084990  64.9939997
 118.0459992 101.3834990  66.3059997 116.5459992 102.2474990  64.7819997
 117.3809992 102.7484990  64.2479997 116.0559992 102.9734990  65.4659997
 115.5679992 101.6894990  63.7749997 114.7909992 101.0504990  64.2199997
 115.5209992 101.8354990  62.4219997 114.6619992 101.3864990  61.9019997
 116.4159992 102.5714990  61.4699997 117.2379992 103.1384990  61.9559997
 115.8169992 103.3134990  60.8999997 117.1769992 101.8674990  60.2939997
 117.5209992 102.5704990  59.5059997 116.3919992 101.2284990  59.8349997
 118.3669992 101.1284990  60.8609997 117.8469992 100.5004990  61.6149997
 119.1249992 101.7504990  61.3829997 119.1559992 100.2174990  59.8709997
 119.7719992  99.5744990  60.5349997 119.7499992 100.9584990  59.2939997
 118.2709992  99.2614990  59.0499997 117.3929992  99.7714990  58.5989997
 117.9189992  98.5044990  59.7829997 118.9989992  98.4364990  57.9789997
 119.2609992  99.0284990  57.0769997 118.3479992  97.6184990  57.6009997
 120.1819992  97.6734990  58.6239997 119.8029992  97.2014990  59.5559997
 120.9479992  98.4554990  58.8169997 120.8109992  96.5514990  57.8199997
 121.4449992  95.8264990  58.3739997 121.3369992  96.9944990  56.9469997
 119.9239992  95.9224990  57.5919997  53.9229992   2.2564990  56.7039997
  53.4059992   3.1834990  57.0309997  53.6319992   1.4094990  57.3619997
  53.6339992   2.0134990  55.6589997  55.4409992   2.5334990  56.9179997
  56.0959992   1.7864990  56.4209997  55.5549992   3.4584990  56.3139997
  55.9209992   2.7114990  58.4009997  56.8999992   3.2294990  58.3159997
  55.2749992   3.4194990  58.9629997  55.9869992   1.2964990  59.0179997
  54.9799992   0.8374990  59.1039997  56.5519992   0.6894990  58.2779997
  56.7349992   1.1504990  60.3109997  56.8949992   0.0754990  60.5459997
  57.7859992   1.5044990  60.2409997  55.9139992   1.8364990  61.4839997
  56.0619992   2.9304990  61.3629997  54.8189992   1.6454990  61.4789997
  56.4629992   1.3834990  62.8239997  55.9759992   2.0244990  63.5899997
  56.0579992   0.3564990  62.9489997  58.0189992   1.4814990  62.9279997
  58.4169992   0.6004990  62.3799997  58.3189992   2.3394990  62.2899997
  58.6809992   1.4534990  64.3569997  58.1499992   0.7364990  65.0189997
  59.7079992   1.0524990  64.2189997  58.4289992   2.7904990  65.1509997
  58.6889992   3.6464990  64.4909997  57.3449992   2.8874990  65.3729997
  59.1889992   2.8574990  66.4809997  58.9729992   1.8734990  66.9509997
  60.2979992   2.8634990  66.4069997  58.9479992   4.0794990  67.4489997
  59.6609992   4.2644990  68.2809997  59.1119992   4.9824990  66.8229997
  57.4589992   4.1314990  67.8129997  57.3019992   4.9774990  68.5159997
  56.7709992   4.2684990  66.9519997  57.0319992   2.8634990  68.6169997
  57.0259992   2.0324990  67.8799997  57.8109992   2.7434990  69.3999997
  55.6389992   3.1354990  69.1639997  55.6329992   3.9174990  69.9529997
  55.1259992   3.6354990  68.3139997  54.9499992   1.8094990  69.3949997
  54.3819992   1.2004990  68.5239997  55.0619992   1.5204990  70.6499997
  54.3749992   0.4384990  71.2479997  53.7449992   0.8634990  72.0589997
  53.6149992   0.0944990  70.5139997  55.3469992  -0.6115010  71.7879997
  54.6319992  -1.2995010  72.2869997  56.4259992   0.0204990  72.7999997
  55.9379992   0.5614990  73.6379997  56.9779992  -0.8385010  73.2389997
  57.2569992   0.9244990  72.0849997  57.6599992   2.2334990  72.8259997
  58.0219992   1.6894990  74.2239997  58.9159992   2.4064990  75.0809997
  59.9629992   2.1864990  74.7819997  58.9179992   3.5064990  74.9219997
  58.6369992   2.0414990  76.5209997  58.8209992   0.9854990  76.6559997
  59.4479992   2.4024990  77.1359997  57.2439992   2.3424990  77.0119997
  56.1149992   1.6144990  76.3089997  56.0209992   1.9024990  75.2729997
  56.3039992   0.5504990  76.3229997  55.1659992   1.8024990  76.7879997
  57.1259992   2.2324990  78.5069997  57.8639992   2.7384990  79.1109997
  56.1679992   2.6644990  78.7579997  57.1879992   1.2024990  78.8269997
  57.0169992   3.7824990  76.6999997  57.8959992   4.3584990  76.9479997
  56.1889992   4.1384990  77.2939997  56.8459992   4.0134990  75.6589997
  58.8439992   2.9644990  72.2559997  56.4509992   3.0684990  72.9519997
  56.0409992  -1.2095010  70.7249997  56.6719992  -2.4115010  70.9389997
  56.8319992  -3.0235010  71.9419997  57.0989992  -2.9015010  69.5459997
  56.2559992  -2.7195010  68.8449997  57.2739992  -3.9945010  69.6409997
  58.3099992  -2.1515010  69.0109997  59.1709992  -2.3025010  69.6959997
  57.9109992  -1.1155010  68.9809997  58.6849992  -2.4315010  67.5669997
  59.6399992  -1.9535010  67.2609997  57.9169992  -1.9315010  66.9379997
  58.7199992  -3.9475010  67.2559997  57.6979992  -4.3695010  67.3669997
  59.4999992  -4.4945010  67.8279997  59.1159992  -4.1585010  65.7899997
  59.2079992  -5.2585010  65.6579997  60.1159992  -3.7535010  65.5249997
  57.9969992  -3.7765010  64.8229997  57.3519992  -2.9355010  65.1549997
  57.2479992  -4.5925010  64.7379997  58.5279992  -3.4275010  63.3839997
  59.2009992  -4.2955010  63.2179997  59.0089992  -2.4265010  63.3909997
  57.4119992  -3.3555010  62.3279997  56.4459992  -2.9775010  62.6959997
  57.4889992  -3.8285010  61.0599997  56.5779992  -3.7455010  60.4489997
  58.6699992  -4.5695010  60.4039997  58.3789992  -5.6395010  60.3389997
  59.4779992  -4.5855010  61.1669997  59.1739992  -3.9625010  59.1139997
  58.4669992  -4.2735010  58.3149997  60.1559992  -4.4135010  58.8569997
  59.2219992  -2.3815010  59.0699997  59.8869992  -1.9535010  59.8509997
  58.2049992  -2.0005010  59.3069997  59.7859992  -1.8225010  57.7539997
  60.7649992  -2.3255010  57.6079997  60.0109992  -0.7375010  57.8319997
  58.8219992  -2.0745010  56.6019997  57.8489992  -2.2135010  57.1219997
  58.8239992  -3.1195010  56.2279997  58.5379992  -0.9235010  55.5899997
  59.4669992  -0.9405010  54.9809997  58.4079992   0.0424990  56.1239997
  57.3509992  -1.0965010  54.6499997  57.3629992  -0.2045010  53.9879997
  56.4269992  -0.8755010  55.2249997  57.2289992  -2.3475010  53.8329997
  57.8879992  -3.1335010  54.2599997  57.5549992  -2.1255010  52.7949997
  56.1709992  -2.6875010  53.8439997  29.9749992 106.0564990  56.3369997
  31.0799992 106.1534990  56.2869997  29.7159992 107.1264990  56.4929997
  29.7269992 105.5824990  55.3639997  29.5939992 105.2724990  57.5389997
  28.4899992 105.1964990  57.6299997  29.9749992 104.2644990  57.2699997
  30.2919992 105.7174990  58.8349997  31.3909992 105.7324990  58.6679997
  30.0779992 106.7784990  59.0819997  29.8579992 104.7874990  59.9849997
  28.7819992 105.0324990  60.1119997  30.1079992 103.7384990  59.7149997
  30.6279992 105.0834990  61.2639997  31.6849992 104.7424990  61.2619997
  30.6589992 106.1864990  61.3919997  29.9119992 104.2914990  62.3699997
  28.8099992 104.2784990  62.2279997  30.1359992 103.2044990  62.3289997
  30.2399992 104.8484990  63.7919997  31.2899992 105.2124990  63.8019997
  29.5279992 105.6684990  64.0229997  30.0299992 103.8154990  64.9229997
  28.9859992 103.4394990  64.9759997  30.7329992 103.0224990  64.5879997
  30.5779992 104.3154990  66.2889997  30.5079992 103.6254990  67.1569997
  31.6619992 104.5444990  66.2149997  29.8509992 105.5134990  66.7489997
  29.9319992 106.3604990  66.0349997  28.7769992 105.3084990  66.9469997
  30.5279992 106.0544990  68.0609997  30.4189992 105.2784990  68.8499997
  31.6259992 106.1554990  67.9199997  29.9839992 107.4104990  68.5039997
  30.7839992 108.1724990  68.6179997  29.3949992 107.7474990  67.6239997
  29.1209992 107.5264990  69.7669997  29.8309992 107.4544990  70.6189997
  28.6699992 108.5214990  69.9649997  28.0069992 106.5064990  69.8849997
  27.4669992 106.3804990  68.9219997  28.5029992 105.5184990  69.9959997
  27.1689992 106.6354990  71.1409997  27.7729992 106.8234990  72.0539997
  26.4499992 107.4814990  71.1139997  26.2599992 105.3954990  71.4079997
  25.2469992 105.2504990  70.6859997  26.6639992 104.6424990  72.4189997
  26.0249992 103.3924990  72.6529997  26.0119992 103.1874990  73.7449997
  24.9809992 103.3364990  72.2789997  26.7679992 102.2094990  71.8939997
  26.3269992 101.2204990  72.1439997  28.2329992 102.2254990  72.3529997
  28.1939992 101.9634990  73.4319997  28.7819992 101.3594990  71.9249997
  28.8769992 103.4954990  72.0439997  30.3589992 103.6994990  72.6349997
  30.3939992 103.1314990  74.1419997  31.5649992 103.2484990  74.8619997
  32.2539992 102.3974990  74.6719997  32.0259992 104.2524990  74.7459997
  31.1759992 102.9734990  76.3669997  30.6099992 102.0564990  76.4379997
  32.1609992 102.8744990  76.7989997  30.5359992 104.0474990  77.2309997
  30.9399992 105.4454990  76.8049997  32.0139992 105.3704990  76.8949997
  30.7869992 105.6234990  75.7509997  30.4979992 106.1814990  77.4609997
  29.0359992 103.9074990  77.0929997  28.6029992 103.1104990  77.6789997
  28.3949992 104.7364990  77.3559997  28.8649992 103.7314990  76.0419997
  30.8939992 103.8014990  78.6749997  30.8849992 102.7334990  78.8329997
  30.2119992 104.4204990  79.2389997  31.8259992 104.2554990  78.9789997
  31.2769992 102.8744990  71.8899997  30.6329992 105.1644990  72.7279997
  26.8029992 102.3654990  70.4709997  27.4349992 101.5524990  69.6289997
  28.0099992 100.5054990  69.8769997  27.1499992 101.8384990  68.1759997
  26.5839992 100.9744990  67.7679997  28.0929992 101.8904990  67.5909997
  26.3889992 103.2064990  68.0299997  27.0479992 103.9094990  68.5829997
  25.4169992 103.2244990  68.5679997  26.1919992 103.7054990  66.6909997
  25.6869992 103.0384990  65.9599997  27.2309992 103.8514990  66.3259997
  25.4839992 105.0934990  66.4889997  25.9189992 105.8034990  67.2239997
  24.4089992 104.8484990  66.6239997  25.8549992 105.7174990  65.1329997
  26.8929992 106.1104990  65.1859997  25.1019992 106.5294990  65.0329997
  25.7109992 104.9344990  63.8059997  26.2729992 103.9934990  63.9829997
  26.2289992 105.5764990  63.0609997  24.2589992 104.5524990  63.3819997
  23.9019992 103.9694990  64.2589997  24.4129992 103.8744990  62.5159997
  23.3539992 105.6784990  63.0549997  23.1699992 106.4364990  63.8299997
  22.9409992 105.9234990  61.7689997  22.2679992 106.7624990  61.5379997
  23.3069992 105.1494990  60.5399997  22.4419992 104.5624990  60.1649997
  23.9879992 104.2924990  60.7269997  24.0369992 105.9624990  59.4459997
  25.0349992 106.2344990  59.8499997  23.4549992 106.8844990  59.2349997
  24.2089992 105.2094990  58.1499997  23.3709992 105.4614990  57.4669997
  24.1849992 104.1574990  58.5059997  25.5959992 105.2234990  57.5359997
  26.2889992 104.9804990  58.3699997  25.8419992 106.2674990  57.2449997
  25.8219992 104.1654990  56.3259997  26.8309992 104.3924990  55.9189997
  25.0289992 104.4314990  55.5949997  25.8239992 102.6414990  56.8079997
  24.8069992 102.2144990  56.6829997  26.0449992 102.5684990  57.8949997
  26.7479992 101.7874990  55.9709997  27.7789992 101.9994990  56.3269997
  26.7669992 102.1054990  54.9059997  26.5939992 100.2524990  56.2609997
  25.5209992  99.9874990  56.1489997  26.8619992 100.1134990  57.3299997
  27.2099992  99.6724990  55.5409997   5.3049992  62.0804990  59.1379997
   5.6219992  61.7584990  58.1229997   4.5109992  62.8324990  58.9409997
   5.0179992  61.1664990  59.6999997   6.3869992  62.7174990  60.0239997
   5.8699992  62.8054990  61.0039997   7.2879992  62.0674990  60.0639997
   6.8679992  64.1464990  59.6049997   6.9859992  64.1544990  58.4999997
   6.0989992  64.8704990  59.9479997   8.2799992  64.4384990  60.2269997
   9.0089992  63.7784990  59.7089997   8.4379992  65.4954990  59.9259997
   8.3219992  64.3614990  61.7109997   7.5169992  65.0244990  62.0939997
   8.1109992  63.3784990  62.1839997   9.5499992  64.9574990  62.3609997
  10.3229992  64.9394990  61.5639997   9.2539992  66.0014990  62.6009997
   9.9979992  64.2514990  63.6729997  10.1459992  63.1504990  63.6489997
  10.9169992  64.7134990  64.0939997   8.9309992  64.4264990  64.7849997
   8.4999992  65.4444990  64.8999997   8.0909992  63.7694990  64.4729997
   9.4229992  63.9634990  66.1279997  10.1319992  64.7604990  66.4389997
   8.5729992  64.0964990  66.8309997  10.2359992  62.6574990  66.2009997
   9.4999992  61.8254990  66.2189997  11.0359992  62.6314990  65.4309997
  10.9029992  62.5334990  67.5989997  11.5359992  61.6294990  67.7299997
  11.6189992  63.3794990  67.6699997   9.9199992  62.5674990  68.8399997
   8.8489992  62.5094990  68.5509997  10.0139992  61.6314990  69.4299997
  10.2409992  63.7764990  69.7129997  10.9909992  63.5614990  70.5029997
  10.6279992  64.6384990  69.1279997   8.9749992  64.2754990  70.4859997
   8.2709992  64.7404990  69.7639997   8.3499992  63.3804990  70.6969997
   9.3349992  65.1074990  71.7309997   9.8249992  64.5624990  72.5659997
  10.0489992  65.8344990  71.2869997   7.9759992  65.7814990  72.3059997
   7.1909992  66.4034990  71.5819997   7.7569992  65.5724990  73.6099997
   6.4259992  65.9154990  74.0929997   6.4909992  66.2464990  75.1519997
   5.9419992  66.7294990  73.5119997   5.5049992  64.6704990  73.9019997
   4.4699992  64.9474990  74.1979997   6.0189992  63.5424990  74.8289997
   5.7219992  63.8854990  75.8429997   5.4419992  62.6654990  74.4639997
   7.3919992  63.4514990  74.8309997   8.1429992  62.2654990  75.6809997
   9.6459992  62.7464990  75.5319997  10.7099992  62.1024990  76.2489997
  11.4019992  62.8884990  76.6179997  10.2709992  61.5544990  77.1099997
  11.2529992  61.0824990  75.3059997  11.9059992  60.3554990  75.7649997
  10.4389992  60.4484990  74.9869997  11.9429992  61.7234990  74.0899997
  12.8529992  62.8314990  74.3289997  13.4679992  63.1624990  73.5059997
  12.3319992  63.6894990  74.7249997  13.4459992  62.5284990  75.1799997
  12.6099992  60.6174990  73.2559997  11.9389992  59.7814990  73.1279997
  12.9199992  61.0384990  72.3099997  13.5359992  60.2564990  73.6799997
  10.9319992  62.3334990  73.1229997  10.4189992  63.1564990  73.5989997
  10.2689992  61.5184990  72.8729997  11.4839992  62.7184990  72.2779997
   7.6489992  62.2994990  77.0719997   7.9959992  60.9514990  75.0019997
   5.6309992  64.3474990  72.5349997   4.7819992  63.5304990  71.9089997
   3.7629992  62.9854990  72.3659997   5.1129992  63.3884990  70.3939997
   5.7879992  64.1744990  69.9939997   4.1549992  63.5354990  69.8509997
   5.6749992  61.9924990  70.1619997   4.9099992  61.2324990  70.4269997
   6.5949992  61.8304990  70.7639997   5.9009992  61.5854990  68.6709997
   6.2959992  62.5084990  68.1959997   4.8939992  61.3934990  68.2439997
   6.7169992  60.3854990  68.3709997   6.2629992  59.5044990  68.8739997
   7.7979992  60.5344990  68.5829997   6.7269992  60.1094990  66.9129997
   7.3109992  60.9074990  66.4079997   5.6859992  60.1834990  66.5309997
   7.4039992  58.7594990  66.5529997   6.8269992  57.9214990  66.9999997
   8.4119992  58.7584990  67.0189997   7.5499992  58.5474990  64.9999997
   7.9319992  57.5044990  64.9649997   8.2939992  59.3204990  64.7099997
   6.2459992  58.7144990  64.2849997   5.2839992  58.3934990  64.7099997
   6.0989992  59.2614990  63.1039997   5.0579992  59.2394990  62.7519997
   7.0839992  59.8834990  62.2049997   7.4149992  60.7944990  62.7479997
   6.5069992  60.3084990  61.3569997   8.1699992  58.9294990  61.6019997
   7.6449992  58.0644990  61.1439997   8.9169992  58.6014990  62.3559997
   8.9139992  59.6484990  60.4589997   9.9779992  59.3764990  60.6249997
   8.8999992  60.7594990  60.4349997   8.4769992  59.1114990  59.1229997
   7.3729992  59.1984990  59.0299997   8.7649992  58.0624990  58.8989997
   9.0719992  59.8464990  57.9609997  10.1159992  60.0604990  58.2759997
   8.5609992  60.8254990  57.8359997   9.0909992  59.1454990  56.6289997
   8.2249992  58.4564990  56.5319997   9.9769992  58.4924990  56.4789997
   8.9339992  60.0494990  55.3579997   7.9529992  60.5684990  55.3249997
   8.8979992  59.3574990  54.4889997   9.9999992  61.1304990  55.0889997
  11.0469992  60.7944990  55.2469997   9.8689992  61.9654990  55.8099997
  10.0709992  61.5184990  54.0509997  10.3069992  73.4024990  53.3579997
  10.4129992  74.4744990  53.6289997   9.4149992  73.0714990  53.9319997
  10.0779992  73.3324990  52.2729997  11.5669992  72.6424990  53.6309997
  11.5049992  71.6564990  53.1219997  12.3549992  73.3914990  53.4039997
  11.6669992  72.3494990  55.1709997  10.9419992  71.6334990  55.6129997
  12.6229992  71.7844990  55.1829997  11.7979992  73.6514990  55.9809997
  12.5599992  74.3214990  55.5279997  10.8159992  74.1634990  55.8949997
  12.0879992  73.4694990  57.5139997  12.8329992  72.6874990  57.7719997
  12.4079992  74.4484990  57.9299997  10.7919992  73.1244990  58.3549997
  10.5149992  72.0804990  58.0919997  11.0819992  73.0884990  59.4269997
   9.6179992  74.0714990  58.1119997   9.9669992  75.1224990  58.1989997
   9.1859992  73.8574990  57.1109997   8.3649992  73.7824990  59.0569997
   7.5069992  74.2694990  58.5459997   8.0669992  72.7124990  59.0529997
   8.5449992  74.3604990  60.4749997   9.1359992  75.2954990  60.3719997
   7.4829992  74.5674990  60.7289997   9.1579992  73.3234990  61.5199997
  10.2689992  73.3134990  61.5149997   8.7659992  73.6844990  62.4949997
   8.6859992  71.7784990  61.4459997   7.5809992  71.7544990  61.5609997
   9.0529992  71.2834990  60.5209997   9.2259992  71.0714990  62.6619997
   8.9379992  69.9994990  62.6249997  10.3329992  70.9904990  62.6369997
   8.4839992  71.3954990  64.0279997   7.6449992  72.1084990  63.8839997
   8.0889992  70.4654990  64.4899997   9.4109992  72.1644990  65.0429997
  10.0559992  72.8794990  64.4889997   8.7959992  72.7774990  65.7359997
  10.3499992  71.2144990  65.8349997   9.7039992  70.4414990  66.3029997
  11.1399992  70.5684990  65.3959997  10.9989992  71.9854990  67.0349997
  11.9339992  72.7664990  66.9599997  10.3989992  71.5504990  68.1069997
  10.9409992  71.7074990  69.3829997  11.8049992  71.0234990  69.5259997
  11.5409992  72.6224990  69.5739997   9.8869992  71.5854990  70.4619997
   9.2189992  72.4414990  70.2249997  10.5029992  71.7894990  71.8639997
  11.1069992  72.7194990  71.9179997   9.6609992  71.9394990  72.5729997
  11.4069992  70.8814990  72.2569997  11.7599992  70.4594990  73.7249997
  10.3139992  70.6224990  74.3989997  10.3159992  71.3424990  75.6109997
  10.6689992  70.6984990  76.4439997  10.9269992  72.2624990  75.4919997
   8.9029992  71.8574990  75.9669997   9.1519992  72.2544990  76.9399997
   8.6709992  72.6534990  75.2749997   7.7039992  70.8674990  76.0959997
   7.4219992  70.1374990  74.7749997   8.2419992  69.5744990  74.3539997
   6.5869992  69.4744990  74.9439997   7.1379992  70.8514990  74.0159997
   7.9209992  69.9864990  77.3089997   8.8339992  69.4334990  77.1409997
   7.9899992  70.6894990  78.1259997   7.1239992  69.2894990  77.5209997
   6.4319992  71.6194990  76.3679997   6.6669992  72.3444990  77.1339997
   5.6959992  70.9354990  76.7629997   6.0399992  72.0934990  75.4799997
  12.2249992  69.0234990  73.7419997  12.6689992  71.4664990  74.2249997
   9.2249992  70.3824990  70.2949997   8.2389992  70.0964990  71.0959997
   7.7979992  70.8084990  71.9879997   7.7079992  68.6274990  70.9289997
   7.5999992  68.2844990  71.9799997   8.2229992  67.9194990  70.2449997
   6.2009992  68.7064990  70.4819997   5.6519992  69.5404990  70.9699997
   5.8519992  67.7254990  70.8669997   6.0399992  68.7794990  68.9229997
   6.3519992  69.7784990  68.5509997   4.9759992  68.5874990  68.6679997
   6.9309992  67.8114990  68.0569997   6.7239992  66.7834990  68.4229997
   7.9939992  68.1034990  68.1959997   6.5209992  67.7904990  66.5939997
   5.7269992  68.5564990  66.4699997   5.9859992  66.8444990  66.3609997
   7.6929992  68.0734990  65.6439997   8.0839992  69.1004990  65.8069997
   7.3009992  68.1654990  64.6089997   8.8139992  67.0014990  65.7069997
   8.3769992  66.1384990  65.1619997   9.1449992  66.7854990  66.7449997
  10.0059992  67.4904990  64.9559997  10.5549992  68.2204990  65.5699997
  10.7239992  67.1234990  63.8519997  11.6399992  67.6274990  63.5119997
  10.3289992  65.8604990  63.0389997   9.6289992  65.1304990  63.4999997
  11.2419992  65.2624990  62.8309997   9.5999992  66.1514990  61.7269997
   9.5309992  65.2254990  61.1169997  10.3189992  66.7894990  61.1699997
   8.2489992  66.8134990  61.8669997   8.4009992  67.7584990  62.4319997
   7.5389992  66.2144990  62.4749997   7.5729992  67.0614990  60.4949997
   6.5029992  67.3134990  60.6599997   7.6759992  66.2094990  59.7899997
   8.0919992  68.3804990  59.9059997   9.1729992  68.2804990  59.6699997
   7.8679992  69.2814990  60.5169997   7.4209992  68.5384990  58.5009997
   6.4479992  69.0674990  58.5859997   7.1019992  67.5484990  58.1119997
   8.1839992  69.1364990  57.2879997   7.7599992  68.6974990  56.3599997
   9.2849992  69.0194990  57.3739997   7.9999992  70.6884990  57.2089997
   6.9929992  71.1084990  56.9979997   8.6489992  70.9804990  56.3559997
   8.3739992  71.0614990  58.1859997 120.6889992  53.9354990  53.6719997
 119.8869992  54.6054990  53.2949997 120.7589992  53.0154990  53.0529997
 121.6349992  54.5104990  53.5859997 120.4439992  53.7124990  55.1489997
 120.1219992  54.6964990  55.5509997 119.5919992  52.9984990  55.1429997
 121.7139992  53.1884990  55.8679997 122.5719992  53.8274990  55.5649997
 121.5969992  53.3624990  56.9589997 121.9669992  51.6794990  55.5739997
 121.0669992  51.1374990  55.9329997 122.0299992  51.4714990  54.4839997
 123.2689992  51.0834990  56.1239997 123.5559992  50.4224990  55.2779997
 124.0939992  51.8254990  56.1819997 123.3379992  50.3244990  57.4619997
 122.5389992  49.5804990  57.2569997 124.3539992  49.8784990  57.5109997
 122.9979992  51.2164990  58.6489997 123.7419992  52.0374990  58.7249997
 122.0769992  51.8154990  58.4799997 122.5849992  50.4394990  59.9709997
 122.5599992  51.2414990  60.7399997 121.5499992  50.0384990  59.9199997
 123.5649992  49.3254990  60.4059997 123.2999992  48.4934990  59.7189997
 124.5719992  49.5964990  60.0229997 123.1849992  48.7074990  61.7279997
 122.2789992  48.0644990  61.6969997 123.9699992  47.9804990  62.0269997
 123.2239992  49.7414990  62.8769997 124.1439992  50.3254990  63.0909997
 122.4529992  50.4884990  62.5899997 122.9039992  49.1024990  64.2309997
 121.8719992  48.6984990  64.3059997 123.5169992  48.1814990  64.3329997
 123.2469992  50.0384990  65.3949997 124.3269992  50.2944990  65.3339997
 122.7769992  51.0434990  65.3409997 122.9309992  49.5024990  66.7879997
 122.9429992  48.3914990  66.7769997 123.6939992  49.8284990  67.5259997
 121.6529992  50.2144990  67.3669997 121.9129992  51.2754990  67.5659997
 120.7509992  50.2064990  66.7179997 121.2619992  49.3894990  68.6019997
 121.6169992  48.2534990  68.7629997 120.6389992  50.1804990  69.4209997
 120.3969992  49.7094990  70.7489997 119.6439992  50.2554990  71.3569997
 120.0859992  48.6444990  70.8039997 121.7279992  49.8104990  71.6619997
 122.2679992  48.8834990  71.3729997 121.4069992  49.8934990  73.1979997
 120.7009992  49.1014990  73.5279997 122.4339992  49.7004990  73.5739997
 120.9459992  51.1654990  73.6079997 120.8019992  51.4764990  75.1919997
 120.6459992  53.0614990  75.1809997 120.0539992  53.6494990  73.9979997
 120.2559992  54.7384990  73.9149997 120.4519992  53.3214990  73.0139997
 118.5079992  53.5624990  73.9659997 118.0929992  53.8924990  73.0249997
 118.2159992  52.5594990  74.2389997 117.7289992  54.4574990  74.9599997
 118.0529992  54.0914990  76.3659997 119.0769992  54.3754990  76.5579997
 117.3779992  54.5724990  77.0589997 117.9329992  53.0354990  76.5559997
 117.9499992  55.8974990  74.7099997 117.0419992  56.3764990  75.0459997
 118.8259992  56.2304990  75.2459997 118.0839992  56.0534990  73.6489997
 116.2279992  54.2764990  74.8449997 115.8999992  54.5754990  73.8599997
 115.8129992  54.9004990  75.6229997 116.0929992  53.2384990  75.1089997
 119.5889992  50.8724990  75.7369997 122.0569992  51.1384990  75.9089997
 122.4139992  50.9834990  71.2419997 123.6929992  51.1254990  71.6179997
 124.3689992  50.3174990  72.3029997 124.2009992  52.4704990  71.1289997
 124.7919992  52.8294990  71.9979997 123.3219992  53.1354990  70.9879997
 125.1009992  52.3564990  69.8879997 125.3369992  51.3204990  69.5609997
 126.0249992  52.9714990  69.9189997 124.1949992  52.9394990  68.7709997
 123.1689992  52.5134990  68.7999997 124.5779992  52.4844990  67.8329997
 124.1449992  54.4574990  68.6069997 125.1639992  54.8264990  68.3589997
 123.8639992  54.8614990  69.6039997 123.0849992  54.9684990  67.6179997
 122.1809992  54.3244990  67.6649997 123.5129992  54.7844990  66.6089997
 122.7679992  56.4384990  67.8159997 123.6949992  57.0444990  67.8999997
 122.4159992  56.5214990  68.8659997 121.7829992  57.1204990  66.8629997
 121.9599992  57.0004990  65.7719997 121.9809992  58.2074990  66.9779997
 120.4569992  56.7064990  67.3179997 120.3189992  56.8794990  68.3959997
 119.5369992  56.0634990  66.5769997 118.4989992  56.0584990  66.9409997
 119.7149992  55.6144990  65.1549997 120.7669992  55.6804990  64.8029997
 119.0689992  56.2684990  64.5309997 119.2899992  54.1444990  64.9449997
 118.1899992  54.1724990  65.0939997 119.8649992  53.5194990  65.6619997
 119.6109992  53.6864990  63.5539997 120.6979992  53.6984990  63.3249997
 119.1879992  54.3604990  62.7779997 118.9969992  52.2934990  63.2799997
 117.9169992  52.3734990  63.5259997 119.4279992  51.5624990  63.9969997
 119.3609992  51.8434990  61.8569997 119.3399992  50.7354990  61.7919997
 120.3189992  52.2264990  61.4439997 118.4159992  52.3264990  60.7249997
 118.2239992  53.4124990  60.8539997 117.4729992  51.7454990  60.8079997
 119.1139992  52.1644990  59.3569997 119.6909992  51.2144990  59.3769997
 119.7499992  53.0064990  59.0099997 118.1109992  51.9294990  58.1929997
 117.3699992  52.7534990  58.1239997 117.4159992  51.1414990  58.5529997
 118.4279992  51.6424990  57.1669997  88.9089992 125.8234990  57.1789997
  89.2349992 125.9184990  56.1209997  87.9429992 126.3734990  57.2089997
  88.7019992 124.7334990  57.2419997  90.0519992 126.3844990  58.0579997
  90.7869992 125.5564990  58.1439997  90.5079992 127.2494990  57.5309997
  89.6609992 126.6974990  59.4839997  89.1399992 127.6694990  59.6199997
  88.8429992 126.0344990  59.8389997  90.8319992 126.5274990  60.4579997
  91.2389992 125.5274990  60.1979997  91.6769992 127.2324990  60.3079997
  90.4039992 126.4844990  61.9559997  89.9079992 127.4774990  62.0089997
  89.5359992 125.8164990  62.1439997  91.5409992 126.3214990  62.9179997
  91.8849992 125.2694990  62.8199997  92.2819992 127.0804990  62.5869997
  91.0119992 126.7384990  64.3029997  90.0429992 126.2164990  64.4519997
  91.7029992 126.2904990  65.0489997  90.8919992 128.1874990  64.4399997
  91.8199992 128.7644990  64.2399997  90.0859992 128.6114990  63.8029997
  90.3969992 128.4354990  65.8129997  89.3549992 128.0674990  65.9359997
  90.9989992 127.9254990  66.5949997  90.2659992 129.8994990  66.1939997
  91.2379992 130.3774990  65.9449997  89.4949992 130.3754990  65.5509997
  89.9559992 130.1054990  67.6589997  90.7739992 129.6694990  68.2699997
  90.0139992 131.1774990  67.9479997  88.6199992 129.5674990  68.1499997
  87.8659992 129.9204990  67.4139997  88.5759992 128.4674990  67.9999997
  88.0539992 130.0294990  69.4939997  88.8219992 129.8104990  70.2669997
  87.9289992 131.1324990  69.4549997  86.7929992 129.4154990  69.9379997
  85.9729992 129.6074990  69.2139997  87.0709992 128.3394990  69.9129997
  86.3429992 129.9104990  71.3419997  87.1589992 129.7864990  72.0849997
  86.2149992 131.0134990  71.3709997  84.9889992 129.2434990  71.7939997
  83.9539992 129.1724990  71.1939997  85.1579992 128.8604990  73.0409997
  84.1929992 127.8954990  73.5419997  83.5289992 128.5784990  74.1139997
  83.5569992 127.3894990  72.7849997  84.8219992 126.8674990  74.5149997
  84.0009992 126.3174990  75.0229997  85.6409992 127.6364990  75.6859997
  84.9629992 128.5124990  75.7659997  85.6459992 127.0424990  76.6249997
  86.9679992 127.9454990  75.2839997  87.5789992 129.3654990  75.4959997
  89.0749992 129.2314990  75.1339997  89.9929992 128.6174990  76.0589997
  90.2509992 129.4494990  76.7479997  89.5579992 127.7474990  76.5959997
  91.2519992 128.1664990  75.1639997  91.5969992 129.0504990  74.6489997
  91.9669992 127.8184990  75.8949997  91.0679992 127.0344990  74.1939997
  90.3679992 127.5204990  73.0019997  90.6909992 128.4374990  72.5319997
  90.4499992 126.7984990  72.2029997  89.3099992 127.6714990  73.1599997
  92.5279992 126.6094990  73.7859997  92.9909992 126.1204990  74.6299997
  92.4979992 125.9084990  72.9659997  93.1769992 127.4264990  73.5089997
  90.2619992 125.9544990  74.8959997  89.2519992 126.2924990  75.0779997
  90.7259992 125.6864990  75.8329997  90.4169992 125.0724990  74.2919997
  86.9569992 130.2864990  74.5149997  87.4399992 129.6654990  76.9409997
  85.7319992 126.0214990  73.7449997  86.1339992 124.9424990  74.4429997
  85.6859992 124.6394990  75.5429997  87.1479992 124.1174990  73.6169997
  86.6329992 123.1694990  73.3499997  88.0389992 123.9564990  74.2609997
  87.4599992 124.8904990  72.2749997  87.8099992 125.9224990  72.4869997
  86.5539992 124.8714990  71.6319997  88.6049992 124.1894990  71.5419997
  88.6639992 123.0804990  71.5749997  89.3869992 124.4744990  72.2779997
  88.9289992 124.8724990  70.2159997  89.9229992 124.4854990  69.9079997
  88.9949992 125.9594990  70.4389997  88.0069992 124.5774990  69.0019997
  86.9789992 124.4444990  69.3999997  88.1959992 123.6334990  68.4479997
  87.7829992 125.7454990  68.1049997  88.6439992 125.7374990  67.4019997
  87.7479992 126.6324990  68.7729997  86.4539992 125.5274990  67.2229997
  85.6969992 126.2014990  67.6789997  86.0499992 124.5134990  67.4289997
  86.5839992 125.6664990  65.7419997  86.6209992 124.6724990  65.2719997
  86.6029992 126.8514990  65.0639997  86.5479992 126.7094990  63.9749997
  86.4649992 128.2704990  65.5639997  87.3999992 128.8034990  65.2869997
  86.3549992 128.2494990  66.6699997  85.3029992 129.1124990  64.9799997
  85.1169992 130.0684990  65.5139997  84.4189992 128.4814990  65.2139997
  85.3149992 129.3874990  63.4449997  84.3479992 129.8944990  63.2359997
  85.3979992 128.3764990  62.9919997  86.4919992 130.3564990  63.0169997
  87.3409992 130.3064990  63.7319997  86.1949992 131.4124990  62.8399997
  87.0239992 129.9834990  61.6249997  86.1319992 129.8834990  60.9699997
  87.5929992 129.0304990  61.5799997  88.0109992 131.0784990  61.0749997
  88.9189992 130.9144990  61.6939997  87.6129992 132.0724990  61.3709997
  88.1459992 131.0004990  59.6279997  88.6699992 130.0464990  59.4029997
  88.8649992 131.8144990  59.3919997  87.0049992 131.1914990  58.6139997
  86.2909992 130.3404990  58.6159997  87.4389992 131.2324990  57.5919997
  86.4359992 132.1404990  58.7159997  66.9259992 126.5234990  57.8149997
  66.8519992 125.7084990  58.5659997  68.0049992 126.6184990  57.5659997
  66.2669992 126.2274990  56.9709997  66.4229992 127.8644990  58.3749997
  66.4079992 128.6694990  57.6099997  65.3669992 127.7924990  58.7119997
  67.2069992 128.5304990  59.5699997  67.5309992 129.5564990  59.2929997
  66.4889992 128.7334990  60.3929997  68.3999992 127.7324990  60.1699997
  68.1239992 126.6564990  60.1979997  69.2819992 127.6864990  59.4949997
  68.9719992 128.2714990  61.4889997  69.6709992 127.5164990  61.9089997
  69.4589992 129.2684990  61.4349997  67.9299992 128.3714990  62.6469997
  68.6189992 128.4414990  63.5159997  67.2689992 129.2634990  62.6049997
  67.0919992 127.1124990  62.7669997  66.2999992 126.9574990  62.0029997
  67.8219992 126.2804990  62.6719997  66.4009992 126.8844990  64.0959997
  66.1009992 125.8304990  64.2849997  67.1759992 127.1684990  64.8399997
  65.1479992 127.7204990  64.2909997  65.4519992 128.7844990  64.1889997
  64.4219992 127.5204990  63.4739997  64.4339992 127.4954990  65.6009997
  63.7749992 128.3854990  65.6859997  63.7999992 126.5834990  65.6409997
  65.3229992 127.3604990  66.9229997  64.5849992 127.2884990  67.7499997
  65.9919992 126.4734990  66.9119997  66.1729992 128.6074990  67.1889997
  66.9869992 128.6584990  66.4349997  65.4359992 129.4264990  67.0479997
  66.7549992 128.5534990  68.6699997  65.9849992 128.5144990  69.4699997
  67.3199992 127.5984990  68.7179997  67.6579992 129.7194990  68.8599997
  68.4829992 129.6714990  68.1179997  67.0589992 130.6284990  68.6399997
  68.3339992 129.7874990  70.2219997  68.9629992 130.6694990  70.4649997
  67.6039992 129.7384990  71.0579997  69.3319992 128.5854990  70.4219997
  69.6999992 127.7214990  69.5369997  69.6629992 128.4154990  71.6769997
  70.6389992 127.4594990  72.0409997  70.2869992 126.4124990  71.9219997
  71.4829992 127.5854990  71.3299997  71.0059992 127.7314990  73.5459997
  72.0709992 127.4404990  73.6729997  70.0779992 126.9184990  74.4819997
  69.8869992 125.9044990  74.0699997  70.5499992 126.6784990  75.4589997
  68.8029992 127.5544990  74.6469997  67.8779992 127.5374990  75.7809997
  67.0809992 128.9114990  75.6289997  67.6179992 130.2184990  76.0119997
  67.0879992 130.6044990  76.9089997  68.6759992 130.0994990  76.3289997
  67.7509992 131.1574990  74.8039997  68.1309992 132.1114990  75.1369997
  68.4599992 130.8774990  74.0389997  66.5019992 131.4544990  73.9919997
  65.2889992 131.7984990  74.8819997  65.4399992 132.6994990  75.4589997
  64.4149992 131.9344990  74.2619997  65.1989992 130.9024990  75.4769997
  66.6589992 132.6394990  73.0079997  67.0689992 132.2914990  72.0709997
  65.6409992 132.8784990  72.7369997  67.2319992 133.4374990  73.4559997
  66.1769992 130.2644990  73.1309997  67.0189992 129.9244990  72.5459997
  65.3719992 130.5374990  72.4659997  65.7239992 129.5544990  73.8059997
  66.9669992 126.3724990  75.5389997  68.6639992 127.5994990  77.0469997
  70.8329992 129.0904990  73.9509997  71.6999992 129.9724990  73.4589997
  72.5899992 129.7254990  72.6479997  71.3689992 131.4094990  73.9839997
  71.7429992 131.3954990  75.0299997  70.2869992 131.6484990  73.9009997
  72.1679992 132.3934990  73.1569997  73.2209992 132.1004990  72.9559997
  72.1169992 133.3914990  73.6419997  71.4729992 132.6764990  71.7679997
  71.5759992 133.7524990  71.5139997  70.3909992 132.4214990  71.7679997
  72.1749992 131.9014990  70.5489997  71.7989992 130.8564990  70.5579997
  73.2559992 131.8484990  70.7979997  72.0039992 132.4824990  69.1559997
  72.4879992 133.4784990  69.0669997  70.9569992 132.6624990  68.8319997
  72.4169992 131.3904990  68.0719997  71.9669992 130.3894990  68.2459997
  73.5179992 131.3594990  68.2159997  72.3299992 132.1174990  66.6599997
  72.9829992 131.5284990  65.9799997  72.8099992 133.1054990  66.8219997
  70.9139992 132.2404990  66.1749997  70.1479992 132.3414990  66.9569997
  70.4429992 132.0834990  64.9129997  69.3559992 132.1844990  64.7769997
  71.1549992 131.7494990  63.6559997  70.7319992 130.8874990  63.0969997
  72.1969992 131.4714990  63.9229997  71.2189992 132.9164990  62.6379997
  71.4789992 133.8854990  63.1139997  70.2039992 133.0104990  62.1969997
  72.3379992 132.7144990  61.6319997  73.3189992 132.8454990  62.1369997
  72.3749992 133.4234990  60.7769997  72.2829992 131.3114990  60.8979997
  72.3629992 130.4964990  61.6489997  73.1629992 131.2974990  60.2199997
  70.9909992 130.8904990  60.2229997  70.1369992 131.0794990  60.9079997
  70.8569992 129.7894990  60.1489997  70.7239992 131.6934990  58.9399997
  71.5319992 131.4604990  58.2139997  70.7129992 132.7634990  59.2409997
  69.3839992 131.3774990  58.2409997  68.5449992 131.7764990  58.8499997
  69.2889992 130.2734990  58.1649997  69.2369992 132.0644990  56.8899997
  68.2059992 131.9774990  56.4849997  69.9149992 131.5074990  56.2079997
  69.4919992 133.1164990  57.1369997 116.0319992  37.5724990  58.0099997
 116.0389992  37.7504990  59.1059997 116.6079992  38.3274990  57.4339997
 116.5349992  36.6014990  57.8169997 114.6469992  37.6884990  57.3319997
 114.3099992  38.7284990  57.5279997 114.8659992  37.6194990  56.2449997
 113.6829992  36.5854990  57.6719997 112.7829992  36.7364990  57.0389997
 114.1569992  35.6184990  57.3999997 113.2449992  36.4564990  59.1859997
 112.7569992  35.4614990  59.2629997 114.1429992  36.3164990  59.8249997
 112.3589992  37.5824990  59.8209997 112.9489992  38.5234990  59.8119997
 111.3819992  37.7454990  59.3169997 111.9729992  37.1814990  61.2909997
 111.3389992  36.2694990  61.3249997 112.9139992  36.8294990  61.7649997
 111.4439992  38.2294990  62.2519997 112.0899992  39.1334990  62.2619997
 110.4269992  38.4594990  61.8689997 111.4919992  37.7994990  63.7469997
 110.9259992  36.8594990  63.9209997 112.5229992  37.4484990  63.9699997
 111.1999992  38.8824990  64.7829997 112.1309992  39.4824990  64.8669997
 110.2719992  39.4264990  64.5059997 111.0529992  38.4264990  66.2409997
 110.4739992  37.4784990  66.2559997 112.0749992  38.2954990  66.6559997
 110.2799992  39.4524990  67.0629997 110.7009992  40.4544990  66.8299997
 109.2039992  39.4454990  66.7839997 110.3489992  39.2764990  68.5939997
 111.2619992  39.7324990  69.0309997 109.3899992  39.7154990  68.9459997
 110.2269992  37.8114990  69.0769997 109.3639992  37.3444990  68.5549997
 111.1829992  37.2924990  68.8489997 110.0799992  37.7894990  70.5719997
 110.8789992  38.5004990  70.8739997 109.0709992  38.2374990  70.6979997
 110.1249992  36.3844990  71.2829997 109.9269992  36.5364990  72.3659997
 109.3259992  35.7274990  70.8789997 111.4859992  35.7634990  71.0599997
 111.7809992  35.2114990  69.9989997 112.3259992  36.2844990  72.0009997
 113.7049992  35.9114990  71.8479997 114.0459992  35.2084990  72.6379997
 114.0179992  35.4564990  70.8839997 114.5239992  37.3064990  71.9099997
 115.5719992  37.0464990  71.6479997 114.5359992  37.7934990  73.3679997
 114.6789992  36.9004990  74.0129997 115.4599992  38.4074990  73.4269997
 113.4249992  38.5074990  73.6719997 113.0449992  38.8674990  75.2339997
 111.6349992  39.6034990  75.2889997 111.3979992  40.5374990  74.2709997
 112.1099992  41.3884990  74.2119997 111.3829992  40.0054990  73.2949997
 110.0039992  41.2144990  74.4849997 110.1319992  41.9144990  75.2959997
 109.7459992  41.7504990  73.5829997 108.8239992  40.3394990  74.8719997
 108.9949992  39.9404990  76.2759997 108.1499992  39.3374990  76.5729997
 109.8929992  39.3584990  76.4199997 109.2549992  40.8124990  76.8579997
 107.5029992  41.1744990  74.7599997 106.7289992  40.8094990  75.4189997
 107.6409992  42.2134990  75.0189997 107.1639992  40.9394990  73.7609997
 108.8099992  39.0654990  74.0389997 108.4499992  39.1944990  73.0289997
 108.0859992  38.4064990  74.4939997 109.7599992  38.5644990  74.1559997
 112.9089992  37.5754990  75.9219997 114.0739992  39.8204990  75.6529997
 113.9119992  38.2394990  71.0139997 114.7259992  39.1184990  70.3729997
 115.9449992  39.3404990  70.5889997 113.8259992  39.9474990  69.4489997
 113.0229992  40.6074990  69.8429997 113.2739992  39.2074990  68.8319997
 114.7919992  40.6394990  68.4029997 115.4889992  39.8524990  68.0429997
 115.4769992  41.4234990  68.7899997 114.0409992  41.0834990  67.1959997
 113.2809992  40.3834990  66.7899997 114.7659992  41.3264990  66.3899997
 113.3569992  42.4254990  67.5499997 114.0779992  43.1424990  67.9969997
 112.5229992  42.3834990  68.2819997 112.7699992  43.1184990  66.3689997
 111.9729992  42.4214990  66.0319997 113.5359992  43.3014990  65.5859997
 111.9889992  44.4124990  66.7189997 112.7979992  45.0084990  67.1929997
 111.1539992  44.2034990  67.4229997 111.3579992  45.1984990  65.5279997
 110.9689992  46.1834990  65.8629997 110.6699992  44.6554990  64.8439997
 112.5459992  45.7404990  64.7029997 113.2309992  46.3754990  65.2839997
 112.8059992  45.4974990  63.4449997 113.6789992  46.0564990  63.0759997
 111.9239992  44.6094990  62.4809997 111.4539992  45.2534990  61.7079997
 111.0919992  44.0634990  62.9739997 112.7519992  43.5524990  61.6899997
 113.3529992  42.8704990  62.3279997 113.1949992  44.1724990  60.8809997
 111.8769992  42.5374990  60.9169997 111.2629992  42.0904990  61.7269997
 112.5749992  41.7354990  60.5939997 111.1429992  43.1864990  59.6589997
 111.8669992  43.9074990  59.2239997 110.2419992  43.7864990  59.9079997
 110.7299992  42.0544990  58.6219997 109.7889992  41.6304990  59.0339997
 111.5009992  41.2554990  58.5769997 110.4489992  42.5514990  57.1589997
 111.2469992  43.1514990  56.6719997 109.5859992  43.2494990  57.1089997
 110.1299992  41.3524990  56.1929997 109.7639992  41.8424990  55.2649997
 109.2599992  40.7894990  56.5939997 111.2169992  40.3934990  56.0159997
 112.1279992  40.9374990  55.6869997 111.0359992  39.6854990  55.1779997
 111.3649992  39.8234990  56.9579997  81.2469992 131.7694990  56.5709997
  81.6509992 130.8164990  56.1669997  81.9949992 132.5854990  56.4699997
  80.3479992 132.0364990  55.9749997  80.7209992 131.7324990  58.0579997
  80.2239992 132.7134990  58.2149997  79.9299992 130.9694990  58.2249997
  81.8209992 131.5574990  59.1279997  82.3199992 130.5654990  59.1049997
  82.6929992 132.2384990  59.0219997  81.4789992 131.7774990  60.6259997
  81.1129992 132.8234990  60.6949997  80.6829992 131.0424990  60.8749997
  82.5809992 131.5374990  61.6929997  83.1789992 130.6334990  61.4479997
  83.4289992 132.2404990  61.5499997  82.0399992 131.7414990  63.1439997
  81.0319992 131.2804990  63.2219997  82.8269992 131.3134990  63.8019997
  82.0359992 133.1884990  63.5929997  82.8779992 133.7544990  63.1389997
  81.0229992 133.5804990  63.3619997  82.3479992 133.4254990  65.1499997
  81.7139992 132.8144990  65.8279997  83.4179992 133.1784990  65.3129997
  82.1439992 134.9214990  65.5789997  83.0029992 135.5124990  65.1949997
  81.2329992 135.4154990  65.1779997  81.9899992 135.1714990  67.0959997
  82.8309992 134.7844990  67.7099997  81.9929992 136.2814990  67.0549997
  80.5679992 134.7094990  67.5749997  80.0439992 135.5774990  68.0289997
  80.0329992 134.3644990  66.6639997  80.8729992 133.5004990  68.4079997
  81.5459992 132.7624990  67.9209997  81.3829992 133.8124990  69.3439997
  79.6219992 132.8044990  69.0109997  80.2099992 132.1464990  69.6869997
  78.9549992 133.4604990  69.6109997  78.7889992 132.2024990  67.8929997
  78.2349992 133.0224990  67.3879997  79.3989992 131.6884990  67.1199997
  77.7799992 131.1744990  68.5269997  77.2439992 131.5484990  69.4259997
  76.9049992 131.0514990  67.8529997  78.2839992 129.7544990  68.7669997
  78.5249992 128.9724990  67.8779997  78.3469992 129.5154990  70.1159997
  78.9679992 128.2984990  70.5749997  78.2539992 127.8624990  71.3059997
  79.1099992 127.6104990  69.7149997  80.4259992 128.5124990  71.1489997
  80.8249992 127.4884990  71.3119997  80.4699992 129.2934990  72.5049997
  79.5729992 129.0614990  73.1189997  81.3469992 128.8814990  73.0489997
  80.4679992 130.6774990  72.3879997  81.4369992 131.6924990  73.1559997
  80.7399992 131.4904990  74.5789997  81.1999992 132.2534990  75.7149997
  81.0349992 133.3344990  75.5239997  80.6709992 131.9824990  76.6539997
  82.7399992 131.9904990  76.0469997  83.3229992 132.0044990  75.1379997
  83.0809992 132.7374990  76.7489997  83.0519992 130.5764990  76.5879997
  84.5589992 130.3544990  76.6609997  84.9959992 130.4904990  75.6829997
  85.0319992 131.0514990  77.3379997  84.7089992 129.3404990  77.0009997
  82.4969992 130.2624990  77.9209997  82.8949992 130.9184990  78.6819997
  81.4209992 130.2224990  77.9989997  82.9349992 129.2964990  78.1249997
  82.6519992 129.4504990  75.6629997  83.0429992 128.5314990  76.0749997
  82.8079992 129.6424990  74.6109997  81.5729992 129.4184990  75.6319997
  82.8309992 131.1454990  73.0529997  81.1969992 133.0524990  72.7009997
  81.1859992 129.0954990  70.0849997  82.4559992 128.9934990  70.1099997
  83.0869992 128.4224990  71.0199997  83.0459992 129.5694990  68.7969997
  83.9839992 130.1104990  69.0449997  82.4049992 130.3174990  68.2829997
  83.3079992 128.4074990  67.7789997  84.1419992 127.7224990  68.0409997
  83.7109992 128.9294990  66.8859997  82.0359992 127.6214990  67.3079997
  81.2489992 128.3984990  67.2049997  81.6549992 126.7894990  67.9379997
  82.3039992 126.9624990  65.9699997  83.2489992 126.3814990  66.0299997
  82.3729992 127.6734990  65.1189997  81.1049992 125.9484990  65.6619997
  81.1759992 125.1544990  66.4369997  81.1169992 125.3734990  64.7119997
  79.7379992 126.6454990  65.7279997  79.7689992 127.4534990  64.9659997
  79.4579992 126.9554990  66.7569997  78.5849992 125.7364990  65.3899997
  78.3349992 125.0834990  66.2529997  78.9899992 125.0764990  64.5929997
  77.3509992 126.3974990  64.7989997  76.4939992 126.4974990  65.4819997
  77.1149992 126.7594990  63.5669997  76.1349992 127.2214990  63.3739997
  78.0859992 126.5314990  62.4589997  77.5709992 125.9014990  61.7029997
  79.0259992 125.9904990  62.7009997  78.4849992 127.8954990  61.9179997
  78.7469992 128.5744990  62.7569997  77.6269992 128.3274990  61.3599997
  79.7919992 127.8574990  61.0489997  80.6719992 127.5754990  61.6639997
  79.9179992 128.8774990  60.6259997  79.6059992 126.9294990  59.8219997
  78.7269992 127.3954990  59.3279997  79.4269992 125.8654990  60.0879997
  80.8709992 127.1394990  59.0029997  81.6529992 126.4814990  59.4389997
  81.3829992 128.1254990  59.0279997  80.6639992 126.7774990  57.5109997
  81.5999992 126.9784990  56.9479997  80.0459992 127.6084990  57.1099997
  79.9889992 125.4594990  57.2189997  78.8959992 125.5584990  57.3939997
  80.4259992 124.6624990  57.8569997  80.1649992 124.9014990  55.7799997
  79.4519992 125.2284990  54.9929997  80.1979992 123.7914990  55.8049997
  81.1909992 125.1544990  55.4359997 101.6999992  26.0314990  58.1819997
 102.0949992  27.0324990  57.9069997 100.9799992  25.6884990  57.4079997
 102.6099992  25.3944990  58.1779997 101.0719992  26.1174990  59.5689997
 100.0879992  26.6134990  59.4279997 100.8759992  25.1154990  60.0079997
 101.7879992  26.9174990  60.6329997 102.8829992  26.7624990  60.5249997
 101.5679992  28.0044990  60.5709997 101.5679992  26.5414990  62.1029997
 101.3019992  25.4624990  62.1359997 102.5569992  26.6344990  62.5989997
 100.3879992  27.3344990  62.7039997 100.6709992  28.3704990  62.4199997
  99.4109992  27.0504990  62.2559997 100.2379992  27.2594990  64.2469997
  99.1629992  27.3444990  64.5129997 100.5899992  26.2464990  64.5349997
 100.9549992  28.3784990  65.0519997 102.0399992  28.4284990  64.8199997
 100.4739992  29.3584990  64.8469997 100.7569992  28.2704990  66.6149997
  99.6689992  28.1114990  66.7699997 101.2369992  27.3004990  66.8639997
 101.4249992  29.2554990  67.5239997 100.9939992  30.2704990  67.3899997
 101.2569992  28.9324990  68.5729997 102.9919992  29.2984990  67.2919997
 103.5279992  28.3584990  67.5449997 103.2829992  29.4574990  66.2319997
 103.7279992  30.3314990  68.0959997 103.4649992  31.3514990  67.7439997
 103.4309992  30.3004990  69.1659997 105.2459992  30.2924990  67.9749997
 105.5529992  30.7734990  67.0219997 105.4689992  30.9174990  68.8669997
 106.0159992  28.9204990  67.8699997 105.4409992  28.2224990  68.5159997
 106.0429992  28.4344990  66.8719997 107.4309992  29.1674990  68.3109997
 107.7779992  29.9944990  67.6559997 107.5209992  29.4314990  69.3859997
 108.4129992  28.0604990  67.9469997 108.4239992  27.7764990  66.8729997
 109.4379992  28.4374990  68.1529997 108.2129992  26.8704990  68.9499997
 108.9159992  25.8784990  68.9879997 107.2399992  27.0884990  69.8509997
 107.0479992  26.1884990  70.9209997 106.7299992  25.1584990  70.6509997
 107.9639992  26.0344990  71.5309997 105.7889992  26.6974990  71.8459997
 106.1779992  27.6994990  72.1259997 105.7469992  25.9314990  73.2129997
 105.4959992  24.8924990  72.9109997 106.6249992  26.0044990  73.8909997
 104.6519992  26.4684990  73.9349997 103.8969992  25.4404990  74.9379997
 103.0919992  26.4224990  75.8239997 102.9209992  27.7634990  75.5739997
 102.6719992  28.3534990  76.4819997 103.8969992  28.2254990  75.3109997
 101.8699992  28.0464990  74.5499997 101.8659992  29.0954990  74.2949997
 102.0939992  27.5914990  73.5969997 100.3909992  27.7374990  74.9009997
  99.9309992  28.5834990  76.0839997  98.8829992  28.3854990  76.2519997
 100.5329992  28.3004990  76.9349997 100.0389992  29.5874990  75.6999997
  99.6209992  28.1174990  73.7019997  99.8419992  27.4634990  72.8709997
  98.5689992  27.9934990  73.9149997  99.8199992  29.1634990  73.5179997
 100.2469992  26.2944990  75.0989997 100.4959992  25.8164990  74.1639997
  99.1979992  26.1164990  75.2839997 100.9249992  25.8824990  75.8329997
 102.8639992  24.7154990  74.1689997 104.9169992  24.6634990  75.6939997
 104.5609992  26.5884990  71.1509997 103.7369992  27.5384990  71.1239997
 103.8889992  28.6534990  71.5869997 102.4929992  27.1414990  70.3529997
 102.7279992  27.1874990  69.2679997 101.7059992  27.9064990  70.5259997
 101.9809992  25.7764990  70.9239997 102.0899992  25.6984990  72.0269997
 102.7119992  25.0554990  70.4989997 100.5159992  25.5274990  70.6459997
  99.9699992  26.4564990  70.9139997 100.0699992  24.8014990  71.3579997
 100.1349992  25.2034990  69.2189997 100.3479992  26.1374990  68.6569997
  99.0479992  24.9754990  69.2579997 100.8759992  24.0374990  68.5489997
 100.6969992  23.0704990  69.0659997 101.9329992  24.3744990  68.5059997
 100.5239992  23.9114990  67.0439997  99.6969992  24.6004990  66.7689997
 100.0609992  22.9024990  66.9849997 101.8119992  24.0654990  66.1719997
 102.1389992  25.1164990  66.3249997 101.5079992  23.8414990  65.1269997
 102.8679992  23.0314990  66.6409997 102.5569992  22.2574990  67.3589997
 104.1689992  22.9164990  66.3349997 104.7919992  22.1404990  66.8029997
 104.9419992  23.9264990  65.4949997 105.9739992  24.0364990  65.8939997
 104.4779992  24.9354990  65.5229997 105.1299992  23.6594990  63.9839997
 104.1849992  23.5334990  63.4119997 105.8479992  22.8174990  63.8889997
 105.7449992  24.8454990  63.2909997 106.7199992  25.1324990  63.7399997
 105.1569992  25.7384990  63.5909997 105.7309992  24.7324990  61.7159997
 104.7019992  24.6314990  61.3089997 106.1959992  23.7344990  61.5689997
 106.3749992  25.8154990  60.8959997 107.4289992  25.9514990  61.2199997
 105.7079992  26.6784990  61.1089997 106.3979992  25.5124990  59.4149997
 106.7259992  26.4144990  58.8559997 105.3839992  25.2514990  59.0429997
 107.3329992  24.4334990  58.9479997 106.6899992  23.9594990  58.1759997
 107.4419992  23.7054990  59.7799997 108.7039992  24.6414990  58.3779997
 108.6609992  25.3724990  57.5419997 109.2129992  23.7884990  57.8809997
 109.3129992  25.0704990  59.2029997  27.8389992  21.1344990  53.8799997
  27.8239992  20.1104990  53.4499997  28.7569992  21.6844990  53.5839997
  26.9689992  21.7724990  53.6159997  27.7309992  21.0684990  55.4169997
  27.7479992  22.1194990  55.7769997  26.7339992  20.6324990  55.6419997
  28.8179992  20.2594990  56.1859997  28.6729992  19.1594990  56.1349997
  29.8259992  20.5184990  55.7989997  28.8429992  20.5994990  57.6849997
  29.6779992  21.3214990  57.8059997  27.8299992  20.9504990  57.9779997
  29.0539992  19.2494990  58.5189997  28.4879992  18.4034990  58.0729997
  30.1239992  18.9824990  58.6539997  28.3249992  19.3304990  59.8509997
  27.5909992  20.1644990  59.8849997  27.6729992  18.4454990  60.0099997
  29.1939992  19.6084990  61.0359997  29.8069992  18.7014990  61.2239997
  29.8709992  20.4794990  60.9029997  28.4729992  19.8754990  62.4439997
  28.1449992  20.9364990  62.4289997  27.5909992  19.2104990  62.5589997
  29.4319992  19.5984990  63.6009997  30.2799992  20.3044990  63.4759997
  28.8319992  19.9014990  64.4859997  30.0389992  18.1834990  63.9139997
  30.7949992  17.9974990  63.1209997  30.5739992  18.1324990  64.8869997
  29.0059992  17.0744990  63.9769997  28.2259992  17.3314990  64.7249997
  28.3709992  16.9024990  63.0819997  29.6669992  15.7174990  64.3299997
  28.9319992  14.9004990  64.1629997  30.4659992  15.4664990  63.5999997
  30.2469992  15.5514990  65.7929997  30.4339992  14.4854990  66.0449997
  31.2139992  16.0964990  65.8219997  29.2509992  16.0804990  66.9009997
  29.1129992  17.1664990  66.7139997  28.2499992  15.6164990  66.7699997
  29.6919992  15.9864990  68.3959997  28.8739992  15.8764990  69.1389997
  30.3939992  15.1274990  68.4609997  30.6159992  17.1594990  68.8289997
  31.1159992  17.9104990  68.0579997  30.8159992  17.1014990  70.2019997
  31.6659992  17.9854990  70.8879997  32.3439992  17.3134990  71.4569997
  32.2899992  18.4324990  70.0849997  30.7959992  18.8584990  71.8729997
  31.5259992  19.3784990  72.5289997  29.8899992  17.9014990  72.7079997
  29.2479992  17.3524990  71.9859997  30.4969992  17.1794990  73.2949997
  29.0439992  18.7944990  73.5699997  28.1639992  17.9624990  74.5469997
  27.0299992  19.0474990  75.1979997  26.1849992  19.8284990  74.3839997
  26.0269992  20.8494990  74.7919997  26.7249992  19.9234990  73.4179997
  24.7949992  19.1904990  74.2179997  24.2199992  19.8304990  73.5659997
  24.9649992  18.2634990  73.6909997  23.9339992  18.9144990  75.4889997
  22.5719992  18.5524990  74.9769997  21.9869992  18.3204990  75.8549997
  22.0819992  19.3424990  74.4269997  22.6299992  17.6484990  74.3899997
  24.4269992  17.7574990  76.2879997  24.4009992  16.8114990  75.7679997
  25.4519992  17.8264990  76.6199997  23.7819992  17.6624990  77.1489997
  23.8559992  20.1394990  76.4189997  23.4669992  20.9014990  75.7599997
  24.8049992  20.3834990  76.8749997  23.0709992  19.9814990  77.1439997
  27.4099992  17.0014990  73.6929997  28.9109992  17.4494990  75.6889997
  29.9449992  19.8384990  71.2359997  30.3799992  20.5754990  70.2159997
  31.5039992  20.6034990  69.8029997  29.1929992  21.2474990  69.4469997
  29.5909992  21.7314990  68.5289997  28.9279992  22.0684990  70.1469997
  27.9869992  20.2814990  69.1569997  27.4219992  20.2794990  70.1129997
  28.4429992  19.2714990  69.0779997  27.1529992  20.5874990  67.9949997
  27.8029992  20.7504990  67.1089997  26.6979992  21.6004990  67.9749997
  26.1199992  19.5074990  67.8239997  25.3329992  19.5504990  68.6079997
  26.5929992  18.5044990  67.8879997  25.4779992  19.5604990  66.3639997
  26.3089992  19.3924990  65.6459997  25.0519992  20.5674990  66.1669997
  24.4199992  18.5444990  66.2789997  23.6999992  18.6444990  67.1199997
  24.9079992  17.5474990  66.2349997  23.7049992  18.7504990  64.9089997
  24.3939992  18.9154990  64.0539997  23.0569992  19.6404990  65.0569997
  22.8459992  17.5114990  64.8179997  21.8639992  17.5314990  65.3119997
  23.2749992  16.4754990  64.1059997  22.6729992  15.5574990  64.1689997
  24.5209992  16.2694990  63.2889997  25.1519992  15.3784990  63.4949997
  25.2769992  17.0704990  63.4349997  24.1259992  16.1684990  61.8609997
  23.9049992  17.2094990  61.5399997  23.2449992  15.5234990  61.6549997
  25.3429992  15.7044990  60.9569997  25.5449992  14.7654990  61.5149997
  26.2329992  16.3644990  61.0459997  24.9459992  15.6694990  59.4899997
  24.0889992  14.9694990  59.3879997  25.7569992  15.0554990  59.0419997
  24.7279992  17.0054990  58.8829997  25.6089992  17.6094990  59.1869997
  23.8229992  17.5364990  59.2469997  24.6699992  16.9274990  57.3389997
  23.7529992  16.3754990  57.0409997  25.4709992  16.2894990  56.9099997
  24.5209992  18.2834990  56.6439997  25.3359992  19.0084990  56.8559997
  23.5959992  18.7894990  56.9959997  24.4489992  18.0554990  55.1589997
  24.1489992  18.9414990  54.5599997  23.6569992  17.2954990  54.9889997
  25.3949992  17.6144990  54.7779997   6.3039992  53.1604990  58.3289997
   7.2119992  52.6994990  57.8839997   6.4079992  54.1854990  57.9119997
   5.3749992  52.6834990  57.9509997   6.4719992  53.1164990  59.8409997
   5.6969992  53.8204990  60.2119997   6.1869992  52.1084990  60.2119997
   7.9249992  53.4454990  60.3409997   8.7419992  53.0264990  59.7149997
   8.1439992  54.5344990  60.3179997   8.1689992  53.0434990  61.7429997
   7.5679992  53.5564990  62.5239997   8.1099992  51.9474990  61.9099997
   9.6209992  53.3224990  62.2499997  10.1929992  52.3964990  62.0259997
  10.0199992  54.1244990  61.5929997   9.8089992  53.6224990  63.7769997
   9.0489992  54.3494990  64.1359997   9.7389992  52.7134990  64.4109997
  11.1639992  54.2944990  63.9729997  11.9489992  53.8424990  63.3299997
  11.0759992  55.3124990  63.5379997  11.7469992  54.4344990  65.4069997
  11.1729992  55.2174990  65.9479997  11.8319992  53.5204990  66.0329997
  13.1399992  54.9074990  65.3589997  13.7149992  54.3794990  64.5689997
  12.9869992  55.9864990  65.1409997  13.9449992  54.6794990  66.6699997
  14.0229992  53.6454990  67.0689997  14.9599992  55.0864990  66.4729997
  13.3259992  55.4144990  67.8969997  13.2989992  56.5054990  67.6879997
  12.2579992  55.1294990  68.0019997  14.0039992  55.0134990  69.2179997
  13.7859992  53.9584990  69.4869997  15.0919992  55.1964990  69.0839997
  13.5379992  55.7944990  70.4729997  14.0279992  55.4094990  71.3919997
  13.6819992  56.8864990  70.3279997  12.0029992  55.5954990  70.7749997
  11.4189992  55.7824990  69.8489997  11.6699992  54.5504990  70.9519997
  11.2309992  56.5464990  71.7829997  11.3369992  56.1624990  72.8199997
  11.7059992  57.5514990  71.7749997   9.7599992  56.7974990  71.3119997
   9.5149992  57.7564990  70.5759997   8.9649992  55.8024990  71.6309997
   7.5999992  55.6714990  71.1139997   7.0429992  56.5644990  71.4689997
   7.7699992  55.8344990  70.0289997   7.0479992  54.2074990  71.3839997
   6.0199992  54.0214990  71.0069997   6.9279992  53.9924990  72.9239997
   6.4129992  54.8044990  73.4799997   6.4079992  53.0144990  73.0079997
   8.2229992  53.8554990  73.4279997   8.4589992  53.3224990  74.8359997
  10.0159992  52.7144990  74.7619997  10.8799992  53.1654990  73.7249997
  10.7159992  52.6274990  72.7669997  10.5939992  54.1864990  73.3939997
  12.3409992  53.0734990  74.1409997  12.6489992  52.0554990  74.3289997
  12.8579992  53.4264990  73.2599997  12.6799992  53.9494990  75.3139997
  12.1389992  53.2014990  76.6369997  12.5019992  53.7084990  77.5189997
  11.0689992  53.0744990  76.5719997  12.6209992  52.2364990  76.5919997
  14.1649992  53.9214990  75.4939997  14.4239992  54.4024990  76.4259997
  14.4839992  52.9034990  75.6609997  14.6379992  54.3124990  74.6049997
  12.2099992  55.3954990  75.2969997  12.2639992  55.8084990  76.2929997
  11.1389992  55.3684990  75.1599997  12.6469992  56.0414990  74.5499997
   8.4159992  54.4404990  75.8069997   7.5459992  52.1244990  75.0309997
   7.9789992  53.1414990  70.8989997   8.3069992  53.1714990  69.6179997
   7.8329992  53.9534990  68.8209997   9.2819992  52.0514990  69.2329997
   8.8079992  51.1834990  69.7399997  10.2669992  52.1164990  69.7429997
   9.5689992  51.8244990  67.7279997  10.0359992  52.7484990  67.3249997
   8.6109992  51.7754990  67.1669997  10.4429992  50.6034990  67.4949997
   9.9579992  49.6364990  67.7449997  11.2349992  50.6214990  68.2739997
  11.1479992  50.4744990  66.1269997  12.0259992  49.8054990  66.2559997
  11.5119992  51.4384990  65.7099997  10.3469992  49.7944990  65.1179997
   9.3769992  50.3264990  65.0179997  10.0869992  48.8004990  65.5399997
  10.9269992  49.5144990  63.6929997  11.9289992  49.0334990  63.7179997
  11.1599992  50.4644990  63.1659997   9.9509992  48.6384990  62.8609997
   9.5029992  47.8704990  63.5279997  10.6499992  48.0764990  62.2059997
   8.9089992  49.4044990  62.1309997   8.2419992  50.0914990  62.6719997
   8.7079992  49.4264990  60.8309997   7.7649992  49.9084990  60.5339997
   9.5069992  48.6254990  59.8129997   9.3779992  47.5604990  60.0999997
  10.5869992  48.8654990  59.9079997   8.9279992  48.8064990  58.3659997
   7.8179992  48.8024990  58.3359997   9.3549992  47.9434990  57.8109997
   9.4859992  50.1244990  57.7679997  10.5399992  50.2324990  58.0999997
   8.8699992  50.9314990  58.2179997   9.2769992  50.2064990  56.2009997
   8.1939992  50.0114990  56.0499997   9.8539992  49.4394990  55.6399997
   9.5759992  51.6534990  55.7409997  10.5279992  52.0354990  56.1689997
   8.6899992  52.2164990  56.1029997   9.5799992  51.8554990  54.1629997
  10.3669992  51.1304990  53.8639997   9.8099992  52.9184990  53.9379997
   8.2889992  51.5314990  53.3849997   7.8989992  50.5244990  53.6469997
   8.3349992  51.5864990  52.2759997   7.0899992  52.3824990  53.6589997
   6.6149992  52.2714990  54.6569997   6.3079992  52.1004990  52.9229997
   7.3329992  53.4464990  53.4479997  76.2719992   2.7404990  57.1349997
  77.0809992   2.4854990  56.4179997  76.8509992   2.7804990  58.0829997
  75.8299992   3.7174990  56.8449997  75.2519992   1.6414990  57.0889997
  74.6689992   1.5904990  56.1439997  75.7869992   0.6684990  57.0609997
  74.2479992   1.7514990  58.2579997  73.6569992   2.6924990  58.2359997
  73.4929992   0.9624990  58.0519997  74.9009992   1.4574990  59.6909997
  75.5519992   0.5694990  59.5439997  75.5099992   2.2704990  60.1419997
  73.8739992   1.0474990  60.7489997  73.3849992   0.0714990  60.5409997
  74.3449992   1.1004990  61.7539997  72.7549992   2.1344990  61.0379997
  73.2549992   3.1254990  61.0899997  72.0719992   2.3214990  60.1819997
  71.7039992   1.8694990  62.1219997  72.3649992   1.5664990  62.9619997
  71.2889992   2.8604990  62.4029997  70.6349992   0.7914990  61.8779997
  70.1509992   1.0534990  60.9129997  71.1719992  -0.1785010  61.8049997
  69.6249992   0.7814990  63.0759997  68.9899992   1.6904990  63.0059997
  68.9639992  -0.0505010  62.7529997  70.3249992   0.6774990  64.3299997
  70.9959992  -0.2085010  64.3419997  70.8499992   1.5694990  64.7329997
  69.3119992   0.5924990  65.4849997  68.7289992   1.5264990  65.6349997
  68.5149992  -0.0465010  65.0479997  69.8909992   0.0314990  66.8459997
  69.0659992  -0.0395010  67.5869997  70.2819992  -1.0025010  66.7379997
  70.9059992   0.9064990  67.5529997  71.5199992   1.5474990  66.8839997
  70.2849992   1.6304990  68.1209997  71.7339992   0.1004990  68.5009997
  71.0779992  -0.4825010  69.1819997  72.3169992  -0.6295010  67.8989997
  72.5139992   0.8134990  69.6319997  73.3129992   1.3824990  69.1099997
  71.8309992   1.5444990  70.1149997  73.3159992  -0.1535010  70.5449997
  73.8549992  -1.1445010  70.1479997  73.2949992   0.3094990  71.7909997
  73.6209992  -0.5135010  72.8449997  72.8469992  -1.2485010  73.1539997
  74.4299992  -1.1885010  72.4939997  74.2659992   0.3324990  73.9459997
  74.8139992  -0.3635010  74.6149997  73.1839992   1.0864990  74.7659997
  72.7139992   1.8604990  74.1229997  72.3559992   0.3564990  74.8809997
  73.6709992   1.5454990  76.0479997  73.3299992   3.0304990  76.6039997
  74.1489992   4.0054990  75.6449997  74.0629992   5.4344990  75.6979997
  73.6169992   5.7664990  76.6589997  75.0609992   5.8884990  75.5179997
  72.9549992   5.9734990  74.7269997  72.0349992   5.4644990  74.9749997
  72.9789992   7.0494990  74.8119997  73.1479992   5.6264990  73.2329997
  73.2119992   4.1984990  72.8789997  72.3649992   3.6824990  73.3049997
  73.0999992   4.2184990  71.8049997  74.1579992   3.7214990  73.0909997
  71.9679992   6.3254990  72.4779997  72.0899992   7.3824990  72.6599997
  72.0029992   6.0664990  71.4299997  71.0589992   5.9224990  72.8989997
  74.4219992   6.2544990  72.7479997  75.1799992   5.6334990  73.2019997
  74.4649992   7.3034990  73.0029997  74.5439992   6.0344990  71.6979997
  71.8679992   3.2244990  76.4159997  73.8319992   3.1104990  77.9949997
  75.1519992   1.2544990  73.3969997  76.3029992   0.8354990  72.9519997
  76.7539992  -0.3125010  73.0439997  76.9969992   2.0584990  72.3389997
  78.0229992   1.7784990  72.0189997  76.9719992   2.9434990  73.0099997
  76.0989992   2.4994990  71.1489997  75.0359992   2.6924990  71.4069997
  76.1369992   1.6394990  70.4459997  76.6889992   3.6954990  70.4549997
  77.7049992   3.3904990  70.1239997  76.8119992   4.4624990  71.2489997
  76.1399992   4.0344990  69.0479997  76.5499992   5.0324990  68.7829997
  75.0349992   4.1454990  69.0759997  76.5239992   2.9724990  68.0419997
  75.9549992   2.0594990  68.3189997  77.5749992   2.6244990  68.1429997
  76.1929992   3.4314990  66.6239997  76.5969992   4.4404990  66.3929997
  75.1029992   3.6024990  66.7589997  76.2429992   2.3934990  65.4879997
  75.9779992   1.3474990  65.7529997  77.3309992   2.3794990  65.2639997
  75.3279992   2.6714990  64.3419997  74.3349992   2.1994990  64.3829997
  75.6379992   3.4644990  63.3229997  74.9009992   3.4944990  62.5069997
  76.8429992   4.2464990  62.9929997  77.3189992   3.9704990  62.0279997
  77.6579992   4.0184990  63.7119997  76.7259992   5.7414990  63.0889997
  77.7159992   6.2294990  62.9609997  76.2889992   6.0394990  64.0659997
  75.7659992   6.3604990  62.0649997  75.8559992   7.4654990  62.1489997
  74.7339992   6.1024990  62.3859997  75.8459992   5.9684990  60.6019997
  75.9819992   4.8674990  60.5429997  76.7939992   6.4284990  60.2489997
  74.7029992   6.5614990  59.7669997  75.0859992   6.4394990  58.7309997
  74.5089992   7.6154990  60.0589997  73.5279992   5.5964990  59.8379997
  73.2389992   5.6914990  60.9069997  73.8309992   4.5494990  59.6179997
  72.4019992   6.0124990  58.8769997  72.1139992   7.0294990  59.2179997
  71.4369992   5.4654990  58.9379997  72.6849992   6.0074990  57.4179997
  73.0269992   5.0564990  56.9579997  73.5339992   6.6774990  57.1639997
  71.8729992   6.2384990  56.6949997  96.9129992 125.3174990  56.2649997
  95.9259992 125.7844990  56.4739997  96.8299992 124.5734990  55.4439997
  97.4949992 126.2334990  56.0279997  97.3209992 124.6604990  57.6029997
  97.3819992 125.5334990  58.2869997  96.4689992 123.9994990  57.8729997
  98.6459992 123.7614990  57.7489997  98.3089992 122.8624990  57.1899997
  99.5379992 124.2764990  57.3339997  99.0129992 123.2814990  59.1459997
  98.2449992 122.6644990  59.6599997  99.9399992 122.6764990  59.0569997
  99.2719992 124.3744990  60.1869997  99.9369992 125.1754990  59.7999997
  98.3209992 124.9404990  60.2819997  99.8319992 123.9094990  61.5599997
  98.9359992 123.4354990  62.0139997 100.6819992 123.2114990  61.4039997
 100.2229992 125.0524990  62.5559997 101.2449992 125.4354990  62.3479997
  99.5169992 125.8884990  62.3629997 100.2139992 124.6374990  64.0319997
 100.4839992 123.5974990  64.3109997 100.9959992 125.2254990  64.5589997
  98.9149992 124.9334990  64.7599997  98.8139992 125.9884990  65.0929997
  98.1209992 124.9194990  63.9819997  98.4999992 123.9174990  65.8479997
  97.5149992 124.2044990  66.2749997  98.3929992 122.9314990  65.3489997
  99.3139992 123.6624990  67.1209997  98.8349992 122.8444990  67.6989997
 100.2819992 123.2654990  66.7469997  99.4949992 124.8964990  68.0129997
  99.9919992 125.7624990  67.5269997  98.4519992 125.2504990  68.1529997
 100.2599992 124.7524990  69.3629997  99.7869992 123.9544990  69.9739997
 101.3209992 124.4284990  69.2959997 100.2509992 126.1514990  70.0979997
 100.7909992 126.9094990  69.4909997  99.1809992 126.4484990  70.1339997
 100.9649992 126.0554990  71.4219997 100.3989992 125.3804990  72.0979997
 102.0239992 125.7284990  71.3479997 100.8849992 127.5144990  71.9959997
 101.8559992 128.2764990  72.0039997  99.6809992 127.6834990  72.4449997
  99.3359992 129.0234990  72.7549997  99.7399992 129.2984990  73.7519997
  99.7429992 129.7304990  72.0009997  97.7569992 129.2294990  72.8249997
  97.5169992 130.2574990  73.1709997  97.1089992 128.2374990  73.9099997
  97.8629992 127.9624990  74.6789997  96.1749992 128.7354990  74.2479997
  96.6469992 127.0884990  73.2389997  96.0769992 125.9074990  74.1579997
  97.4099992 125.3054990  74.8709997  98.5169992 124.9074990  74.1109997
  98.2189992 124.8544990  73.0419997  99.3219992 125.6704990  74.0379997
  99.0249992 123.5284990  74.4709997  98.1689992 122.8864990  74.3269997
  99.6829992 123.2484990  73.6609997  99.6669992 123.3584990  75.9009997
 100.7799992 124.3124990  76.1699997 101.7039992 124.0424990  75.6799997
 100.4849992 125.3094990  75.8779997 100.9159992 124.4244990  77.2349997
  98.6369992 123.5824990  76.9019997  98.0499992 124.4454990  76.6239997
  97.9739992 122.7304990  76.9349997  99.0229992 123.8254990  77.8799997
 100.1219992 121.9514990  76.0999997 100.4339992 121.6434990  77.0869997
 100.9609992 121.7244990  75.4589997  99.3149992 121.2654990  75.8909997
  95.0879992 126.3944990  75.2179997  95.5099992 124.8514990  73.3319997
  97.2439992 128.9204990  71.4959997  95.9259992 128.9864990  71.2039997
  95.0659992 129.6094990  71.8799997  95.6569992 127.9914990  70.0609997
  94.7079992 127.4474990  70.2579997  96.4999992 127.2674990  70.0969997
  95.6559992 128.6394990  68.6189997  96.5719992 129.1994990  68.3339997
  94.8189992 129.3664990  68.6949997  95.3049992 127.5944990  67.5289997
  94.4489992 126.9434990  67.8099997  96.2049992 126.9454990  67.5729997
  94.9659992 128.0714990  66.1739997  94.7429992 127.2254990  65.4889997
  95.8849992 128.5294990  65.7509997  93.9059992 129.1404990  66.0299997
  94.2949992 130.0984990  66.4359997  93.1779992 128.9154990  66.8389997
  93.3379992 129.1904990  64.6949997  92.6649992 130.0624990  64.8369997
  92.8019992 128.2544990  64.4259997  94.3579992 129.5384990  63.5299997
  94.9489992 130.4794990  63.5669997  93.5089992 129.6844990  62.8289997
  95.2219992 128.4104990  63.0779997  94.7119992 127.4364990  63.0649997
  96.5279992 128.5754990  62.7349997  97.1559992 127.7214990  62.4399997
  97.3959992 129.8384990  62.7639997  98.0029992 129.8924990  63.6919997
  96.7829992 130.7654990  62.7789997  98.3119992 129.8954990  61.5969997
  99.0009992 129.0234990  61.5709997  98.9819992 130.7634990  61.7779997
  97.7059992 129.9504990  60.1059997  96.8459992 130.6344990  59.9379997
  97.3529992 128.9584990  59.7509997  98.8849992 130.1344990  59.1159997
  99.5439992 130.9904990  59.3739997  98.4539992 130.4894990  58.1549997
  99.7259992 128.8534990  58.8769997  99.0499992 127.9914990  58.6929997
 100.2919992 128.7414990  59.8259997 100.8019992 128.9434990  57.7879997
 101.4819992 129.7884990  58.0289997 100.2089992 129.1464990  56.8709997
 101.7589992 127.7574990  57.7369997 101.3129992 126.7404990  57.7139997
 102.4249992 127.7914990  58.6259997 102.5949992 127.8304990  56.4989997
 103.1669992 126.8804990  56.4219997 103.3969992 128.5984990  56.5039997
 102.0089992 128.0884990  55.5909997 107.1279992 113.6894990  58.0409997
 107.0659992 114.2854990  57.1059997 107.1279992 112.6044990  57.8029997
 108.0679992 113.9744990  58.5609997 106.0909992 114.0134990  59.0859997
 105.8419992 115.0924990  59.1749997 105.0939992 113.6614990  58.7459997
 106.4239992 113.5554990  60.5209997 106.6039992 112.4584990  60.5119997
 107.3399992 114.0754990  60.8729997 105.1569992 113.8684990  61.3949997
 105.0799992 114.9754990  61.3649997 104.2299992 113.4774990  60.9229997
 105.3889992 113.3264990  62.7969997 105.6779992 112.2554990  62.8469997
 106.1359992 114.0164990  63.2439997 104.1119992 113.2454990  63.6769997
 104.4779992 113.1404990  64.7209997 103.6049992 114.2244990  63.5419997
 103.1279992 112.1474990  63.3869997 102.2539992 112.1944990  64.0709997
 102.7099992 112.4674990  62.4089997 103.6329992 110.6474990  63.3139997
 102.7979992 109.9704990  63.0329997 104.3789992 110.7904990  62.5029997
 104.3859992 110.0654990  64.4999997 105.0549992 110.8514990  64.9109997
 103.6989992 109.9104990  65.3589997 105.4609992 108.8564990  64.3019997
 104.7179992 108.0394990  64.1809997 105.9949992 108.9984990  63.3379997
 106.4389992 108.7444990  65.4349997 107.1059992 107.8724990  65.2609997
 107.1139992 109.6274990  65.4269997 105.7229992 108.4914990  66.7429997
 104.9919992 109.3214990  66.8419997 105.1379992 107.5474990  66.6969997
 106.6749992 108.4204990  67.9509997 107.2719992 107.4904990  68.0649997
 107.5399992 109.0914990  67.7599997 105.9679992 108.8314990  69.2939997
 106.8319992 108.9734990  69.9789997 105.5809992 109.8564990  69.1099997
 104.8039992 107.9794990  69.7859997 103.9089992 108.0734990  69.1349997
 105.1499992 106.9264990  69.7019997 104.5079992 108.3434990  71.2369997
 103.5799992 108.9694990  71.6629997 105.4889992 107.8404990  71.9569997
 105.6079992 108.4024990  73.2849997 105.3609992 109.4814990  73.1879997
 104.9039992 107.8654990  73.9549997 107.1369992 108.4284990  73.7699997
 107.4099992 107.3664990  73.5919997 107.2529992 108.9214990  75.2309997
 106.4729992 108.3304990  75.7579997 108.1859992 108.6764990  75.7819997
 107.0509992 110.3444990  75.2539997 106.6949992 111.0704990  76.6599997
 107.0249992 112.5624990  76.3199997 108.1829992 112.9314990  75.6109997
 108.4489992 113.9674990  75.9109997 108.9969992 112.2374990  75.9129997
 108.0809992 112.7144990  74.0819997 108.9509992 113.2724990  73.7709997
 108.2379992 111.6544990  73.9429997 106.9719992 113.2234990  73.2249997
 107.1829992 114.7454990  73.1779997 106.6789992 115.1754990  72.3259997
 106.7929992 115.1584990  74.0969997 108.2009992 115.0464990  72.9769997
 107.0079992 112.7094990  71.8229997 107.9549992 113.0234990  71.4099997
 106.9929992 111.6314990  71.8789997 106.1799992 113.0884990  71.2419997
 105.6219992 112.8754990  73.7699997 105.5049992 111.8024990  73.7249997
 104.8529992 113.4744990  73.3039997 105.5579992 113.1524990  74.8109997
 105.2629992 111.0014990  76.8839997 107.5909992 110.6164990  77.6629997
 107.8909992 109.2944990  72.8939997 109.2149992 108.9904990  72.9499997
 109.6889992 107.9684990  73.3469997 110.0449992 110.1824990  72.4349997
 111.1189992 110.0184990  72.6679997 109.8889992 111.1314990  72.9899997
 109.8309992 110.3364990  70.9419997 108.7879992 110.6774990  70.7709997
 110.0089992 109.4124990  70.3519997 110.6939992 111.4684990  70.3879997
 111.7659992 111.2374990  70.5709997 110.5109992 112.5034990  70.7459997
 110.6279992 111.5764990  68.8019997 109.5489992 111.6614990  68.5489997
 111.0509992 110.6524990  68.3539997 111.2849992 112.9204990  68.2019997
 112.3619992 112.7144990  68.3789997 111.0099992 113.7714990  68.8609997
 111.2009992 113.0354990  66.6899997 111.7649992 112.1854990  66.2499997
 111.6479992 114.0474990  66.5859997 109.7589992 113.0724990  66.1929997
 109.1179992 113.6984990  66.8499997 109.3119992 112.0654990  66.3329997
 109.7539992 113.2224990  64.6789997 109.5949992 114.2934990  64.4849997
 109.8789992 112.3884990  63.6499997 109.8169992 112.7994990  62.6319997
 110.0559992 110.8814990  63.7299997 110.0449992 110.4854990  64.7679997
 111.0719992 110.6594990  63.3379997 109.0139992 110.0024990  62.9759997
 107.9819992 110.3354990  63.2179997 109.0609992 108.9244990  63.2419997
 109.0759992 110.1184990  61.4599997 110.0869992 109.7844990  61.1449997
 108.9569992 111.1664990  61.1119997 107.9809992 109.2704990  60.8039997
 107.1009992 109.9474990  60.8479997 107.7579992 108.3524990  61.3879997
 108.3559992 108.9134990  59.4509997 109.3129992 108.3524990  59.5109997
 108.4129992 109.6024990  58.5809997 107.2959992 107.8074990  58.7999997
 107.1489992 106.9834990  59.5309997 107.7839992 107.3414990  57.9179997
 105.9999992 108.5114990  58.3489997 106.1239992 109.1994990  57.4859997
 105.6069992 109.0014990  59.2659997 104.9809992 107.4554990  57.8159997
 105.4509992 106.9314990  56.9559997 104.0659992 107.9764990  57.4639997
 104.7519992 106.7234990  58.6209997  86.9679992  19.2194990  57.5869997
  87.0929992  18.8724990  58.6349997  85.9159992  19.5564990  57.4629997
  87.6559992  20.0894990  57.5259997  87.3889992  18.0674990  56.6359997
  87.1789992  18.4244990  55.6049997  88.4859992  17.8934990  56.6379997
  86.6809992  16.7574990  56.8079997  85.6189992  17.0544990  56.6739997
  86.9779992  16.2164990  55.8839997  86.9839992  16.0754990  58.0859997
  88.0939992  16.1234990  58.0899997  86.6229992  16.7274990  58.9089997
  86.3649992  14.6444990  58.2069997  85.2799992  14.7474990  57.9929997
  86.6089992  14.0434990  57.3049997  86.7029992  13.8024990  59.5049997
  85.9519992  12.9834990  59.5069997  87.7249992  13.3804990  59.3989997
  86.5749992  14.4964990  60.8649997  87.1729992  15.4314990  60.8879997
  85.5529992  14.8784990  61.0749997  86.9959992  13.4664990  61.9469997
  86.4109992  12.5294990  61.8239997  88.0269992  13.0614990  61.8619997
  87.0339992  13.8964990  63.3859997  88.0609992  14.0344990  63.7849997
  86.6559992  14.9374990  63.4799997  86.4619992  12.8574990  64.3479997
  85.3539992  12.9304990  64.3879997  86.7079992  11.8644990  63.9159997
  86.9349992  13.0504990  65.7869997  86.6029992  12.1344990  66.3209997
  88.0319992  12.8884990  65.7329997  86.6109992  14.4284990  66.3569997
  87.4539992  15.0324990  65.9589997  85.6809992  14.9164990  65.9919997
  86.7449992  14.5354990  67.8939997  86.8549992  15.5914990  68.2209997
  85.7899992  14.1614990  68.3219997  87.7049992  13.6104990  68.6089997
  87.2419992  12.6004990  68.6359997  88.5899992  13.4444990  67.9579997
  88.0319992  14.1534990  70.0149997  87.1279992  14.6184990  70.4629997
  88.3809992  13.3294990  70.6729997  89.1169992  15.2104990  69.9399997
  89.2239992  15.9034990  68.9789997  89.7099992  15.3014990  71.1279997
  90.9299992  16.0354990  71.1659997  91.7459992  15.3894990  71.5539997
  91.3229992  16.3444990  70.1729997  90.8499992  17.3034990  72.0259997
  91.8149992  17.8524990  72.0069997  90.6089992  16.8614990  73.5329997
  90.1889992  15.8374990  73.4409997  91.5059992  16.6964990  74.1669997
  89.8089992  17.8684990  74.1319997  89.1479992  17.5734990  75.4989997
  88.0539992  16.5474990  75.1469997  87.0739992  16.6914990  74.0569997
  86.8109992  17.7604990  73.9059997  87.4159992  16.3594990  73.0539997
  85.7299992  15.9814990  74.3589997  85.2769992  16.3804990  75.2539997
  85.2719992  16.0794990  73.3859997  85.8129992  14.5154990  74.6309997
  86.8609992  13.8834990  73.7399997  86.9409992  12.8164990  73.8839997
  86.5859992  13.9754990  72.6999997  87.8029992  14.3784990  73.9259997
  86.2359992  14.3264990  76.0379997  87.0989992  14.8964990  76.3499997
  85.4129992  14.7184990  76.6159997  86.2939992  13.2754990  76.2789997
  84.3719992  14.0604990  74.4799997  84.3209992  13.1134990  74.9959997
  84.1199992  13.8574990  73.4499997  83.6099992  14.6074990  75.0159997
  90.0589992  16.8434990  76.4049997  88.5069992  18.8494990  75.9839997
  89.7609992  18.1614990  71.6149997  89.9769992  18.8804990  70.5189997
  90.9929992  18.8734990  69.8489997  88.6949992  19.7054990  70.1789997
  88.7209992  20.0904990  69.1379997  88.6729992  20.4444990  71.0089997
  87.4189992  18.8544990  70.3169997  87.1999992  18.6454990  71.3859997
  87.6019992  17.8944990  69.7869997  86.2019992  19.4984990  69.6019997
  85.9329992  20.5004990  69.9989997  85.3339992  18.8054990  69.6199997
  86.3149992  19.7554990  68.0499997  86.8699992  20.6664990  67.7399997
  85.2949992  20.0234990  67.6999997  86.8579992  18.5964990  67.1519997
  86.1319992  17.7564990  67.1909997  87.8549992  18.2804990  67.5259997
  87.1849992  19.0274990  65.6979997  88.0409992  19.7344990  65.6429997
  86.2259992  19.5094990  65.4109997  87.4699992  17.8604990  64.6549997
  87.4129992  18.2594990  63.6199997  86.6629992  17.1004990  64.7339997
  88.8299992  17.2444990  64.9779997  89.0449992  17.1104990  66.0479997
  89.7199992  16.8184990  64.0539997  90.6229992  16.3374990  64.4569997
  89.5729992  16.8284990  62.5669997  89.9669992  17.7884990  62.1689997
  88.5009992  16.7214990  62.2979997  90.3839992  15.5994990  62.0669997
  89.8969992  14.7054990  62.5119997  91.4709992  15.7414990  62.2499997
  90.3419992  15.4014990  60.4809997  89.2589992  15.3314990  60.2449997
  90.8199992  14.4524990  60.1579997  91.0409992  16.6374990  59.8409997
  92.0629992  16.8034990  60.2419997  90.3419992  17.4224990  60.2039997
  91.0509992  16.7444990  58.3199997  91.2419992  17.8044990  58.0479997
  90.0219992  16.5194990  57.9649997  92.0859992  15.7634990  57.6309997
  91.6689992  14.7734990  57.9139997  93.0179992  15.8674990  58.2259997
  92.4299992  15.7724990  56.1109997  93.3669992  15.1834990  56.0169997
  92.7559992  16.8214990  55.9429997  91.2659992  15.2714990  55.2349997
  91.4629992  15.6204990  54.1979997  90.4059992  15.9064990  55.5359997
  90.9389992  14.2094990  55.2319997  81.8519992  11.3574990  55.0389997
  81.4139992  10.6874990  54.2679997  82.8609992  11.6194990  54.6549997
  81.3689992  12.3564990  55.0619997  81.8379992  10.6314990  56.3749997
  80.8749992  10.2204990  56.7459997  82.5009992   9.7434990  56.2979997
  82.3749992  11.5064990  57.4119997  83.3639992  11.9804990  57.2299997
  81.6849992  12.3644990  57.2579997  82.2709992  11.0434990  58.8799997
  81.3529992  10.4434990  59.0589997  83.1189992  10.4114990  59.2229997
  82.2609992  12.2554990  59.8969997  81.4579992  13.0004990  59.7109997
  82.0769992  11.7714990  60.8799997  83.5489992  13.1744990  59.9379997
  83.4939992  13.8514990  59.0579997  83.5009992  13.7284990  60.8999997
  84.8809992  12.4084990  59.9209997  85.0829992  11.7534990  59.0469997
  85.6929992  13.1514990  60.0719997  85.0429992  11.3964990  61.1059997
  84.3899992  10.5104990  60.9559997  86.0919992  11.0414990  61.0189997
  84.7359992  11.9284990  62.5199997  85.4559992  12.7424990  62.7489997
  83.6989992  12.3214990  62.5869997  84.6119992  10.8094990  63.6079997
  84.1479992   9.8724990  63.2309997  85.6649992  10.5064990  63.7919997
  83.8529992  11.1824990  64.8539997  82.8049992  11.4924990  64.6549997
  83.7259992  10.3524990  65.5819997  84.4769992  12.3204990  65.6439997
  85.4959992  12.1164990  66.0389997  84.4479992  13.2644990  65.0579997
  83.6219992  12.5684990  66.9209997  82.5559992  12.5464990  66.6089997
  83.6169992  11.8154990  67.7379997  83.9429992  13.9374990  67.5049997
  84.9859992  13.8794990  67.8839997  83.7549992  14.5734990  66.6149997
  83.0449992  14.4464990  68.6609997  83.2419992  15.5344990  68.5509997
  81.9599992  14.3784990  68.4339997  83.3809992  13.9784990  70.1119997
  84.4409992  13.6294990  70.5969997  82.2539992  14.1004990  70.7169997
  82.2109992  13.7944990  72.1209997  82.9299992  12.9964990  72.4049997
  82.4249992  14.6414990  72.8069997  80.8009992  13.2784990  72.4219997
  80.0429992  14.0344990  72.1259997  80.5949992  13.0544990  73.9029997
  81.4629992  12.4754990  74.2839997  80.6929992  14.0294990  74.4279997
  79.3809992  12.4054990  74.1579997  79.2809992  11.9214990  75.6659997
  80.4819992  10.8624990  75.6719997  79.9839992   9.4924990  75.4959997
  79.4349992   9.2314990  76.4259997  79.3309992   9.3524990  74.6079997
  81.1889992   8.3924990  75.4659997  81.8509992   8.4544990  76.3169997
  80.6879992   7.4364990  75.4549997  82.0249992   8.3284990  74.2169997
  81.1509992   7.8204990  73.1189997  80.7719992   6.8264990  73.3039997
  80.4819992   8.6314990  72.8719997  81.8339992   7.6444990  72.3009997
  82.5639992   9.7204990  73.8609997  82.9399992   9.7904990  72.8509997
  81.7519992  10.4214990  73.9869997  83.3979992   9.9674990  74.4999997
  83.0839992   7.2604990  74.3789997  82.5719992   6.3094990  74.3829997
  83.6209992   7.4724990  75.2919997  83.7059992   7.2784990  73.4959997
  79.7889992  13.0544990  76.4769997  77.9389992  11.3544990  75.9619997
  80.6209992  12.0524990  71.7259997  80.2659992  11.8654990  70.4299997
  79.8479992  12.6694990  69.6229997  80.4169992  10.3444990  70.1459997
  80.2349992   9.8054990  71.1009997  81.4609992  10.2434990  69.7779997
  79.5169992   9.9744990  68.9219997  79.8559992  10.6034990  68.0709997
  78.4439992  10.2494990  69.0109997  79.6769992   8.5084990  68.4549997
  78.9699992   7.8804990  69.0389997  80.7379992   8.1994990  68.5639997
  79.2869992   8.4104990  66.9969997  78.4289992   9.0864990  66.7919997
  78.9039992   7.3754990  66.8679997  80.4449992   8.7184990  66.0429997
  81.3749992   8.1864990  66.3369997  80.5709992   9.8214990  66.0979997
  80.2379992   8.2914990  64.5399997  80.4619992   7.2124990  64.4019997
  80.9949992   8.7584990  63.8739997  78.7919992   8.4204990  64.0089997
  78.1919992   7.6504990  64.5389997  78.9029992   8.0644990  62.9619997
  78.1139992   9.7904990  64.1189997  77.3859992   9.8504990  64.9409997
  78.2739992  10.8224990  63.2599997  77.6239992  11.7064990  63.3449997
  79.1159992  10.8814990  62.0209997  79.6469992   9.9054990  61.9899997
  79.7739992  11.7754990  61.9979997  78.3189992  11.1714990  60.7809997
  79.0549992  11.1164990  59.9509997  77.8909992  12.1924990  60.8719997
  77.3239992  10.0464990  60.5109997  76.5649992  10.1334990  61.3179997
  77.7819992   9.0404990  60.6139997  76.5429992  10.2704990  59.2319997
  76.1269992  11.2734990  59.4679997  75.6199992   9.6514990  59.2199997
  77.2249992  10.2934990  57.8489997  77.4519992   9.2454990  57.5609997
  78.2159992  10.7534990  58.0509997  76.5029992  11.0074990  56.7449997
  76.3709992  12.0904990  56.9569997  75.5019992  10.5254990  56.7699997
  77.1159992  10.7194990  55.3449997  77.1039992   9.6244990  55.1569997
  78.2009992  10.9504990  55.4009997  76.4059992  11.5134990  54.3179997
  77.1339992  11.5764990  53.4819997  76.2199992  12.5474990  54.6799997
  75.4179992  11.1074990  54.0149997  97.4349992  21.3544990  56.8039997
  96.4239992  21.4114990  57.2629997  97.6439992  20.2924990  56.5489997
  97.6309992  21.9324990  55.8759997  98.4299992  21.6774990  57.8399997
  99.4519992  21.3984990  57.5069997  98.4369992  22.7184990  58.2289997
  98.1649992  20.8414990  59.1689997  97.0979992  21.0304990  59.4119997
  98.3279992  19.7624990  58.9619997  98.9859992  21.2984990  60.4039997
 100.0469992  21.2594990  60.0779997  98.7089992  22.3594990  60.5869997
  98.7969992  20.5194990  61.7229997  99.0909992  19.4664990  61.5209997
  99.5179992  20.8604990  62.4969997  97.3689992  20.5444990  62.3459997
  97.0789992  21.6164990  62.3979997  96.6289992  19.9334990  61.7859997
  97.3149992  19.9774990  63.7489997  96.2209992  19.8964990  63.9279997
  97.7849992  18.9794990  63.8819997  97.9209992  20.8184990  64.8609997
  99.0289992  20.8144990  64.7799997  97.4659992  21.8324990  64.8659997
  97.6809992  20.1454990  66.2519997  96.6239992  19.8074990  66.2119997
  98.1979992  19.1704990  66.3829997  97.8549992  21.0524990  67.4969997
  98.7839992  21.6544990  67.4129997  97.0999992  21.8444990  67.3049997
  97.7589992  20.3244990  68.8599997  97.7339992  20.9974990  69.7439997
  96.8319992  19.7134990  68.8269997  98.8999992  19.3344990  69.1099997
  98.8419992  18.4474990  68.4439997  99.8399992  19.8744990  68.8679997
  98.9469992  18.7234990  70.5539997  98.0289992  18.2004990  70.8979997
  99.7139992  17.9354990  70.3919997  99.4599992  19.8194990  71.5489997
 100.5569992  19.9334990  71.4169997  99.0219992  20.8154990  71.3239997
  99.2369992  19.3844990  72.9899997  98.1629992  19.1414990  73.1349997
  99.8309992  18.5054990  73.3189997  99.7699992  20.4674990  73.9619997
 100.4829992  21.3804990  73.5969997  99.3479992  20.2494990  75.2669997
  99.6839992  21.2904990  76.1559997  99.8209992  20.9044990  77.1889997
 100.4639992  22.0084990  75.8219997  98.4879992  22.2154990  76.3439997
  98.6519992  22.9784990  77.1349997  97.2309992  21.3744990  76.8459997
  97.2189992  20.5494990  76.1019997  97.4019992  21.0194990  77.8849997
  96.1079992  22.1744990  76.7599997  94.7019992  21.3734990  77.0839997
  93.8309992  21.4334990  75.7279997  93.8719992  22.5174990  74.8119997
  92.9439992  22.6234990  74.2109997  93.9859992  23.4574990  75.3929997
  94.9719992  22.4604990  73.7579997  94.7099992  23.3084990  73.1419997
  95.9559992  22.6034990  74.1809997  95.1099992  21.2244990  72.9199997
  95.6789992  20.0564990  73.6679997  96.4519992  20.2014990  74.4079997
  94.8699992  19.5414990  74.1649997  96.0279992  19.3364990  72.9419997
  93.6979992  20.9724990  72.5189997  93.1099992  20.6764990  73.3749997
  93.3819992  21.8154990  71.9239997  93.7649992  20.0674990  71.9339997
  95.9959992  21.5584990  71.7959997  95.9499992  20.7814990  71.0479997
  96.9919992  21.7644990  72.1579997  95.7269992  22.5104990  71.3619997
  94.9169992  19.9154990  77.2669997  93.9169992  22.0454990  78.1609997
  98.1769992  22.8674990  75.1049997  98.0669992  24.1704990  75.0419997
  98.0729992  24.8924990  76.0169997  98.0749992  24.6454990  73.6039997
  98.0639992  23.7574990  72.9349997  98.9369992  25.2924990  73.3359997
  96.7999992  25.6304990  73.5309997  96.9249992  26.5454990  74.1499997
  95.9609992  25.1264990  74.0569997  96.4199992  26.1814990  72.1489997
  97.2849992  26.5414990  71.5509997  95.7209992  27.0414990  72.2269997
  95.6199992  25.1954990  71.3479997  94.6239992  24.8664990  71.7159997
  96.2039992  24.2744990  71.1389997  95.2589992  25.6824990  69.9029997
  96.2099992  26.1164990  69.5269997  94.4909992  26.4854990  69.9209997
  94.7379992  24.5644990  69.0079997  93.6289992  24.6104990  69.0689997
  95.0389992  23.5734990  69.4109997  95.1619992  24.7904990  67.5519997
  94.6069992  24.0294990  66.9629997  96.2409992  24.5684990  67.4049997
  94.8609992  26.2094990  67.0899997  95.5729992  27.0004990  67.3669997
  93.8219992  26.5624990  66.3339997  93.5969992  27.6244990  66.1539997
  92.7679992  25.5914990  65.9149997  91.8259992  26.0194990  66.3199997
  92.8309992  24.5944990  66.4009997  92.5309992  25.4594990  64.3609997
  92.2829992  26.4374990  63.8959997  91.7599992  24.6614990  64.2979997
  93.7859992  25.0244990  63.6559997  94.2239992  24.2874990  64.3609997
  94.4559992  25.9054990  63.5609997  93.5519992  24.5304990  62.1739997
  93.0559992  25.3264990  61.5799997  92.8339992  23.7174990  62.4139997
  94.8129992  23.9124990  61.5679997  95.1619992  23.0694990  62.2009997
  95.6009992  24.6474990  61.2959997  94.4659992  23.3254990  60.2299997
  93.7919992  22.4444990  60.3009997  95.4359992  22.9804990  59.8119997
  93.8039992  24.4344990  59.3269997  94.2549992  25.3924990  59.6639997
  92.7439992  24.4954990  59.6529997  93.9209992  24.1554990  57.8779997
  93.3669992  23.2404990  57.5759997  94.9559992  24.0874990  57.4809997
  93.3369992  24.9024990  57.2989997  20.9579992  98.4044990  54.9399997
  21.8399992  98.0854990  54.3439997  21.2259992  99.3404990  55.4759997
  20.1049992  98.6564990  54.2749997  20.6449992  97.2604990  55.8939997
  19.7239992  97.4884990  56.4729997  20.4949992  96.4094990  55.1959997
  21.6349992  97.0764990  57.0689997  22.5079992  96.5394990  56.6409997
  21.9699992  97.9984990  57.5909997  21.0229992  96.1824990  58.1879997
  20.2579992  96.9104990  58.5339997  20.6449992  95.2414990  57.7339997
  21.9899992  95.7914990  59.3219997  21.5239992  95.0764990  60.0329997
  22.8709992  95.2224990  58.9549997  22.5799992  97.0494990  60.1139997
  23.3599992  96.6444990  60.7929997  23.0259992  97.7514990  59.3779997
  21.4869992  97.7274990  60.9569997  20.9169992  98.4264990  60.3099997
  20.8029992  97.0404990  61.4999997  22.0279992  98.5284990  62.1549997
  22.6429992  97.8304990  62.7599997  22.8489992  99.1344990  61.7149997
  20.9279992  99.3914990  62.9079997  20.5969992 100.2614990  62.3019997
  20.0519992  98.7454990  63.1299997  21.3439992 100.1694990  64.2659997
  20.4509992 100.6904990  64.6719997  21.7439992  99.3934990  64.9529997
  22.4169992 101.2774990  64.0269997  23.3669992 100.8384990  63.6529997
  21.9909992 101.9194990  63.2259997  22.7119992 102.1514990  65.2739997
  23.3729992 102.9844990  64.9499997  21.6719992 102.5024990  65.4439997
  23.2259992 101.3454990  66.4269997  22.3499992 100.7424990  66.7479997
  24.0429992 100.6814990  66.0719997  23.5529992 102.3504990  67.5639997
  24.4249992 102.9684990  67.2609997  22.7429992 103.1104990  67.5999997
  23.8209992 101.7524990  68.9549997  24.6369992 101.0064990  69.0589997
  24.0689992 102.6284990  69.5919997  22.5299992 101.1894990  69.6089997
  21.7239992 101.7644990  70.3299997  22.5349992  99.9184990  69.3159997
  21.4609992  99.1234990  69.6349997  20.8579992  99.6004990  70.4369997
  20.8139992  98.9914990  68.7419997  21.8389992  97.7344990  70.2209997
  20.9389992  97.0974990  70.0879997  22.2729992  97.8244990  71.6539997
  21.8199992  98.7314990  72.1079997  21.8709992  96.9624990  72.2289997
  23.6729992  97.8534990  71.8489997  24.4739992  98.9084990  72.7599997
  24.2429992  98.3224990  74.2059997  25.2149992  98.6304990  75.1239997
  26.1989992  98.2444990  74.7819997  25.2719992  99.7314990  75.2649997
  24.9319992  98.0714990  76.5509997  25.4529992  97.1284990  76.6329997
  25.4079992  98.7554990  77.2379997  23.4839992  97.9294990  77.1159997
  22.7419992  96.7964990  76.3899997  23.2039992  95.8414990  76.5929997
  21.7089992  96.7434990  76.7019997  22.8099992  96.9674990  75.3259997
  23.6679992  97.6064990  78.5389997  24.1369992  98.4324990  79.0529997
  22.7309992  97.4444990  79.0509997  24.3269992  96.7504990  78.5409997
  22.6559992  99.1844990  77.0299997  23.1889992  99.8944990  77.6449997
  21.7449992  99.0434990  77.5929997  22.5349992  99.4304990  75.9859997
  25.8879992  98.7264990  72.2909997  23.9249992 100.2274990  72.6149997
  22.7709992  97.0704990  69.3709997  23.1249992  95.8244990  69.6139997
  22.7089992  95.0424990  70.4539997  24.2029992  95.5554990  68.4849997
  24.4689992  96.5264990  68.0139997  23.5709992  95.0354990  67.7349997
  25.3439992  94.7484990  69.1539997  25.8759992  94.2674990  68.3059997
  24.8919992  93.9404990  69.7679997  26.2599992  95.6014990  70.0339997
  27.1839992  95.1204990  70.4219997  25.5869992  95.7184990  70.9089997
  26.6259992  97.0614990  69.5799997  27.2539992  97.6024990  70.3209997
  25.6909992  97.6194990  69.3589997  27.4769992  97.1534990  68.3079997
  27.1649992  96.3614990  67.5939997  28.5459992  96.8974990  68.4689997
  27.4299992  98.5604990  67.6999997  27.4829992  99.2504990  68.5699997
  26.4029992  98.7164990  67.3049997  28.4789992  99.0064990  66.6839997
  29.4349992  99.1264990  67.2359997  28.2119992  99.9884990  66.2389997
  28.7259992  98.0264990  65.5409997  29.5329992  97.3164990  65.7749997
  28.0499992  97.8344990  64.3679997  28.4149992  97.1774990  63.5649997
  26.7999992  98.5564990  63.8969997  26.9589992  99.6304990  64.1339997
  25.9809992  98.1654990  64.5379997  26.4699992  98.5354990  62.3889997
  25.4339992  98.9374990  62.4039997  26.5339992  97.4934990  62.0099997
  27.3869992  99.5004990  61.5709997  28.4559992  99.2664990  61.7649997
  27.1089992 100.5624990  61.7449997  27.2319992  99.2794990  60.0639997
  27.8019992 100.1374990  59.6469997  26.1599992  99.2244990  59.7759997
  27.8399992  97.9834990  59.4119997  27.4189992  97.1014990  59.9389997
  28.9239992  97.9634990  59.6539997  27.5009992  97.8504990  57.8969997
  26.4019992  97.7774990  57.7519997  27.8599992  96.8274990  57.6539997
  28.1569992  98.8714990  57.0419997  29.2359992  99.0184990  57.2619997
  27.7879992  99.9034990  57.2219997  28.0139992  98.5274990  55.5029997
  26.9419992  98.4164990  55.2349997  28.5239992  97.5914990  55.1889997
  28.4779992  99.2894990  54.8409997  54.1039992 124.4274990  57.9449997
  54.5859992 125.4084990  58.1429997  53.5379992 124.4504990  56.9889997
  54.9179992 123.6944990  57.7589997  53.2069992 124.1184990  59.1239997
  52.8009992 123.0874990  59.2109997  53.8009992 124.2184990  60.0579997
  51.9999992 124.9554990  59.0639997  52.3599992 125.9984990  59.1949997
  51.5059992 124.9314990  58.0689997  50.9779992 124.6934990  60.2759997
  50.1609992 125.4284990  60.1139997  50.6079992 123.6454990  60.2959997
  51.5269992 125.0544990  61.6779997  51.8719992 124.1154990  62.1609997
  52.3559992 125.7814990  61.5419997  50.4689992 125.6414990  62.6869997
  49.7959992 124.7774990  62.8719997  51.0549992 125.7534990  63.6239997
  49.7419992 126.9544990  62.4599997  50.4389992 127.7694990  62.1699997
  48.9629992 126.7444990  61.6959997  49.0899992 127.4674990  63.7399997
  48.2179992 126.8194990  63.9739997  49.8179992 127.2904990  64.5599997
  48.7019992 128.9814990  63.7359997  49.5499992 129.4954990  63.2349997
  47.8099992 129.0144990  63.0749997  48.4569992 129.6714990  65.0909997
  47.9859992 130.6664990  64.9399997  47.7189992 129.1214990  65.7139997
  49.7259992 129.9024990  65.8709997  50.2929992 128.9664990  66.0609997
  50.3529992 130.6224990  65.3029997  49.4609992 130.6444990  67.2419997
  49.1959992 131.7124990  67.0889997  48.6449992 130.0764990  67.7369997
  50.5639992 130.5964990  68.3189997  50.8059992 129.5394990  68.5619997
  51.4409992 131.1014990  67.8589997  50.3129992 131.2464990  69.7139997
  50.9899992 132.1164990  69.8549997  49.2879992 131.6704990  69.7759997
  50.5479992 130.3764990  70.9099997  51.6319992 130.1974990  71.0729997
  50.1579992 130.9044990  71.8059997  49.7379992 129.0954990  70.7089997
  48.9169992 128.9564990  69.8569997  50.1839992 128.1334990  71.5179997
  49.7259992 126.7634990  71.0719997  48.6179992 126.8424990  71.0889997
  50.1749992 126.5334990  70.0819997  50.1899992 125.6244990  72.1249997
  49.7929992 124.6414990  71.7929997  49.4349992 125.7664990  73.4579997
  48.3419992 125.5884990  73.3809997  49.9719992 124.9834990  74.0359997
  49.7769992 127.0424990  73.9909997  49.1039992 127.7294990  75.2159997
  50.2769992 128.0334990  76.1719997  51.5199992 127.4404990  76.1099997
  52.0989992 127.9054990  76.9359997  51.4439992 126.3514990  76.3209997
  52.3799992 127.8144990  74.8359997  53.3409992 127.3534990  75.0109997
  51.8729992 127.2954990  74.0359997  52.6489992 129.2774990  74.4719997
  53.7019992 129.2914990  73.3309997  53.1359992 128.7644990  72.5779997
  53.9349992 130.2844990  72.9759997  54.5859992 128.7384990  73.6129997
  51.3929992 129.9674990  74.0749997  51.5079992 130.8514990  73.4649997
  50.8239992 129.3394990  73.4059997  50.7099992 130.1524990  74.8899997
  53.2489992 129.8974990  75.6379997  54.2579992 129.5754990  75.8449997
  52.5799992 129.9454990  76.4849997  53.4099992 130.9464990  75.4339997
  48.3659992 128.9414990  74.7529997  48.3669992 126.6214990  75.8779997
  51.5559992 125.7044990  72.2199997  52.1929992 125.0804990  71.2169997
  51.6749992 124.4854990  70.3239997  53.6369992 125.2594990  71.4149997
  53.9879992 124.3064990  71.8659997  53.8809992 126.0474990  72.1589997
  54.3619992 125.4554990  70.1469997  54.2279992 124.6504990  69.3939997
  55.4219992 125.4544990  70.4779997  54.2859992 126.9674990  69.5559997
  55.3669992 127.1044990  69.3369997  53.9129992 127.6404990  70.3569997
  53.5359992 127.0364990  68.2669997  52.4749992 126.8264990  68.5209997
  53.9159992 126.2474990  67.5829997  53.5779992 128.3454990  67.5229997
  53.1569992 129.0584990  68.2639997  52.9149992 128.1914990  66.6449997
  54.9459992 128.7964990  67.0049997  55.5739992 127.9954990  66.5609997
  55.5159992 129.0754990  67.9159997  54.9679992 129.8874990  65.9139997
  54.5469992 129.5124990  64.9569997  55.8899992 130.4704990  65.7049997
  54.1279992 131.0274990  66.5019997  54.0769992 131.1344990  67.5959997
  53.5019992 131.9804990  65.6839997  53.0559992 132.8434990  66.1989997
  53.5619992 131.9054990  64.1559997  54.2299992 131.0854990  63.8179997
  53.9459992 132.8804990  63.7869997  52.1989992 131.6904990  63.5079997
  51.5529992 132.5734990  63.6979997  51.6979992 130.8264990  63.9949997
  52.3179992 131.5294990  62.0809997  52.8299992 130.5544990  61.9319997
  52.9339992 132.3784990  61.7159997  50.9769992 131.5304990  61.3489997
  50.3929992 132.4464990  61.5829997  50.4469992 130.6214990  61.7049997
  51.0329992 131.5714990  59.7609997  51.5919992 132.4224990  59.3169997
  49.9609992 131.6614990  59.4829997  51.4759992 130.2624990  59.0889997
  51.1579992 129.3904990  59.6999997  52.5769992 130.2114990  59.2229997
  51.0389992 130.2064990  57.6499997  51.4129992 131.1154990  57.1319997
  49.9419992 130.3774990  57.6899997  51.4239992 128.9744990  56.9449997
  50.8289992 128.7954990  56.0239997  51.2239992 128.1324990  57.6409997
  52.4929992 128.9344990  56.6439997  17.5149992  30.4714990  56.7889997
  17.4179992  29.8444990  57.7009997  17.3899992  29.8244990  55.8939997
  16.6129992  31.1094990  56.6669997  18.8719992  31.1144990  56.6449997
  19.5929992  30.2714990  56.5829997  18.9119992  31.5994990  55.6459997
  19.1319992  32.1834990  57.7369997  20.1989992  32.4784990  57.6479997
  18.5339992  33.0334990  57.3439997  18.7909992  31.6934990  59.1519997
  19.0059992  32.5534990  59.8219997  17.7639992  31.3014990  59.3159997
  19.9419992  30.7064990  59.5809997  19.8899992  29.8484990  58.8759997
  20.9469992  31.1664990  59.6909997  19.7009992  30.1264990  61.0079997
  18.7179992  29.6104990  61.0389997  20.4359992  29.3684990  61.3549997
  19.6149992  31.1984990  62.1029997  18.8229992  31.9224990  61.8179997
  19.4369992  30.6424990  63.0479997  21.0029992  31.8784990  62.4109997
  21.7679992  31.0934990  62.5899997  21.2199992  32.4924990  61.5109997
  21.0249992  32.7834990  63.6749997  22.0339992  33.2454990  63.6299997
  20.2859992  33.5694990  63.4109997  20.8429992  32.0354990  65.0129997
  19.9649992  31.3544990  65.0269997  21.6919992  31.3254990  65.1059997
  20.8409992  32.9804990  66.2959997  21.5399992  33.8274990  66.1279997
  19.8269992  33.4334990  66.3009997  21.0889992  32.3934990  67.6049997
  20.3449992  31.5814990  67.7549997  22.0939992  31.9204990  67.6209997
  20.9739992  33.4694990  68.7229997  21.9459992  33.9714990  68.9189997
  20.2109992  34.2474990  68.5059997  20.6859992  32.7664990  70.0929997
  20.1689992  31.7884990  69.9959997  21.5909992  32.3774990  70.6089997
  20.0319992  33.6424990  71.1299997  20.0579992  33.1284990  72.1139997
  20.7569992  34.4664990  71.3069997  18.6779992  34.2814990  70.9069997
  18.3879992  34.8914990  69.8569997  17.9179992  34.1564990  71.9739997
  16.5959992  34.5644990  71.8609997  16.3719992  34.7794990  72.9279997
  16.4929992  35.5004990  71.2709997  15.6119992  33.4954990  71.3149997
  14.6059992  33.9414990  71.1649997  15.4419992  32.4374990  72.3809997
  15.1909992  32.9764990  73.3189997  14.5709992  31.7854990  72.1559997
  16.6739992  31.7574990  72.5009997  16.9339992  30.5864990  73.5669997
  17.6109992  31.2704990  74.7639997  17.1489992  32.4754990  75.2999997
  17.1189992  33.3474990  74.6119997  16.1699992  32.3354990  75.8059997
  18.0119992  32.8964990  76.5269997  17.7319992  33.8894990  76.8459997
  17.8289992  32.2034990  77.3359997  19.4999992  32.9144990  76.2889997
  19.7479992  33.7404990  75.0649997  19.2499992  34.6954990  75.1349997
  20.8069992  33.9254990  74.9539997  19.3019992  33.2574990  74.2079997
  20.2029992  33.6794990  77.3989997  20.3929992  32.9974990  78.2139997
  21.2439992  33.8874990  77.1999997  19.5529992  34.4354990  77.8149997
  20.1149992  31.5264990  76.1409997  19.4359992  31.0134990  75.4749997
  20.0669992  30.9764990  77.0689997  21.1119992  31.6394990  75.7419997
  15.7029992  29.9484990  74.0049997  17.9179992  29.6734990  72.9149997
  16.1749992  32.9674990  70.0629997  15.3509992  32.1794990  69.4219997
  14.1769992  31.9474990  69.7709997  15.9709992  31.4994990  68.0979997
  15.1729992  31.2984990  67.3509997  16.3559992  30.5424990  68.5099997
  17.2229992  32.2594990  67.6279997  17.9629992  31.6444990  67.0719997
  17.8179992  32.6154990  68.4959997  16.8679992  33.5624990  66.7769997
  17.6579992  34.3014990  67.0289997  15.8789992  33.9144990  67.1389997
  16.8219992  33.3024990  65.2729997  16.0199992  32.5784990  65.0129997
  17.7589992  32.8364990  64.8989997  16.6959992  34.5074990  64.2859997
  16.9879992  34.1904990  63.2619997  17.3979992  35.2974990  64.6279997
  15.4269992  35.3184990  64.2019997  15.6089992  36.1964990  63.5459997
  15.3569992  35.8034990  65.1989997  14.0959992  34.5814990  63.9309997
  13.2429992  35.2784990  64.0759997  13.9109992  33.8544990  64.7509997
  13.9469992  33.8164990  62.6309997  14.4249992  32.8254990  62.6389997
  13.1809992  34.1374990  61.6409997  13.2319992  33.5104990  60.7389997
  12.2469992  35.3474990  61.5019997  11.7359992  35.5834990  62.4589997
  11.3399992  35.0824990  60.9169997  12.8339992  36.7434990  61.0289997
  13.3409992  37.1274990  61.9399997  12.0859992  37.5004990  60.7109997
  13.9079992  36.7094990  59.9509997  14.7409992  36.1004990  60.3609997
  14.3239992  37.7244990  59.7719997  13.4949992  36.1214990  58.6119997
  12.5359992  36.6784990  58.5349997  13.2389992  35.0404990  58.6109997
  14.2719992  36.3634990  57.3379997  14.6649992  37.4024990  57.3139997
  13.6019992  36.3394990  56.4519997  15.5489992  35.4794990  57.1299997
  15.2549992  34.4144990  57.0099997  16.3049992  35.5724990  57.9379997
  16.3189992  35.9194990  55.8439997  15.7879992  36.8264990  55.4839997
  16.0259992  35.1754990  55.0739997  17.8179992  36.1284990  55.9409997
  18.0119992  37.1354990  56.3689997  18.2549992  36.1014990  54.9209997
  18.3269992  35.3164990  56.5029997  43.8099992 126.2954990  57.6379997
  43.1689992 126.4934990  56.7529997  44.8159992 125.9694990  57.2979997
  43.7549992 127.2014990  58.2789997  43.0189992 125.2034990  58.3899997
  42.1259992 125.5904990  58.9259997  42.6099992 124.3814990  57.7639997
  43.8309992 124.4464990  59.3859997  44.4579992 123.7494990  58.7899997
  44.5629992 125.1474990  59.8409997  42.9729992 123.6644990  60.4749997
  42.1649992 124.3724990  60.7609997  42.5919992 122.8154990  59.8679997
  43.7099992 123.1684990  61.7439997  43.0589992 122.4284990  62.2569997
  44.6509992 122.6734990  61.4199997  43.9959992 124.1994990  62.8849997
  44.9599992 124.6214990  62.5299997  43.3239992 125.0814990  62.9489997
  43.9689992 123.5954990  64.3099997  44.8199992 122.9004990  64.4759997
  44.0809992 124.4214990  65.0449997  42.6659992 122.8804990  64.7779997
  41.7599992 123.4364990  64.4569997  42.6779992 121.8764990  64.3019997
  42.5099992 122.6934990  66.2659997  43.5189992 122.4384990  66.6549997
  42.3499992 123.7534990  66.5569997  41.3339992 121.9244990  66.8859997
  40.4409992 122.5294990  66.6199997  41.1499992 121.0114990  66.2799997
  41.4959992 121.5604990  68.3759997  40.7219992 120.8304990  68.6979997
  42.5069992 121.1124990  68.4759997  41.2669992 122.6774990  69.3559997
  41.8259992 123.6114990  69.1329997  40.2129992 123.0244990  69.2919997
  41.5319992 122.3884990  70.8899997  41.4029992 123.3814990  71.3709997
  40.7349992 121.6824990  71.2059997  42.8449992 121.6874990  71.3019997
  42.8359992 121.7234990  72.4119997  42.9029992 120.6534990  70.8999997
  44.1339992 122.3364990  70.8539997  44.0789992 122.5024990  69.7569997
  44.2289992 123.3624990  71.2699997  45.3869992 121.4344990  71.0469997
  45.7379992 120.5814990  70.2839997  45.9249992 121.7054990  72.2599997
  47.1679992 121.0744990  72.5399997  47.1379992 120.3964990  73.4199997
  47.5079992 120.4064990  71.7199997  48.1639992 122.1734990  72.7949997
  49.1429992 121.6604990  72.9089997  47.8109992 123.0614990  73.9439997
  47.5109992 122.3934990  74.7789997  48.6859992 123.6904990  74.2149997
  46.7949992 123.9634990  73.4709997  45.5979992 124.4364990  74.2899997
  44.5079992 123.3464990  73.9839997  44.1959992 122.4244990  74.9869997
  43.9059992 121.4774990  74.4839997  45.0939992 122.0154990  75.4979997
  43.2269992 123.0004990  76.0089997  43.2749992 122.3794990  76.8899997
  43.5809992 123.9834990  76.2859997  41.7979992 122.9964990  75.6079997
  41.5049992 123.9964990  74.5549997  41.7489992 123.6144990  73.5739997
  40.4409992 124.1804990  74.5329997  41.9089992 124.9634990  74.8149997
  41.2669992 121.6644990  75.1399997  40.1929992 121.7134990  75.0359997
  41.7449992 121.3394990  74.2279997  41.4429992 120.8784990  75.8599997
  41.0729992 123.4554990  76.8609997  41.6079992 124.3714990  77.0609997
  41.2269992 122.6014990  77.5039997  40.0369992 123.7464990  76.7659997
  45.9529992 124.2494990  75.7359997  45.1699992 125.7824990  73.8309997
  48.0939992 123.0114990  71.5819997  48.5859992 122.5714990  70.4119997
  49.2159992 121.5404990  70.3299997  47.9559992 123.3134990  69.2429997
  48.6659992 124.1034990  68.9179997  46.9909992 123.7604990  69.5629997
  47.8059992 122.2644990  68.0559997  47.1319992 121.4034990  68.2529997
  48.8639992 122.0084990  67.8359997  47.4129992 122.9944990  66.7239997
  47.8079992 124.0184990  66.8939997  46.3049992 122.9284990  66.6609997
  48.1259992 122.3814990  65.5169997  49.2199992 122.3374990  65.7059997
  47.9569992 123.1054990  64.6909997  47.5719992 120.9624990  65.1919997
  46.4639992 120.8754990  65.1619997  47.8049992 120.2984990  66.0519997
  48.0219992 120.3824990  63.9499997  49.1319992 120.3754990  63.9909997
  47.7329992 121.0144990  63.0829997  47.6049992 118.8904990  63.7099997
  47.9129992 118.3424990  64.6259997  48.1189992 118.5184990  62.7979997
  46.1509992 118.5064990  63.6019997  45.5379992 118.8264990  64.4569997
  45.5989992 117.8724990  62.5459997  44.5149992 117.6954990  62.6029997
  46.2109992 117.3194990  61.2619997  45.7629992 116.3094990  61.1429997
  47.2989992 117.1184990  61.3659997  46.0719992 118.0704990  59.9529997
  44.9919992 118.3314990  59.9209997  46.3289992 117.3464990  59.1509997
  46.9949992 119.2414990  59.7609997  48.0459992 118.9474990  59.9679997
  46.7519992 119.8984990  60.6229997  46.9339992 120.0394990  58.4249997
  47.5529992 120.9594990  58.4929997  45.8869992 120.4084990  58.3899997
  47.3789992 119.3684990  57.1659997  47.2219992 119.9664990  56.2429997
  46.7289992 118.4724990  57.0739997  48.8339992 118.9834990  57.3089997
  48.9629992 118.1754990  58.0599997  49.4089992 119.8664990  57.6619997
  49.5879992 118.5634990  56.0199997  48.9409992 117.9824990  55.3279997
  50.3909992 117.9314990  56.4549997  50.2309992 119.6784990  55.2439997
  50.4539992 120.5164990  55.9369997  49.4599992 120.1164990  54.5749997
  51.2119992 119.4114990  54.7939997   8.5999992  77.1774990  53.6519997
   7.7969992  77.7594990  54.1529997   8.5969992  76.1694990  54.1199997
   8.3329992  77.0304990  52.5839997   9.9359992  77.9224990  53.6529997
  10.7569992  77.2874990  53.2569997   9.7769992  78.7894990  52.9769997
  10.2879992  78.5944990  54.9849997  11.1149992  79.3304990  54.8869997
   9.3999992  79.2164990  55.2259997  10.5689992  77.6814990  56.1759997
   9.7139992  77.0124990  56.4119997  11.3679992  77.0054990  55.8019997
  10.9499992  78.3864990  57.4559997  11.7999992  79.0964990  57.3819997
  10.0699992  79.0284990  57.6749997  11.2709992  77.4454990  58.6309997
  10.4479992  76.7014990  58.6949997  12.1919992  76.9174990  58.3029997
  11.4499992  78.2064990  59.9229997  10.5609992  78.8164990  60.1899997
  11.5209992  77.4664990  60.7479997  12.6679992  79.1194990  60.0149997
  13.5339992  78.5144990  59.6699997  12.4819992  80.0184990  59.3879997
  12.8679992  79.8904990  61.3209997  13.1559992  79.1424990  62.0899997
  13.7389992  80.5744990  61.2219997  11.5889992  80.6584990  61.6989997
  11.0759992  81.2164990  60.8859997  10.8069992  79.8904990  61.8809997
  11.8209992  81.6074990  62.8829997  12.6639992  82.2394990  62.5309997
  10.9369992  82.2474990  63.0949997  12.0319992  80.7884990  64.1949997
  11.1219992  80.2134990  64.4699997  12.7689992  79.9884990  63.9699997
  12.3879992  81.6714990  65.4369997  13.3309992  82.2454990  65.3139997
  11.6269992  82.4504990  65.6559997  12.6559992  80.7814990  66.7709997
  11.8369992  80.1104990  67.1099997  13.5219992  80.1304990  66.5249997
  13.0519992  81.6574990  67.9059997  13.6909992  81.1504990  68.6599997
  13.6619992  82.4644990  67.4469997  11.8039992  82.2234990  68.6859997
  10.7759992  82.6294990  68.1259997  11.9739992  82.1664990  69.9919997
  10.8069992  82.5724990  70.8029997  11.2219992  83.1034990  71.6859997
  10.2299992  83.3784990  70.2999997  10.0599992  81.3254990  71.3629997
   9.4569992  81.7474990  72.1949997  11.0429992  80.3264990  72.0769997
  11.7869992  79.9994990  71.3199997  11.6299992  80.8674990  72.8499997
  10.4129992  79.1754990  72.6039997  11.1149992  78.3804990  73.8159997
  10.2709992  78.6324990  75.1019997   8.8629992  78.3714990  75.1559997
   8.6259992  77.6544990  74.3409997   8.6099992  77.8484990  76.1019997
   7.9819992  79.7234990  75.1739997   7.8989992  80.1804990  74.1989997
   7.0159992  79.3224990  75.4439997   8.3049992  80.9074990  75.9939997
   7.1679992  81.9254990  75.9929997   7.4919992  82.8524990  76.4409997
   7.0259992  82.1424990  74.9439997   6.3639992  81.4684990  76.5509997
   8.4639992  80.4944990  77.5119997   8.7839992  81.3134990  78.1379997
   7.4829992  80.3454990  77.9359997   9.1399992  79.6534990  77.5669997
   9.6209992  81.4894990  75.5669997  10.4209992  81.0734990  76.1609997
   9.6189992  82.5424990  75.8039997   9.7649992  81.2724990  74.5189997
  11.0779992  76.9524990  73.4159997  12.4009992  79.0104990  74.1379997
   9.3499992  80.5764990  70.3109997   8.1039992  81.0234990  70.0669997
   7.6009992  81.9844990  70.6499997   7.5109992  80.2114990  68.8699997
   6.4969992  80.6044990  68.6449997   7.4829992  79.1314990  69.1309997
   8.3359992  80.3814990  67.5739997   9.3349992  79.9414990  67.7779997
   8.3309992  81.4904990  67.5059997   7.6169992  79.7244990  66.3229997
   6.6419992  80.2534990  66.2619997   7.3339992  78.6704990  66.5309997
   8.3899992  79.8814990  64.9919997   9.3519992  79.3304990  65.0739997
   8.6609992  80.9334990  64.7599997   7.7009992  79.2574990  63.7639997
   8.2869992  79.4864990  62.8489997   6.7649992  79.8084990  63.5279997
   7.4689992  77.7564990  63.8939997   6.6839992  77.4664990  64.6249997
   8.4689992  77.3884990  64.2069997   7.1299992  76.9884990  62.6079997
   6.7459992  75.9654990  62.8089997   8.0149992  76.9014990  61.9419997
   6.0059992  77.6354990  61.7609997   5.0729992  77.8564990  62.3009997
   6.0549992  78.1484990  60.4749997   5.2009992  78.5284990  59.8949997
   7.3439992  78.1714990  59.6709997   7.1639992  77.8954990  58.6099997
   8.1349992  77.4484990  59.9649997   7.8569992  79.6474990  59.6729997
   8.8339992  79.7264990  59.1509997   8.1799992  80.0304990  60.6649997
   6.8319992  80.5404990  58.9439997   5.9769992  80.6644990  59.6419997
   6.5979992  79.9594990  58.0259997   7.1759992  82.0284990  58.7459997
   7.4329992  82.5434990  59.6959997   6.3359992  82.6434990  58.3589997
   8.4059992  82.3184990  57.8969997   9.1819992  81.5494990  58.0969997
   8.8159992  83.2984990  58.2229997   8.1009992  82.2404990  56.4129997
   7.4239992  83.0854990  56.1639997   7.6629992  81.2344990  56.2379997
   9.3759992  82.2834990  55.4919997   9.0179992  82.1284990  54.4519997
  10.0109992  81.4274990  55.8059997  10.1619992  83.5684990  55.5889997
  10.5889992  83.7104990  56.6039997   9.5689992  84.5054990  55.5199997
  10.9469992  83.6084990  54.8039997 128.8769992  58.1094990  58.2939997
 129.7499992  58.3464990  57.6489997 129.2159992  58.5534990  59.2539997
 127.9069992  58.6224990  58.1209997 128.5459992  56.6034990  58.4489997
 128.6809992  56.0764990  57.4809997 129.1629992  56.1334990  59.2449997
 127.0209992  56.2704990  58.9299997 126.7529992  57.1494990  59.5549997
 126.3739992  56.3494990  58.0299997 126.8179992  54.9474990  59.6799997
 127.2649992  54.1584990  59.0389997 127.1449992  54.9914990  60.7409997
 125.3399992  54.4894990  59.7659997 124.7649992  55.4084990  60.0109997
 125.0029992  54.2674990  58.7309997 125.0939992  53.1554990  60.5789997
 124.0399992  52.8514990  60.4049997 125.7919992  52.4584990  60.0679997
 125.4089992  53.1824990  62.0599997 125.1419992  52.2234990  62.5549997
 126.5109992  53.2884990  62.1529997 124.6749992  54.2754990  62.8739997
 125.1639992  54.1724990  63.8659997 125.1699992  55.2004990  62.5079997
 123.0899992  54.1754990  62.8269997 122.6839992  53.8494990  61.8459997
 122.8189992  53.3454990  63.5139997 122.3989992  55.4864990  63.2169997
 122.5709992  56.2414990  62.4189997 121.3189992  55.2304990  63.2669997
 122.9339992  55.9844990  64.5879997 122.9869992  55.0624990  65.2069997
 123.9399992  56.3654990  64.3129997 122.0109992  56.9434990  65.3329997
 121.8099992  57.8664990  64.7479997 121.0239992  56.4324990  65.3579997
 122.4679992  57.1724990  66.7669997 123.4169992  57.7464990  66.6959997
 121.7079992  57.8614990  67.1939997 122.5379992  55.9444990  67.6139997
 121.7549992  55.2434990  67.2559997 123.4749992  55.3824990  67.4109997
 122.4319992  56.1214990  69.1229997 123.0749992  56.9394990  69.5129997
 121.3819992  56.3884990  69.3659997 122.7769992  54.7994990  69.7869997
 122.2319992  53.7664990  69.5009997 123.6609992  55.0074990  70.7429997
 124.0229992  53.8854990  71.4609997 123.1549992  53.3654990  71.9219997
 124.5329992  53.1774990  70.7739997 124.9169992  54.3534990  72.6879997
 125.2959992  53.4174990  73.1499997 124.0099992  55.0834990  73.7339997
 123.1409992  55.4774990  73.1659997 123.7219992  54.3794990  74.5439997
 124.8309992  56.1034990  74.3399997 125.6369992  55.9984990  75.7039997
 126.7859992  57.0964990  75.5829997 127.5249992  57.4674990  74.5029997
 128.4989992  56.9344990  74.4469997 127.0289992  57.1724990  73.5539997
 127.7739992  58.9884990  74.5349997 128.2389992  59.1314990  75.4989997
 128.4989992  59.1454990  73.7499997 126.6089992  60.0234990  74.3549997
 125.8329992  60.0594990  75.6359997 124.9889992  60.6954990  75.4119997
 125.5899992  59.0594990  75.9629997 126.3759992  60.3454990  76.5239997
 127.1749992  61.3904990  73.9509997 126.4979992  62.1964990  74.1899997
 128.0799992  61.5924990  74.5049997 127.4849992  61.3544990  72.9169997
 125.7599992  59.5704990  73.1949997 126.3799992  59.5204990  72.3119997
 125.0039992  60.3194990  73.0069997 125.3089992  58.6234990  73.4479997
 124.7649992  56.4794990  76.7499997 126.3329992  54.6914990  75.9199997
 125.9699992  55.2514990  72.2739997 126.7839992  54.7474990  71.4489997
 126.8329992  53.6144990  70.8929997 127.9249992  55.7074990  71.1089997
 128.8339992  55.0774990  71.0139997 128.0929992  56.2804990  72.0459997
 127.6159992  56.5614990  69.8639997 127.1419992  55.8244990  69.1809997
 128.5519992  56.9804990  69.4369997 126.6039992  57.6364990  70.0449997
 126.7999992  58.3074990  70.9099997 125.6679992  57.1184990  70.3459997
 126.2439992  58.5274990  68.8289997 125.1709992  58.7704990  68.9799997
 126.0909992  57.9534990  67.8899997 127.1509992  59.8064990  68.6819997
 127.6059992  59.9464990  69.6859997 126.5309992  60.7244990  68.6059997
 128.2339992  59.7014990  67.6499997 128.7869992  58.7554990  67.8299997
 128.9479992  60.5124990  67.9069997 127.6509992  59.7094990  66.1899997
 127.2259992  60.7344990  66.1409997 126.8919992  58.9114990  66.0379997
 128.7519992  59.6704990  65.1549997 129.3489992  60.5944990  65.1759997
 129.0179992  58.6894990  64.3469997 129.6519992  58.8734990  63.4669997
 128.3079992  57.3914990  64.2359997 127.8129992  56.9744990  65.1389997
 129.0549992  56.5814990  64.0929997 127.2739992  57.2564990  63.0469997
 126.8949992  56.2184990  63.1659997 127.8639992  57.2744990  62.1069997
 126.0379992  58.1674990  63.0439997 125.5289992  58.3804990  64.0079997
 125.3929992  57.5374990  62.3949997 126.2129992  59.5234990  62.3809997
 127.0169992  59.4344990  61.6199997 126.4759992  60.2774990  63.1539997
 124.9299992  60.0294990  61.6789997 125.0509992  61.0524990  61.2639997
 124.0179992  60.0024990  62.3129997 124.6739992  59.3234990  60.3829997
 124.4699992  58.2654990  60.6539997 125.5829992  59.3304990  59.7429997
 123.5049992  59.9314990  59.5929997 123.7939992  60.9824990  59.3759997
 122.5829992  59.9774990  60.2119997 123.2299992  59.1124990  58.3209997
 122.6929992  59.7734990  57.6069997 122.7549992  58.1484990  58.6059997
 124.2009992  58.9104990  57.8219997 128.2029992  97.1224990  56.4339997
 129.2699992  97.3344990  56.2079997 127.7509992  98.1304990  56.5479997
 127.8089992  96.5674990  55.5559997 127.8869992  96.4244990  57.7369997
 128.4779992  95.4954990  57.5879997 128.3149992  96.9024990  58.6439997
 126.4439992  96.0444990  58.1029997 126.0649992  95.5854990  57.1649997
 126.5029992  95.2534990  58.8809997 125.5089992  97.1454990  58.5029997
 125.9869992  97.8814990  59.1849997 125.3469992  97.7934990  57.6149997
 124.0369992  96.6864990  58.7389997 123.4219992  97.5134990  58.3239997
 123.9089992  95.7654990  58.1299997 123.8149992  96.3174990  60.2289997
 124.5229992  95.4974990  60.4789997 124.1039992  97.1334990  60.9239997
 122.3439992  95.9434990  60.5969997 121.6829992  96.8124990  60.3899997
 122.0829992  94.9594990  60.1519997 122.2369992  95.8014990  62.1439997
 122.8659992  94.9444990  62.4669997 122.7759992  96.6854990  62.5479997
 120.8529992  95.6034990  62.7849997 120.1589992  96.4004990  62.4419997
 120.4399992  94.6334990  62.4309997 120.8959992  95.6744990  64.2889997
 121.3459992  96.6424990  64.5979997 119.8599992  95.6164990  64.6869997
 121.7899992  94.5994990  64.8359997 121.4729992  93.7154990  64.2419997
 122.8159992  94.9404990  64.5849997 121.6709992  94.4984990  66.3549997
 121.9429992  95.4334990  66.8899997 120.5779992  94.3794990  66.5129997
 122.6119992  93.3814990  66.8899997 122.5249992  92.5074990  66.2089997
 123.6529992  93.7054990  66.6759997 122.3029992  92.8964990  68.2429997
 122.4049992  93.7524990  68.9439997 121.2579992  92.5294990  68.1499997
 123.1839992  91.6654990  68.7449997 122.8049992  91.4854990  69.7739997
 122.9279992  90.8314990  68.0579997 124.6819992  91.9114990  68.6859997
 125.3529992  92.0864990  67.6659997 125.2299992  91.8084990  69.9179997
 126.7009992  91.9154990  70.0169997 127.0879992  91.2294990  70.7999997
 127.1839992  91.5964990  69.0679997 127.1529992  93.4334990  70.2569997
 128.2619992  93.4784990  70.2029997 126.7139992  93.8264990  71.6359997
 127.0849992  93.1034990  72.3939997 127.2679992  94.7624990  71.8629997
 125.3219992  94.0984990  71.6199997 124.4869992  93.8214990  72.9209997
 125.3459992  94.4674990  74.1409997 124.6229992  95.2514990  75.1479997
 123.9529992  96.0034990  74.6769997 123.9679992  94.5294990  75.6809997
 125.7059992  96.0754990  75.9349997 126.4839992  96.4544990  75.2879997
 125.2859992  96.8744990  76.5279997 126.6269992  95.3644990  76.9439997
 127.7659992  94.6744990  76.2219997 128.1649992  95.3574990  75.4859997
 128.5499992  94.4694990  76.9359997 127.3929992  93.8614990  75.6169997
 127.2979992  96.3264990  77.9169997 126.4729992  96.8304990  78.3979997
 128.0419992  95.8264990  78.5189997 127.8579992  96.9814990  77.2649997
 125.8169992  94.4094990  77.7439997 125.0989992  93.9564990  77.0759997
 125.3139992  94.9174990  78.5539997 126.4029992  93.5584990  78.0579997
 123.1049992  94.4284990  72.8019997 124.5519992  92.3594990  73.0779997
 126.5039992  94.2264990  69.2509997 126.8419992  95.4864990  69.1709997
 127.7269992  96.0734990  69.8549997 126.0489992  96.2214990  68.1879997
 125.8149992  97.2314990  68.5869997 125.1769992  95.6794990  67.7629997
 127.0249992  96.4484990  66.9269997 127.9509992  96.9454990  67.2859997
 126.3739992  97.1674990  66.3839997 127.3169992  95.2064990  66.1619997
 126.3329992  94.6914990  66.1919997 127.9419992  94.5124990  66.7649997
 127.7839992  95.3704990  64.7219997 128.8279992  95.7434990  64.7979997
 127.1859992  96.1534990  64.2079997 127.9969992  94.0214990  63.9499997
 127.7299992  93.1944990  64.6419997 129.0949992  93.9024990  63.8279997
 127.2129992  93.9524990  62.6729997 127.4289992  92.9554990  62.2319997
 127.7019992  94.6744990  61.9849997 125.6959992  94.0734990  62.7739997
 125.1879992  93.9534990  61.7929997 125.5799992  95.0914990  63.2039997
 124.9939992  93.2034990  63.8549997 124.7859992  93.7574990  64.7819997
 124.7669992  91.8784990  63.8619997 124.2659992  91.3784990  64.7039997
 125.1359992  90.9014990  62.7809997 125.6029992  89.9624990  63.1489997
 126.0199992  91.2864990  62.2299997 124.0129992  90.4304990  61.8789997
 123.1639992  90.1294990  62.5289997 124.3389992  89.6034990  61.2119997
 123.5199992  91.4754990  60.8379997 123.2919992  92.4564990  61.3069997
 122.5659992  91.1404990  60.3759997 124.5019992  91.6764990  59.6539997
 124.7279992  90.7364990  59.1069997 125.4679992  92.1204990  59.9779997
 123.9749992  92.6804990  58.5179997 123.8279992  93.6454990  59.0499997
 123.0199992  92.3134990  58.0839997 124.9989992  92.7154990  57.3879997
 126.0189992  92.9654990  57.7489997 124.6249992  93.5064990  56.7029997
 124.9429992  91.4974990  56.5059997 123.9119992  91.0844990  56.5269997
 125.5799992  90.6684990  56.8819997 125.3489992  91.7464990  55.0289997
 125.4819992  90.7304990  54.5999997 126.2769992  92.3564990  54.9999997
 124.5239992  92.3784990  54.6359997   7.4819992  43.6244990  58.6589997
   7.0309992  44.3504990  57.9489997   6.7489992  42.9804990  59.1899997
   8.0759992  42.9854990  57.9719997   8.2129992  44.4354990  59.7429997
   8.6669992  43.8504990  60.5709997   9.0339992  44.9574990  59.2059997
   7.3109992  45.5264990  60.2539997   7.2079992  46.2364990  59.4049997
   6.2759992  45.1724990  60.4469997   7.8329992  46.4504990  61.3889997
   8.8549992  46.7964990  61.1259997   7.1149992  47.2984990  61.3839997
   7.8019992  45.8604990  62.8629997   6.8059992  45.4834990  63.1759997
   8.5119992  45.0444990  63.1179997   8.1489992  46.9584990  63.8449997
   7.4289992  47.8044990  63.8399997   8.1579992  46.5774990  64.8879997
   9.6229992  47.6304990  63.7229997   9.7359992  47.9624990  62.6689997
   9.6439992  48.5604990  64.3319997  10.8319992  46.6364990  63.8829997
  10.7409992  46.1864990  64.8939997  10.7259992  45.8904990  63.0669997
  12.1779992  47.3544990  63.6139997  12.9899992  46.6104990  63.7639997
  12.2459992  47.5774990  62.5269997  12.7389992  48.5134990  64.3559997
  13.7859992  48.7544990  64.0729997  12.1359992  49.4374990  64.2319997
  12.8639992  48.3324990  65.8849997  13.2109992  47.3314990  66.2189997
  13.5889992  49.1314990  66.1489997  11.5439992  48.6464990  66.5649997
  11.0769992  49.5594990  66.1369997  10.8529992  47.8574990  66.2009997
  11.5889992  48.5344990  68.1499997  10.7269992  47.9284990  68.5019997
  12.4919992  48.0174990  68.5379997  11.6169992  49.8784990  68.7959997
  12.6189992  50.3274990  68.6229997  10.9019992  50.5144990  68.2319997
  11.5089992  49.8434990  70.3189997  12.2779992  49.1594990  70.7359997
  11.8289992  50.8524990  70.6559997  10.0469992  49.5984990  70.7469997
   9.1759992  49.6314990  69.9449997   9.9729992  49.3284990  72.0749997
   8.6619992  49.0884990  72.5749997   8.6749992  49.4214990  73.6349997
   7.9019992  49.7344990  72.0849997   8.2299992  47.6094990  72.6279997
   7.1599992  47.5134990  72.9099997   9.0279992  46.7404990  73.7739997
   8.9659992  47.2264990  74.7719997   8.5849992  45.7214990  73.7639997
  10.3609992  46.5144990  73.3539997  11.6429992  46.6214990  74.3049997
  11.5619992  45.3094990  75.1549997  11.6459992  44.0054990  74.6179997
  11.1949992  43.8984990  73.6079997  12.7289992  43.7644990  74.5659997
  10.9619992  42.9744990  75.5429997  11.2449992  42.0254990  75.1129997
  11.5119992  43.0354990  76.4699997   9.4669992  43.0904990  75.6539997
   9.0659992  44.3024990  76.5039997   9.7079992  44.3004990  77.3729997
   9.1309992  45.2624990  76.0119997   8.0449992  44.1704990  76.8289997
   8.8369992  43.1104990  74.2869997   9.3049992  43.9814990  73.8529997
   9.0549992  42.1894990  73.7669997   7.7639992  43.2014990  74.3659997
   8.8969992  41.9204990  76.4499997   7.8259992  42.0324990  76.5239997
   9.2229992  42.0224990  77.4749997   9.1209992  41.0794990  75.8109997
  12.9029992  46.5064990  73.4879997  11.4269992  47.8654990  75.1139997
   8.4189992  47.0084990  71.3029997   7.7189992  45.8604990  71.0719997
   7.0059992  45.3144990  71.9149997   7.9699992  45.4354990  69.6319997
   8.9399992  45.8904990  69.3399997   7.2279992  45.9584990  68.9919997
   7.9629992  43.9844990  69.2599997   7.0369992  43.4324990  69.5289997
   8.6759992  43.4374990  69.9129997   8.1569992  43.7814990  67.7509997
   8.9949992  44.3734990  67.3239997   7.2169992  44.1004990  67.2519997
   8.3829992  42.3194990  67.3079997   7.5059992  41.6754990  67.5329997
   9.3419992  41.9934990  67.7649997   8.4569992  42.2304990  65.7809997
   7.5819992  42.7604990  65.3469997   8.2509992  41.2074990  65.3999997
   9.6949992  42.8324990  65.0829997   9.9729992  43.8384990  65.4629997
   9.3379992  42.8044990  64.0309997  11.0029992  41.9624990  65.3639997
  11.3119992  42.0304990  66.4279997  11.7589992  42.6124990  64.8729997
  10.9719992  40.5414990  65.0059997  11.1009992  39.8324990  65.8379997
  10.9909992  40.1104990  63.7529997  11.0199992  39.0434990  63.4859997
  11.0019992  40.9724990  62.4849997  11.2169992  42.0484990  62.6539997
  10.0709992  40.8704990  61.8869997  12.1529992  40.5494990  61.4509997
  12.0309992  39.4904990  61.1369997  13.1079992  40.6674990  62.0059997
  12.1259992  41.3884990  60.1339997  11.1169992  41.3764990  59.6689997
  12.8359992  40.9964990  59.3739997  12.4849992  42.8854990  60.4349997
  13.3369992  43.0634990  61.1249997  11.7099992  43.4104990  61.0319997
  12.7279992  43.7264990  59.2159997  11.8199992  43.8314990  58.5859997
  13.4769992  43.2554990  58.5439997  13.0359992  45.1674990  59.5359997
  14.1219992  45.3524990  59.6849997  12.5509992  45.4654990  60.4909997
  12.6329992  46.1254990  58.3689997  12.8299992  47.1384990  58.7809997
  11.5749992  46.0354990  58.0419997  13.4719992  46.0324990  57.0739997
  13.1269992  46.7294990  56.2799997  13.4139992  44.9664990  56.7659997
  14.5139992  46.3354990  57.3119997 107.6269992  32.7194990  55.1949997
 106.7789992  32.0044990  55.1339997 107.3609992  33.6044990  54.5779997
 107.8349992  33.0684990  56.2289997 108.8719992  32.0364990  54.6699997
 108.7519992  31.7214990  53.6119997 109.7079992  32.7664990  54.7199997
 109.2249992  30.7374990  55.3699997 108.8999992  30.8604990  56.4249997
 108.6099992  29.8794990  55.0229997 110.6289992  30.3054990  55.1899997
 110.9269992  30.3574990  54.1209997 111.2669992  31.0194990  55.7539997
 111.0279992  28.8414990  55.5829997 110.6569992  28.3324990  54.6679997
 112.1369992  28.7754990  55.5509997 110.6859992  28.4354990  56.9979997
 111.2899992  29.0594990  57.6909997 109.6159992  28.6764990  57.1789997
 110.8999992  26.9184990  57.1939997 109.9819992  26.3654990  56.9009997
 111.7199992  26.5594990  56.5359997 111.2009992  26.4444990  58.6609997
 111.3549992  25.3574990  58.4879997 112.1619992  26.9144990  58.9589997
 110.0839992  26.8794990  59.7429997 109.8749992  27.9674990  59.6499997
 109.1259992  26.3334990  59.6049997 110.5529992  26.6974990  61.1609997
 109.7109992  27.0464990  61.7959997 110.7019992  25.6514990  61.5049997
 111.7249992  27.6174990  61.6249997 112.6469992  27.4394990  61.0319997
 111.4529992  28.6854990  61.4869997 112.2159992  27.4604990  63.0709997
 112.5179992  26.4384990  63.3859997 112.9689992  28.2414990  63.3079997
 111.0359992  27.7614990  64.0079997 110.5639992  28.6994990  63.6459997
 110.2899992  26.9474990  63.8799997 111.4189992  27.7104990  65.4889997
 111.5409992  26.6484990  65.7919997 112.4019992  28.2034990  65.6429997
 110.2229992  28.1404990  66.3559997 109.9239992  29.0874990  65.8589997
 109.4439992  27.3544990  66.2599997 110.8179992  28.3374990  67.7889997
 111.7179992  27.6804990  68.1979997 110.2789992  29.4174990  68.3099997
 110.5739992  29.4724990  69.7009997 109.9619992  28.6994990  70.2129997
 111.6469992  29.4484990  69.9859997 110.0269992  30.8454990  70.2709997
 110.5009992  31.6784990  69.7079997 110.4939992  31.0254990  71.7069997
 111.5699992  30.7524990  71.7469997 110.4039992  32.0874990  72.0189997
 109.6549992  30.1504990  72.5169997 110.1259992  29.3594990  73.7959997
 110.7199992  30.4754990  74.7309997 110.3349992  30.6004990  76.0799997
 109.4559992  29.9974990  76.3929997 111.1969992  30.2824990  76.7039997
 109.8549992  32.0224990  76.3259997 108.8589992  32.0944990  75.9149997
 109.8229992  32.2094990  77.3889997 110.7529992  33.1934990  75.8589997
 110.8179992  34.2214990  76.8779997 111.5459992  33.8874990  77.6039997
 111.1929992  35.1074990  76.3879997 109.8639992  34.4394990  77.3339997
 112.1479992  32.6914990  75.7489997 112.3699992  32.1884990  76.6789997
 112.2739992  31.9834990  74.9429997 112.8649992  33.4934990  75.6489997
 110.2799992  33.6904990  74.5059997 109.3079992  34.1544990  74.5849997
 110.2929992  32.9264990  73.7429997 111.0069992  34.4124990  74.1649997
 108.9209992  28.8584990  74.4059997 111.1859992  28.3374990  73.6249997
 108.6079992  30.8954990  70.1549997 108.1369992  31.2394990  68.9099997
 108.8249992  31.6614990  68.0129997 106.7119992  31.1884990  68.8749997
 106.3349992  32.1934990  69.1609997 106.1879992  30.5194990  69.5909997
 106.1409992  31.1754990  67.4359997 106.5399992  32.0674990  66.9079997
 105.0479992  31.3134990  67.2859997 106.5149992  29.8864990  66.6249997
 106.2629992  28.9384990  67.1459997 107.6009992  30.0464990  66.4559997
 105.9699992  29.8854990  65.2429997 106.1719992  30.8194990  64.6769997
 104.8659992  29.8394990  65.3619997 106.4389992  28.6474990  64.3669997
 105.9389992  27.7724990  64.8339997 107.5269992  28.7154990  64.5819997
 106.0259992  28.7344990  62.9019997 104.9349992  28.9474990  62.9029997
 106.3479992  27.7584990  62.4799997 106.5869992  29.8914990  62.0839997
 106.1499992  30.8574990  62.4169997 106.2939992  29.6514990  61.0389997
 108.0719992  29.8714990  61.8929997 108.4319992  28.9214990  61.4719997
 108.8969992  30.9034990  62.2119997 109.9849992  30.7904990  62.0949997
 108.5479992  32.2594990  62.8179997 108.2209992  32.0474990  63.8589997
 107.8739992  32.8694990  62.1799997 109.7649992  33.1974990  62.8309997
 110.7339992  32.7594990  63.1509997 109.5459992  33.9964990  63.5719997
 110.0219992  34.0984990  61.5699997 110.5769992  34.9984990  61.9129997
 109.0509992  34.5124990  61.2219997 110.7249992  33.3644990  60.3489997
 110.8189992  34.1284990  59.5479997 110.3009992  32.4474990  59.8869997
 112.0909992  32.7824990  60.6999997 111.9129992  31.8484990  61.2759997
 112.7339992  33.5344990  61.2049997 112.8889992  32.5134990  59.4389997
 112.4429992  31.6674990  58.8739997 113.8539992  32.1644990  59.8649997
 113.2209992  33.7434990  58.6589997 114.3249992  33.7534990  58.5379997
 112.9649992  34.6304990  59.2759997 112.4609992  33.7524990  57.3099997
 111.5779992  33.0844990  57.3969997 113.0679992  33.3054990  56.4939997
 112.1399992  34.7544990  56.9519997  61.1059992 136.1944990  56.1069997
  60.8099992 136.9114990  56.9019997  60.7069992 136.4694990  55.1069997
  62.2099992 136.0634990  56.1139997  60.5159992 134.7814990  56.4539997
  59.4149992 134.8844990  56.3549997  60.8629992 134.0294990  55.7129997
  61.0009992 134.2784990  57.7689997  62.0869992 134.3254990  58.0009997
  60.3609992 134.7414990  58.5499997  60.8599992 132.7314990  57.8389997
  59.7879992 132.4754990  57.6969997  61.4689992 132.2234990  57.0609997
  61.2999992 132.0914990  59.1449997  61.2219992 131.0074990  58.9119997
  62.3429992 132.4324990  59.3139997  60.4999992 132.3734990  60.4249997
  60.4639992 133.4624990  60.6399997  59.4899992 132.0064990  60.1419997
  60.7509992 131.5164990  61.6749997  60.5929992 130.4304990  61.5029997
  61.7069992 131.7184990  62.2039997  59.6229992 131.7004990  62.7439997
  59.8199992 130.9174990  63.5069997  59.6719992 132.7604990  63.0739997
  58.1569992 131.4274990  62.3349997  57.8799992 131.7314990  61.3029997
  57.9339992 130.3434990  62.4249997  57.1109992 132.2184990  63.1119997
  57.2769992 133.2444990  62.7199997  56.1199992 131.9934990  62.6619997
  57.1069992 132.1424990  64.6389997  57.2519992 131.0644990  64.8669997
  58.0849992 132.5164990  65.0109997  55.7729992 132.5104990  65.5019997
  54.8789992 131.9414990  65.1669997  55.8589992 132.3974990  66.6039997
  55.3289992 133.9004990  65.3159997  55.1729992 134.1944990  64.2559997
  54.4159992 134.1284990  65.9049997  56.3089992 135.0224990  65.7159997
  57.2779992 134.7484990  65.2469997  55.9929992 135.9964990  65.2869997
  56.4009992 135.2114990  67.2569997  56.7569992 136.2504990  67.4219997
  55.4049992 135.1884990  67.7479997  57.4639992 134.2534990  67.8139997
  58.6679992 134.3424990  67.5639997  56.9669992 133.4224990  68.7209997
  57.9449992 132.8404990  69.6379997  57.5629992 131.8464990  69.9539997
  58.9699992 132.6624990  69.2459997  58.3149992 133.6114990  70.9399997
  58.8259992 132.8844990  71.6069997  57.0999992 134.1484990  71.7539997
  56.4189992 134.5174990  70.9579997  56.5889992 133.2664990  72.1979997
  57.4559992 135.1924990  72.6169997  57.6119992 135.0124990  74.1739997
  58.9369992 134.2054990  74.2919997  60.1149992 134.8654990  74.8199997
  60.4829992 135.7064990  74.1949997  59.8749992 135.3314990  75.7989997
  61.3649992 133.9134990  74.9959997  61.8189992 133.6334990  74.0569997
  62.1459992 134.4204990  75.5439997  61.2809992 132.6744990  75.8579997
  60.2879992 131.7464990  75.1549997  60.1729992 130.9504990  75.8759997
  59.4059992 132.3444990  74.9769997  60.7269992 131.3654990  74.2439997
  62.5989992 132.0234990  75.8829997  62.4579992 131.0834990  76.3949997
  62.9119992 131.9984990  74.8499997  63.2609992 132.6524990  76.4589997
  60.7139992 132.9084990  77.2149997  59.8939992 133.5944990  77.0639997
  61.3829992 133.3984990  77.9069997  60.4099992 131.9334990  77.5659997
  57.6909992 136.3574990  74.7239997  56.4899992 134.2134990  74.7379997
  59.1059992 134.7124990  70.5119997  60.4589992 134.5364990  70.6069997
  61.0479992 133.5304990  70.9369997  61.1749992 135.9084990  70.3529997
  61.3449992 136.4034990  71.3329997  60.4239992 136.5224990  69.8099997
  62.5099992 135.7144990  69.6239997  62.2829992 134.9284990  68.8729997
  63.2629992 135.2384990  70.2879997  63.0669992 136.9984990  69.0259997
  63.8279992 136.6474990  68.2959997  63.6159992 137.6544990  69.7349997
  62.1499992 137.8764990  68.0939997  62.8269992 138.6204990  67.6219997
  61.5069992 138.5184990  68.7329997  61.2709992 137.1034990  67.1049997
  60.6869992 136.3584990  67.6869997  61.9859992 136.5584990  66.4519997
  60.3889992 138.0434990  66.2419997  60.9299992 138.8954990  65.7779997
  59.6809992 138.5454990  66.9349997  59.5139992 137.3544990  65.1039997
  58.8309992 138.0864990  64.6219997  58.7409992 136.6444990  65.4679997
  60.2879992 136.6144990  64.0559997  60.8969992 135.7614990  64.3889997
  60.2029992 136.8724990  62.7349997  60.7099992 136.1204990  62.1119997
  59.4319992 137.8694990  61.9369997  60.0959992 138.1404990  61.0889997
  59.1209992 138.8024990  62.4529997  58.2009992 137.1834990  61.3089997
  57.6949992 137.9534990  60.6889997  57.5269992 136.9084990  62.1479997
  58.6819992 136.0364990  60.4179997  58.9509992 135.2424990  61.1469997
  59.5459992 136.2764990  59.7609997  57.5059992 135.3194990  59.7519997
  56.6719992 135.3844990  60.4839997  57.6679992 134.2264990  59.6389997
  57.2359992 135.7814990  58.3579997  58.1839992 135.9444990  57.8019997
  56.6119992 136.6924990  58.4829997  56.4929992 134.8134990  57.4519997
  55.7239992 134.3374990  58.0969997  57.2599992 134.0674990  57.1519997
  55.8659992 135.3164990  56.1389997  55.2329992 136.1994990  56.3739997
  55.2979992 134.4794990  55.6789997  56.8269992 135.6584990  55.0259997
  57.5099992 136.4524990  55.3959997  56.3789992 136.0974990  54.1089997
  57.4729992 134.7844990  54.7979997  39.4049992  -0.5235010  57.2979997
  38.7999992  -0.9775010  58.1119997  38.9769992  -0.8835010  56.3389997
  39.3609992   0.5844990  57.2379997  40.8529992  -1.0765010  57.2299997
  40.8529992  -2.1795010  57.1019997  41.2899992  -0.6465010  56.3029997
  41.7549992  -0.6255010  58.3859997  41.2239992  -1.0595010  59.2599997
  42.7989992  -0.9915010  58.4859997  41.9929992   0.8784990  58.5829997
  42.5629992   1.3084990  57.7319997  40.9879992   1.3504990  58.6299997
  42.6759992   1.2894990  59.8929997  42.5729992   2.3944990  59.8369997
  42.0919992   0.9874990  60.7879997  44.1969992   1.1294990  59.9439997
  44.4639992   0.1004990  60.2669997  44.5799992   1.3174990  58.9179997
  44.9179992   2.1544990  60.8259997  46.0229992   2.0484990  60.8719997
  44.7519992   3.1774990  60.4239997  44.3429992   2.2084990  62.2149997
  43.2389992   2.0904990  62.2629997  44.7109992   1.3504990  62.8179997
  44.6949992   3.5104990  63.0329997  45.7749992   3.7434990  62.9239997
  44.1229992   4.2764990  62.4659997  44.3099992   3.3334990  64.4839997
  43.6389992   2.4634990  64.6469997  45.3029992   3.0464990  64.8899997
  43.6989992   4.5624990  65.1259997  43.6199992   4.3414990  66.2119997
  44.3719992   5.4434990  65.0459997  42.3329992   4.9464990  64.5829997
  42.3599992   5.1414990  63.4899997  41.7619992   4.0084990  64.7569997
  41.6409992   6.1464990  65.2489997  42.3649992   6.9794990  65.3839997
  40.7319992   6.4414990  64.6829997  41.1029992   5.8104990  66.6159997
  41.9539992   5.8624990  67.3269997  40.2709992   6.4994990  66.8769997
  40.2529992   4.4544990  66.6919997  39.7559992   4.1234990  65.7549997
  40.9459992   3.6184990  66.9249997  39.2509992   4.4864990  67.8469997
  38.2499992   5.1114990  67.8509997  39.5859992   3.4284990  68.6459997
  38.5949992   3.2414990  69.6559997  38.5269992   4.1444990  70.3009997
  37.5459992   3.0884990  69.3249997  39.1729992   2.0164990  70.4919997
  38.4479992   1.7294990  71.2829997  40.4119992   2.4114990  71.2799997
  41.1649992   2.9914990  70.7049997  39.9989992   3.0944990  72.0529997
  41.0059992   1.1834990  71.7639997  40.9389992   0.7884990  73.3099997
  41.4969992   2.0624990  73.9489997  42.9109992   2.2104990  74.1599997
  43.4559992   1.9494990  73.2269997  43.1949992   3.2814990  74.2389997
  43.3889992   1.4334990  75.4389997  43.0759992   0.4084990  75.3029997
  44.4639992   1.3814990  75.5279997  42.6939992   1.7654990  76.8089997
  43.4879992   1.1404990  77.8919997  44.5059992   1.4964990  77.9399997
  42.9529992   1.3924990  78.7949997  43.7169992   0.1124990  77.6539997
  42.7129992   3.2754990  76.9489997  42.1689992   3.6924990  76.1139997
  42.2159992   3.5174990  77.8769997  43.6999992   3.7144990  76.9219997
  41.2739992   1.1804990  76.8819997  41.2839992   0.1174990  76.6879997
  40.6629992   1.7004990  76.1589997  40.9119992   1.3154990  77.8899997
  39.5329992   0.6694990  73.7889997  41.8519992  -0.3275010  73.5309997
  39.4759992   0.9234990  69.5649997  38.4749992   0.2244990  69.1429997
  37.3349992   0.5414990  69.3109997  38.9599992  -1.1415010  68.6899997
  38.4719992  -1.8705010  69.3709997  40.0619992  -1.2785010  68.7249997
  38.4289992  -1.3535010  67.3089997  37.3609992  -1.0615010  67.4039997
  38.4769992  -2.4475010  67.1189997  39.1439992  -0.4975010  66.2289997
  40.1909992  -0.8185010  66.0399997  39.3469992   0.4514990  66.7699997
  38.2989992  -0.1235010  64.9809997  37.6639992  -0.9965010  64.7219997
  38.8929992   0.0824990  64.0649997  37.3769992   1.0204990  65.1419997
  37.8399992   2.0294990  65.1229997  37.0259992   0.9544990  66.1939997
  36.1299992   0.9984990  64.2149997  35.4179992   1.8184990  64.4499997
  35.6729992  -0.0075010  64.3289997  36.3599992   1.2764990  62.6729997
  35.5469992   0.8714990  62.0339997  37.2489992   0.6954990  62.3459997
  36.4729992   2.7564990  62.4339997  35.4659992   3.1964990  62.4739997
  37.4929992   3.4334990  62.0769997  37.2699992   4.4734990  61.7979997
  38.8609992   2.8794990  61.8299997  39.1839992   2.0734990  62.5229997
  39.5979992   3.6804990  62.0509997  39.2939992   2.4904990  60.4289997
  38.8289992   1.5394990  60.0919997  40.3859992   2.2944990  60.4889997
  39.0849992   3.4954990  59.2779997  37.9769992   3.4714990  59.1939997
  39.5769992   3.1114990  58.3589997  39.5759992   4.9394990  59.5549997
  40.5879992   4.7944990  59.9899997  38.9409992   5.5164990  60.2599997
  39.7859992   5.9314990  58.3959997  39.9209992   6.9474990  58.8249997
  38.7829992   5.9244990  57.9199997  40.9019992   5.5854990  57.4489997
  40.8409992   4.4914990  57.2679997  41.8959992   5.8454990  57.8709997
  40.9119992   6.2894990  56.0749997  41.2099992   7.3254990  56.3429997
  39.8989992   6.4754990  55.6579997  41.8119992   5.7064990  55.0569997
  41.9369992   6.3224990  54.1409997  41.4809992   4.7204990  54.6679997
  42.8039992   5.5514990  55.5329997  37.8409992 118.6374990  53.4269997
  36.9239992 118.3314990  53.9739997  38.1759992 117.7824990  52.8009997
  37.4049992 119.4014990  52.7479997  38.8039992 119.3254990  54.2689997
  39.5249992 119.8534990  53.6089997  38.1959992 120.1534990  54.6929997
  39.5079992 118.3814990  55.2979997  40.1649992 117.6454990  54.7879997
  40.2429992 119.0404990  55.8079997  38.4809992 117.5824990  56.2039997
  38.1599992 116.7974990  55.4859997  39.0409992 117.0364990  56.9929997
  37.3049992 118.3584990  56.8119997  37.6149992 119.2634990  57.3769997
  36.6419992 118.7314990  56.0019997  36.3639992 117.5204990  57.6709997
  35.3779992 118.0244990  57.7549997  36.1149992 116.5574990  57.1769997
  37.0309992 117.2444990  59.1249997  37.8479992 116.4954990  59.0419997
  37.4859992 118.1884990  59.4919997  36.0319992 116.6754990  60.1369997
  35.1859992 117.3854990  60.2589997  35.6969992 115.6814990  59.7709997
  36.5369992 116.3714990  61.6389997  35.6839992 116.0254990  62.2599997
  37.3349992 115.6154990  61.4769997  37.1839992 117.7094990  62.3679997
  38.0799992 118.0284990  61.7929997  36.3919992 118.4644990  62.5599997
  37.8829992 117.5564990  63.6829997  37.2049992 117.2064990  64.4909997
  38.5099992 116.6714990  63.4429997  38.5609992 118.8524990  64.1939997
  39.2519992 119.2964990  63.4459997  37.8199992 119.6734990  64.2959997
  39.1759992 118.6534990  65.5849997  38.4769992 118.0204990  66.1709997
  40.1659992 118.1484990  65.5589997  39.2799992 119.9634990  66.3889997
  40.1209992 120.6004990  66.0399997  38.3789992 120.5534990  66.1139997
  39.3569992 119.7094990  67.9139997  38.3869992 119.3114990  68.2809997
  40.1209992 119.0394990  68.3619997  39.5119992 121.1314990  68.5699997
  40.0369992 122.1424990  68.0849997  38.9899992 121.0984990  69.8779997
  38.7379992 122.3664990  70.5179997  39.5949992 122.5984990  71.1859997
  38.6269992 123.2084990  69.8019997  37.3269992 122.5134990  71.2569997
  37.2979992 123.4934990  71.7789997  37.2489992 121.3244990  72.2379997
  37.3879992 120.4324990  71.5919997  38.0269992 121.2124990  73.0239997
  35.9979992 121.3484990  72.8879997  35.5169992 120.1104990  73.7559997
  36.7899992 119.1614990  73.8599997  37.7559992 119.3964990  74.8759997
  38.7329992 119.0704990  74.4589997  37.8179992 120.4544990  75.2089997
  37.4719992 118.5944990  76.2229997  38.2529992 118.9114990  76.8979997
  36.5849992 119.0814990  76.6009997  37.4459992 117.0744990  76.2219997
  36.1209992 116.6514990  75.4779997  36.1859992 115.5954990  75.2599997
  35.2899992 116.9454990  76.1019997  36.2149992 117.1974990  74.5509997
  38.6559992 116.5074990  75.5099997  38.7829992 116.8524990  74.4939997
  39.5499992 116.9564990  75.9159997  38.6829992 115.4484990  75.7219997
  37.6219992 116.5874990  77.6269997  37.8839992 115.5404990  77.6309997
  36.6359992 116.6164990  78.0679997  38.3509992 117.2004990  78.1359997
  35.0649992 120.4454990  75.1359997  34.5459992 119.3964990  72.8959997
  36.2249992 122.3384990  70.3239997  35.8349992 123.3854990  69.6399997
  36.3199992 124.5334990  69.7459997  34.7729992 122.9054990  68.6159997
  34.9889992 123.1894990  67.5639997  33.7409992 123.2744990  68.7969997
  34.8579992 121.3694990  68.5799997  34.6509992 120.9624990  69.5929997
  35.9029992 121.0614990  68.3599997  33.8459992 120.7304990  67.6319997
  32.9069992 121.2094990  67.9819997  33.6959992 119.6314990  67.5769997
  34.0879992 121.1274990  66.2179997  35.1439992 121.0274990  65.8879997
  33.8389992 122.2004990  66.0719997  33.1749992 120.3074990  65.3119997
  32.1399992 120.3494990  65.7129997  33.3849992 119.2174990  65.2639997
  33.1129992 120.8624990  63.8629997  32.5229992 121.8034990  63.8649997
  32.4729992 120.1984990  63.2429997  34.4219992 120.9984990  63.0179997
  34.1259992 120.8294990  61.9599997  34.8679992 120.0304990  63.3299997
  35.3569992 122.1654990  63.3289997  35.0279992 122.8424990  64.1309997
  36.4209992 122.5344990  62.6529997  37.0059992 123.4384990  62.8819997
  36.8979992 121.8194990  61.4019997  36.5839992 120.7564990  61.3199997
  38.0059992 121.8584990  61.3299997  36.4599992 122.7624990  60.2329997
  37.0939992 123.6734990  60.2879997  35.4329992 123.1794990  60.3029997
  36.6609992 122.1674990  58.8669997  36.2259992 121.1464990  58.9269997
  37.7439992 122.0494990  58.6479997  35.9639992 122.9424990  57.7609997
  35.7609992 123.9754990  58.1149997  34.8939992 122.6584990  57.6599997
  36.6819992 122.8374990  56.3649997  36.6509992 121.7674990  56.0669997
  37.7569992 123.0674990  56.5269997  36.1489992 123.7914990  55.2569997
  35.7719992 124.8064990  55.5069997  35.2569992 123.2734990  54.8419997
  37.1339992 124.0274990  54.0829997  36.7209992 124.6834990  53.2869997
  37.4019992 123.0734990  53.5799997  38.4769992 124.5674990  54.5769997
  39.3919992 124.0904990  54.1649997  38.5909992 124.5054990  55.6799997
  38.5549992 125.6494990  54.3379997 120.2289992  47.0994990  57.4709997
 119.9739992  46.4024990  56.6449997 120.3569992  48.1394990  57.1019997
 119.4639992  47.0044990  58.2709997 121.7219992  46.6804990  57.9169997
 122.4499992  47.0334990  57.1559997 122.0729992  47.2754990  58.7859997
 121.8209992  45.2244990  58.1669997 121.5249992  44.5594990  57.3269997
 122.8929992  45.0354990  58.3899997 120.9799992  44.8304990  59.3749997
 121.1039992  45.5914990  60.1749997 119.9089992  44.6724990  59.1269997
 121.5989992  43.4744990  59.8699997 121.4629992  42.6164990  59.1779997
 122.6519992  43.5564990  60.2169997 120.9479992  43.0534990  61.2149997
 120.9669992  43.9594990  61.8579997 119.8719992  42.9324990  60.9669997
 121.5669992  41.7904990  61.8869997 121.6109992  41.0184990  61.0899997
 122.6249992  41.9024990  62.2079997 120.7559992  41.3124990  63.1629997
 121.3389992  40.4454990  63.5419997 120.6589992  42.0264990  64.0089997
 119.2949992  40.7034990  62.9069997 118.6599992  41.5184990  62.4979997
 119.4479992  39.9004990  62.1549997 118.6829992  40.0184990  64.0529997
 117.6889992  39.5824990  63.8159997 119.3009992  39.1834990  64.4479997
 118.5289992  41.0344990  65.2819997 119.5429992  41.3734990  65.5839997
 118.0249992  41.9234990  64.8459997 117.7539992  40.4014990  66.3969997
 116.7159992  40.3234990  66.0089997 118.2549992  39.4174990  66.5219997
 117.8709992  41.1424990  67.7069997 118.9419992  41.2304990  67.9889997
 117.4079992  42.1494990  67.6209997 117.1219992  40.3874990  68.7989997
 116.0579992  40.6974990  68.8699997 116.9819992  39.3194990  68.5249997
 117.6229992  40.7494990  70.2139997 117.8269992  41.8404990  70.2519997
 116.9819992  40.5144990  71.0909997 118.9639992  40.0244990  70.4249997
 119.3589992  38.9824990  69.8789997 119.6459992  40.7544990  71.3109997
 120.8549992  40.1984990  71.7359997 120.7339992  39.1404990  72.0549997
 121.6039992  40.1164990  70.9199997 121.6109992  41.0424990  72.8309997
 122.4939992  40.4434990  73.1409997 120.7379992  41.2754990  74.1089997
 120.3029992  40.3584990  74.5599997 121.3009992  41.7034990  74.9649997
 119.7859992  42.1904990  73.8209997 118.3549992  42.3464990  74.5069997
 118.5049992  43.3934990  75.6959997 119.6829992  44.0374990  76.1429997
 119.5079992  44.3594990  77.1919997 120.5719992  43.3794990  76.2429997
 120.0929992  45.3224990  75.3319997 120.9919992  45.6394990  75.8399997
 120.2229992  44.9804990  74.3159997 119.1699992  46.4224990  75.1639997
 117.9189992  45.9334990  74.5139997 117.3619992  45.3484990  75.2309997
 117.2799992  46.6744990  74.0549997 118.1299992  45.3774990  73.6119997
 118.7909992  46.9384990  76.5709997 118.3659992  46.1374990  77.1569997
 119.7549992  47.0654990  77.0409997 118.0019992  47.6664990  76.4559997
 119.6669992  47.5344990  74.2499997 118.8439992  48.2284990  74.1739997
 119.8739992  47.0674990  73.2979997 120.5449992  48.0234990  74.6449997
 117.4629992  42.9514990  73.4409997 117.9819992  41.0604990  75.0339997
 121.9889992  42.2824990  72.2719997 122.8589992  43.0744990  72.8919997
 123.3359992  42.8744990  73.9829997 123.2029992  44.1884990  71.9089997
 124.2809992  44.1734990  71.6399997 123.1099992  45.2054990  72.3459997
 122.4259992  44.0274990  70.5589997 121.3689992  43.7814990  70.7959997
 122.8199992  43.1094990  70.0729997 122.5119992  45.1964990  69.6209997
 123.5979992  45.3734990  69.4709997 122.0659992  46.1454990  69.9879997
 122.0749992  44.7904990  68.2039997 121.0249992  44.4334990  68.2729997
 122.7559992  44.0194990  67.7829997 122.1079992  46.0174990  67.3229997
 123.1279992  46.4524990  67.3869997 121.4359992  46.8034990  67.7299997
 121.6919992  45.8354990  65.8599997 122.6929992  45.6044990  65.4359997
 121.2249992  46.7614990  65.4619997 120.7589992  44.5994990  65.4619997
 121.1129992  43.6674990  65.9519997 120.7149992  44.4474990  64.3619997
 119.3399992  44.4854990  65.9109997 119.1049992  44.0004990  66.8699997
 118.3099992  45.2194990  65.3669997 117.2479992  45.1404990  65.6429997
 118.4319992  46.2314990  64.1729997 119.4289992  46.6774990  63.9659997
 117.8009992  47.0964990  64.4679997 118.0469992  45.6214990  62.8539997
 118.6659992  44.7334990  62.6029997 118.0659992  46.3544990  62.0199997
 116.6599992  45.0934990  62.8779997 116.0119992  45.9674990  62.6529997
 116.3559992  44.5394990  63.7919997 116.2319992  43.9834990  61.8559997
 115.1299992  43.8754990  61.7589997 116.6099992  42.9814990  62.1519997
 116.8699992  44.2214990  60.4299997 117.9689992  44.3334990  60.5439997
 116.4369992  45.0614990  59.8449997 116.7779992  43.0364990  59.4659997
 115.7469992  42.7624990  59.1549997 117.1689992  42.1574990  60.0219997
 117.6789992  43.2604990  58.2009997 118.7209992  43.0414990  58.5169997
 117.5259992  44.3154990  57.8879997 117.3749992  42.3444990  56.9799997
 117.4229992  41.3374990  57.4469997 118.1569992  42.3884990  56.1929997
 116.3399992  42.5384990  56.6269997  73.7549992 137.7994990  56.3809997
  74.6159992 138.0804990  55.7369997  73.5459992 138.6514990  57.0639997
  72.8979992 137.7424990  55.6769997  74.1479992 136.4114990  57.0289997
  74.2829992 135.6604990  56.2219997  75.1159992 136.5314990  57.5599997
  73.0989992 136.0694990  58.0109997  73.0369992 136.7724990  58.8689997
  72.0889992 136.0734990  57.5489997  73.4029992 134.7254990  58.5619997
  73.3869992 133.9714990  57.7469997  74.4629992 134.6604990  58.8879997
  72.5619992 134.2224990  59.7859997  71.5189992 133.9944990  59.4759997
  72.9509992 133.2464990  60.1479997  72.7179992 135.1694990  61.0349997
  73.8149992 135.3374990  61.0849997  72.2709992 136.1734990  60.8729997
  72.2209992 134.5674990  62.2729997  71.1829992 134.1844990  62.1749997
  72.8919992 133.7794990  62.6779997  71.9679992 135.5284990  63.4619997
  71.0889992 136.1544990  63.1969997  71.6729992 134.8814990  64.3149997
  73.1899992 136.4614990  63.7919997  74.1429992 135.9634990  63.5099997
  73.1799992 137.3384990  63.1089997  73.3119992 136.9594990  65.2459997
  74.3189992 137.4194990  65.3419997  72.5519992 137.7124990  65.5449997
  73.3859992 135.7814990  66.2419997  72.3319992 135.4744990  66.4119997
  73.8369992 134.8104990  65.9449997  73.9309992 136.3794990  67.5579997
  74.8889992 136.9414990  67.5319997  73.1969992 137.1984990  67.7129997
  73.8029992 135.4844990  68.8499997  73.8399992 136.0094990  69.8279997
  72.8829992 134.8684990  68.7549997  74.9759992 134.5524990  69.0589997
  75.0649992 133.8584990  68.1959997  75.8349992 135.2584990  69.0499997
  74.8069992 133.8634990  70.4029997  74.3679992 134.6084990  71.1009997
  73.9859992 133.1274990  70.2629997  76.0579992 133.1114990  70.8769997
  76.8829992 132.8114990  70.0529997  76.1259992 132.8924990  72.2009997
  77.2799992 132.2324990  72.7529997  77.0319992 131.2764990  73.2619997
  78.0859992 132.0064990  72.0219997  78.0039992 133.1704990  73.8379997
  78.9949992 132.6824990  73.9519997  77.1819992 133.0394990  75.1999997
  77.0589992 131.9444990  75.3369997  77.7709992 133.4824990  76.0309997
  75.9629992 133.7204990  75.0519997  74.7989992 133.7924990  76.1079997
  73.9589992 135.1294990  75.7189997  74.3099992 136.4234990  76.1359997
  73.8869992 136.6084990  77.1459997  75.4009992 136.4304990  76.3449997
  73.9099992 137.4134990  75.1079997  72.8469992 137.5614990  75.2269997
  74.3949992 138.3474990  75.3509997  74.0459992 137.0664990  73.6619997
  75.4139992 136.5264990  73.4009997  76.0859992 137.2674990  73.8059997
  75.5119992 135.5994990  73.9459997  75.5969992 136.2484990  72.3729997
  73.0749992 135.9884990  73.1649997  73.0159992 135.1294990  73.8169997
  72.1299992 136.4984990  73.2759997  73.3259992 135.7154990  72.1499997
  73.9619992 138.2284990  72.7239997  74.1989992 137.8884990  71.7259997
  74.6209992 139.0034990  73.0869997  72.9759992 138.6674990  72.7059997
  73.8689992 132.6654990  75.8799997  75.2699992 133.8574990  77.5179997
  78.0189992 134.5454990  73.4889997  78.9669992 134.7744990  72.5479997
  79.7759992 133.9774990  72.1309997  78.7749992 136.2534990  72.2089997
  79.7969992 136.6484990  72.3939997  77.9959992 136.8004990  72.7819997
  78.3639992 136.2954990  70.7509997  77.6309992 135.4904990  70.5269997
  79.2459992 136.0914990  70.1069997  77.8329992 137.7404990  70.3019997
  78.6939992 138.4344990  70.4109997  76.9569992 137.9934990  70.9369997
  77.2119992 138.0674990  68.9379997  77.1869992 139.1684990  68.7899997
  76.1759992 137.6724990  68.8619997  77.9889992 137.5184990  67.7549997
  78.0839992 136.4204990  67.6149997  79.0369992 137.8824990  67.8229997
  77.4989992 138.3554990  66.5129997  78.1669992 139.2344990  66.3949997
  76.4449992 138.6204990  66.7429997  77.7259992 137.6924990  65.1319997
  78.7959992 137.8154990  64.8619997  77.0219992 138.1474990  64.4019997
  77.3539992 136.2294990  65.0289997  76.4279992 135.9504990  65.5529997
  77.8859992 135.2684990  64.2789997  77.4669992 134.2514990  64.2589997
  79.0359992 135.3874990  63.2869997  80.0329992 135.2124990  63.7449997
  79.0189992 136.3704990  62.7689997  78.8629992 134.4054990  62.0769997
  78.7919992 133.3614990  62.4499997  79.8159992 134.5264990  61.5179997
  77.7489992 134.8184990  61.1849997  78.1209992 135.8144990  60.8619997
  76.7679992 134.9144990  61.6979997  77.5459992 134.0794990  59.8729997
  78.3779992 134.2844990  59.1649997  76.7249992 134.6484990  59.3869997
  77.1089992 132.5704990  59.9669997  76.1129992 132.4684990  60.4489997
  77.8209992 131.9874990  60.5889997  77.0039992 131.8294990  58.6439997
  77.9289992 132.0294990  58.0609997  76.2029992 132.1814990  57.9579997
  76.9789992 130.3044990  58.8819997  76.0969992 130.0604990  59.5119997
  77.7379992 130.0294990  59.6459997  77.2279992 129.4294990  57.6489997
  76.7169992 128.4624990  57.8439997  78.3219992 129.2994990  57.5049997
  76.7949992 129.9274990  56.7559997  32.6649992   6.8504990  56.5419997
  33.6069992   6.5304990  56.0469997  32.6949992   7.6874990  57.2719997
  31.8679992   7.1954990  55.8489997  32.0749992   5.6324990  57.2669997
  31.3419992   6.0314990  57.9999997  31.4749992   5.0214990  56.5599997
  32.9549992   4.7544990  58.1449997  32.5439992   3.8054990  58.5509997
  33.7629992   4.3594990  57.4929997  33.6859992   5.3674990  59.3479997
  34.2309992   6.1874990  58.8339997  32.9719992   5.9084990  60.0049997
  34.7059992   4.5004990  60.0409997  34.1349992   3.6734990  60.5139997
  35.4769992   4.0624990  59.3719997  35.4749992   5.4334990  61.0369997
  34.8049992   6.0164990  61.7059997  35.9799992   4.7294990  61.7319997
  36.3489992   6.4374990  60.3639997  36.8179992   5.9364990  59.4899997
  35.7709992   7.2904990  59.9469997  37.4759992   6.9064990  61.2719997
  37.7189992   6.1294990  62.0289997  38.3779992   7.1374990  60.6669997
  36.8889992   8.1234990  62.0459997  36.4789992   8.8604990  61.3229997
  36.0679992   7.8344990  62.7359997  37.9849992   8.8784990  62.8249997
  38.9789992   8.7404990  62.3479997  37.6859992   9.9464990  62.7719997
  38.1349992   8.4594990  64.3099997  37.7759992   7.4354990  64.5469997
  39.2239992   8.4444990  64.5319997  37.2689992   9.3394990  65.3329997
  37.2509992  10.4014990  65.0059997  36.2089992   9.0134990  65.4029997
  37.8049992   9.3714990  66.7279997  38.0669992   8.3334990  67.0259997
  38.7909992   9.8824990  66.7639997  36.8359992   9.9204990  67.6909997
  36.8079992  11.0174990  67.5119997  35.8499992   9.4284990  67.5499997
  37.3659992   9.7094990  69.1129997  37.3349992   8.5994990  69.1019997
  38.4019992  10.1104990  69.1469997  36.3859992  10.3764990  70.1019997
  36.7139992  11.3374990  70.8219997  35.2609992   9.6254990  70.2529997
  34.3789992   9.9594990  71.3159997  34.6069992  10.9114990  71.8409997
  33.3669992   9.9884990  70.8599997  34.1059992   8.7774990  72.2419997
  33.1079992   8.8734990  72.7199997  35.1179992   8.6854990  73.4489997
  36.1809992   8.8244990  73.1609997  34.8599992   9.5504990  74.0969997
  34.7109992   7.5394990  74.1499997  35.7299992   6.5664990  74.8639997
  34.7829992   5.3284990  75.1729997  34.0149992   4.7014990  74.1449997
  34.5249992   4.7524990  73.1589997  33.9149992   3.6124990  74.3369997
  32.5729992   5.2314990  74.0429997  32.5279992   6.2874990  73.8229997
  32.2109992   4.5764990  73.2639997  31.7129992   5.0064990  75.2379997
  32.1959992   5.6684990  76.5089997  31.4929992   5.3784990  77.2769997
  33.2509992   5.4654990  76.6129997  32.0589992   6.7334990  76.3969997
  30.2729992   5.5314990  74.8459997  29.7089992   5.5864990  75.7659997
  30.4339992   6.5244990  74.4549997  29.8399992   4.8104990  74.1679997
  31.5599992   3.5234990  75.5209997  30.8029992   3.4854990  76.2889997
  32.4999992   3.1184990  75.8659997  31.1519992   3.0604990  74.6349997
  36.7389992   6.1794990  73.8829997  36.2879992   7.1324990  76.0999997
  34.2219992   7.5444990  71.4699997  32.9929992   6.9924990  71.1579997
  31.8889992   7.4604990  71.4649997  33.2359992   5.8754990  70.1269997
  32.3059992   5.5964990  69.5859997  33.6769992   4.9914990  70.6359997
  34.2579992   6.3534990  68.9669997  35.2879992   6.4014990  69.3789997
  33.9469992   7.3274990  68.5319997  34.2549992   5.3054990  67.8749997
  33.2219992   5.3744990  67.4729997  34.4759992   4.3894990  68.4639997
  35.3359992   5.6104990  66.8729997  36.1859992   6.0684990  67.4229997
  34.9909992   6.4004990  66.1729997  35.8549992   4.4714990  65.9929997
  36.5629992   3.8824990  66.6149997  36.4289992   4.8194990  65.1079997
  34.7079992   3.5094990  65.4379997  34.2299992   3.0534990  66.3319997
  35.1929992   2.6254990  64.9709997  33.7469992   4.1174990  64.3909997
  34.2829992   4.5564990  63.5229997  33.2269992   4.9974990  64.8259997
  32.7679992   3.0914990  63.8169997  33.2709992   2.2134990  63.3859997
  31.4309992   3.1394990  63.9119997  30.7279992   2.4754990  63.3879997
  30.6619992   4.2484990  64.6239997  31.2079992   4.8184990  65.4059997
  29.9059992   3.7574990  65.2739997  29.8319992   5.2254990  63.7029997
  29.1549992   5.7524990  64.4089997  29.1369992   4.6054990  63.0969997
  30.7009992   6.1584990  62.7359997  30.0149992   6.6144990  61.9889997
  31.5129992   5.5074990  62.3489997  31.3599992   7.2314990  63.5699997
  31.5999992   6.8474990  64.5839997  30.6659992   8.0964990  63.6279997
  32.5689992   7.8364990  62.9399997  33.2619992   7.0094990  62.6739997
  33.2059992   8.4334990  63.6279997  32.2129992   8.8234990  61.8009997
  31.5459992   9.5534990  62.3049997  31.7539992   8.2484990  60.9689997
  33.4919992   9.4734990  61.0869997  34.3279992   8.8144990  61.4049997
  33.5959992  10.5504990  61.3399997  33.3789992   9.3284990  59.5269997
  33.2669992   8.2954990  59.1319997  34.3059992   9.7904990  59.1249997
  32.4739992   9.8624990  59.1659997 108.0189992 118.0454990  57.2339997
 108.5679992 117.8574990  58.1819997 108.7779992 118.2274990  56.4429997
 107.3649992 117.1584990  57.0939997 107.1009992 119.2584990  57.3799997
 107.7539992 120.1324990  57.5929997 106.4579992 119.4144990  56.4869997
 105.9829992 119.0884990  58.4339997 105.3439992 118.2094990  58.2059997
 106.5049992 118.8564990  59.3869997 105.0299992 120.1994990  58.4039997
 104.6439992 120.4484990  57.3929997 104.1339992 119.9304990  59.0039997
 105.6149992 121.4384990  59.0409997 106.1429992 121.9934990  58.2369997
 104.7299992 122.0124990  59.3879997 106.4039992 121.3074990  60.3439997
 107.2649992 120.6284990  60.1679997 106.8789992 122.3094990  60.4029997
 105.6109992 121.0014990  61.6499997 105.1139992 121.9034990  62.0649997
 104.7759992 120.3024990  61.4309997 106.6389992 120.3824990  62.6519997
 105.9909992 120.1394990  63.5199997 107.1009992 119.4884990  62.1809997
 107.9149992 121.1484990  63.0119997 108.5919992 121.2694990  62.1389997
 107.6539992 122.2184990  63.1609997 108.6909992 120.6374990  64.2709997
 109.1819992 119.6474990  64.1639997 109.4119992 121.4824990  64.3029997
 107.9539992 120.6124990  65.5819997 107.2909992 121.5034990  65.5919997
 107.3909992 119.6574990  65.6499997 108.8589992 120.6774990  66.8159997
 109.6979992 119.9494990  66.8109997 109.2109992 121.7274990  66.9009997
 108.1829992 120.4414990  68.1309997 107.6939992 119.4444990  68.1029997
 109.0189992 120.4594990  68.8629997 107.1379992 121.4274990  68.4569997
 107.5619992 122.4534990  68.4049997 106.2909992 121.4614990  67.7399997
 106.5339992 121.2054990  69.8579997 105.9719992 120.2494990  69.7889997
 107.2059992 121.0204990  70.7229997 105.4149992 122.2044990  70.1599997
 105.4449992 123.2854990  69.5989997 104.6289992 121.8424990  71.1439997
 103.6639992 122.8854990  71.4909997 104.1249992 123.7124990  72.0709997
 103.2799992 123.3324990  70.5489997 102.4329992 122.3644990  72.3509997
 101.7689992 123.2254990  72.5819997 103.0229992 121.9474990  73.7609997
 103.9189992 122.5444990  74.0339997 102.3379992 122.2664990  74.5749997
 103.2979992 120.5874990  73.9119997 103.9859992 119.8994990  75.1339997
 105.5379992 119.8534990  74.6669997 106.5649992 119.8294990  75.6189997
 106.3709992 120.4104990  76.5459997 106.7839992 118.7944990  75.9589997
 107.8019992 120.6634990  75.0769997 108.6539992 120.6604990  75.7399997
 108.1519992 120.1504990  74.1929997 107.5489992 122.1614990  74.7019997
 106.5829992 122.2404990  73.5799997 105.7739992 122.8234990  73.9929997
 106.9999992 122.8984990  72.8319997 106.3659992 121.2084990  73.3449997
 107.0789992 122.9064990  75.8619997 107.8459992 122.9774990  76.6179997
 106.8809992 123.9284990  75.5729997 106.1299992 122.5344990  76.2189997
 108.7929992 122.8604990  74.3359997 109.6689992 122.4914990  74.8499997
 108.7489992 123.9014990  74.6199997 109.0749992 122.8854990  73.2929997
 103.8669992 120.6714990  76.3969997 103.5449992 118.5214990  75.1859997
 101.7739992 121.2754990  71.7899997 101.1859992 121.5524990  70.6779997
 100.8999992 122.6834990  70.3029997 101.0499992 120.3264990  69.9149997
 100.1359992 120.5034990  69.3079997 100.7219992 119.4864990  70.5629997
 102.2279992 120.0574990  69.0839997 102.3139992 118.9514990  69.0399997
 103.1739992 120.4334990  69.5289997 102.0769992 120.6604990  67.6139997
 101.8389992 121.7454990  67.6199997 101.2279992 120.1224990  67.1409997
 103.4129992 120.4364990  66.8789997 103.8149992 119.4184990  67.0699997
 104.2219992 120.9534990  67.4389997 103.4889992 120.8164990  65.4289997
 102.8889992 120.1054990  64.8209997 104.5099992 120.7354990  64.9999997
 102.8869992 122.2354990  65.1699997 101.7989992 122.2364990  65.3959997
 102.8879992 122.3024990  64.0609997 103.7739992 123.4074990  65.6959997
 104.1909992 123.0274990  66.6529997 103.1569992 124.2534990  66.0649997
 104.9369992 123.8654990  64.7829997 105.8989992 123.3694990  64.9799997
 104.9039992 124.7934990  63.7709997 105.8599992 125.0244990  63.2799997
 103.5859992 125.4654990  63.2929997 103.3039992 126.4224990  63.7799997
 102.6549992 124.9084990  63.5319997 103.5439992 125.5094990  61.7829997
 103.5529992 124.4914990  61.3389997 104.3959992 126.1154990  61.4069997
 102.2449992 126.0934990  61.0899997 102.4639992 127.1584990  60.8629997
 101.3919992 126.1754990  61.7979997 101.8069992 125.1654990  59.9539997
 100.7999992 125.4724990  59.5989997 101.6669992 124.1734990  60.4329997
 102.7379992 125.1754990  58.7619997 103.7619992 124.8844990  59.0819997
 102.7639992 126.2284990  58.4099997 102.4029992 124.0744990  57.7429997
 101.5409992 124.5164990  57.1979997 102.0039992 123.2454990  58.3649997
 103.5619992 123.6124990  56.8199997 104.3259992 123.1534990  57.4839997
 103.9629992 124.5034990  56.2909997 103.1799992 122.5744990  55.8189997
 104.0769992 122.2684990  55.2389997 102.4019992 122.9494990  55.1209997
 102.8359992 121.6044990  56.2369997  18.9639992  25.7504990  55.5289997
  18.0049992  26.0134990  56.0229997  18.8649992  24.8144990  54.9389997
  19.2069992  26.6454990  54.9159997  20.0219992  25.4754990  56.6589997
  20.7299992  24.7554990  56.1959997  20.3879992  26.5034990  56.8679997
  19.4859992  24.7134990  57.8449997  18.6949992  25.3624990  58.2759997
  18.9589992  23.7754990  57.5689997  20.3839992  24.3064990  59.0649997
  21.3009992  23.8194990  58.6689997  20.5719992  25.2354990  59.6429997
  19.5669992  23.3054990  59.9349997  18.5929992  23.8144990  60.0999997
  19.4989992  22.3314990  59.4049997  20.0639992  23.1704990  61.3859997
  20.8249992  22.3644990  61.3039997  20.5849992  24.1114990  61.6619997
  18.9689992  22.7234990  62.4079997  18.3059992  21.9534990  61.9559997
  19.6069992  22.1804990  63.1369997  18.1529992  23.7404990  63.2209997
  17.4739992  24.3404990  62.5779997  17.4299992  23.0554990  63.7139997
  19.0289992  24.5244990  64.1809997  19.8709992  23.9504990  64.6249997
  19.4139992  25.2884990  63.4719997  18.1899992  25.1664990  65.3149997
  17.2369992  25.5334990  64.8769997  18.0249992  24.4484990  66.1469997
  18.8539992  26.3444990  65.9259997  18.7329992  27.1304990  65.1499997
  18.2439992  26.5834990  66.8239997  20.3339992  26.1104990  66.3349997
  20.5169992  25.1584990  66.8779997  20.9899992  26.0474990  65.4409997
  20.9039992  27.3204990  67.1669997  22.0109992  27.3044990  67.0749997
  20.5519992  28.2564990  66.6839997  20.4419992  27.2844990  68.6319997
  20.4749992  28.2204990  69.2299997  19.3999992  26.9084990  68.5459997
  21.2789992  26.2034990  69.4879997  21.0879992  25.2264990  68.9949997
  22.3649992  26.4184990  69.5789997  20.7409992  26.1104990  70.9109997
  21.4369992  26.0874990  71.9379997  19.4419992  25.9834990  70.8539997
  18.7259992  25.9714990  72.1219997  18.9399992  24.9804990  72.5749997
  19.1429992  26.6984990  72.8509997  17.2019992  26.0484990  71.8739997
  16.9549992  27.0004990  71.3579997  16.4629992  26.0914990  73.2089997
  16.8069992  27.0544990  73.6419997  15.3549992  26.1604990  73.1589997
  16.9489992  25.0324990  74.0039997  16.2079992  24.3154990  75.1819997
  17.0349992  22.9194990  75.1459997  17.5509992  22.3354990  73.9979997
  17.3979992  21.2564990  74.2129997  17.0289992  22.6694990  73.0749997
  19.0809992  22.4814990  73.8939997  19.5129992  22.3824990  72.9089997
  19.2519992  23.5364990  74.0499997  20.1079992  21.9614990  74.9359997
  20.1529992  20.3794990  74.8659997  20.7739992  20.1564990  74.0109997
  20.5329992  20.1194990  75.8429997  19.1449992  20.0254990  74.7109997
  21.4419992  22.5024990  74.6799997  21.6899992  22.3644990  73.6379997
  21.4219992  23.5064990  75.0769997  22.1949992  21.9254990  75.1969997
  19.6659992  22.3344990  76.3489997  19.7229992  23.4024990  76.4919997
  20.2489992  21.9134990  77.1549997  18.6779992  21.9004990  76.4019997
  16.5919992  25.0274990  76.4359997  14.7709992  23.9744990  74.9799997
  16.6429992  24.8874990  71.2249997  16.6929992  24.9414990  69.8649997
  17.2799992  25.7824990  69.2219997  16.0599992  23.6714990  69.3529997
  15.4139992  23.3034990  70.1789997  16.8839992  22.9334990  69.2529997
  15.1799992  23.9334990  68.0649997  15.6729992  24.5344990  67.2709997
  14.2169992  24.3834990  68.3879997  14.9779992  22.6044990  67.3739997
  14.6979992  21.9374990  68.2169997  15.9339992  22.2524990  66.9309997
  13.9999992  22.5764990  66.2219997  12.9879992  22.7924990  66.6259997
  13.9609992  21.5544990  65.7869997  14.3219992  23.5894990  65.0759997
  15.1729992  23.2424990  64.4519997  14.5229992  24.6124990  65.4599997
  13.1079992  23.6714990  64.1669997  12.2299992  24.1614990  64.6399997
  12.8519992  22.6464990  63.8209997  13.4659992  24.5134990  62.8949997
  13.5889992  25.5934990  63.1289997  12.5049992  24.4164990  62.3469997
  14.5369992  24.0084990  62.0159997  15.3579992  23.4264990  62.4609997
  14.5789992  24.0294990  60.6799997  15.4939992  23.5704990  60.2779997
  13.5749992  24.5504990  59.7819997  14.0159992  25.4614990  59.3239997
  12.6279992  24.8944990  60.2499997  13.1389992  23.8204990  58.5019997
  13.9029992  23.9554990  57.7069997  12.1939992  24.3234990  58.2039997
  12.7309992  22.3764990  58.6269997  12.2089992  22.0434990  57.7049997
  12.1409992  22.3694990  59.5689997  13.8669992  21.3334990  58.8759997
  13.4729992  20.3154990  58.6659997  14.1609992  21.4264990  59.9429997
  15.1369992  21.5654990  57.8729997  15.8469992  20.7454990  58.1149997
  15.6529992  22.4754990  58.2469997  14.8119992  21.4994990  56.3479997
  13.7899992  21.8904990  56.1539997  14.9399992  20.4894990  55.9029997
  15.8439992  22.3294990  55.5479997  15.5689992  22.2034990  54.4789997
  16.9059992  22.0454990  55.7089997  15.8409992  23.8864990  55.7429997
  14.8009992  24.2314990  55.5559997  16.5309992  24.4174990  55.0539997
  16.0199992  24.0874990  56.8209997  18.2919992  95.3394990  55.6199997
  18.4679992  96.4354990  55.6009997  18.9179992  94.8144990  54.8669997
  18.6459992  94.8104990  56.5309997  16.7769992  94.9704990  55.3969997
  16.2489992  95.9184990  55.1569997  16.6459992  94.3184990  54.5069997
  16.1749992  94.1504990  56.5419997  16.8439992  93.2834990  56.7279997
  16.3819992  94.7994990  57.4199997  14.6819992  93.7994990  56.4089997
  14.2499992  94.5764990  55.7419997  14.6599992  92.8394990  55.8499997
  13.9079992  93.5104990  57.7769997  14.2339992  94.4034990  58.3509997
  12.8409992  93.4314990  57.4759997  14.5619992  92.2734990  58.5539997
  14.0179992  91.3064990  58.4929997  15.4909992  92.1584990  57.9549997
  14.8629992  92.3964990  60.0939997  15.4819992  93.3024990  60.2709997
  13.8919992  92.6514990  60.5699997  15.5629992  91.2144990  60.6509997
  14.9009992  90.3224990  60.6269997  16.4559992  90.9474990  60.0459997
  15.9179992  91.4544990  62.1149997  16.2729992  90.5064990  62.5729997
  16.7839992  92.1454990  62.1899997  14.7389992  91.9774990  63.0619997
  14.5709992  93.0104990  62.6879997  13.8779992  91.3314990  62.7889997
  15.0169992  91.8854990  64.6009997  15.3599992  90.8604990  64.8589997
  15.7899992  92.6704990  64.7399997  13.8599992  92.2004990  65.5379997
  13.5349992  93.1864990  65.1449997  13.0749992  91.4504990  65.3009997
  14.1859992  92.2804990  67.0339997  14.8999992  93.1114990  67.2189997
  13.2939992  92.6214990  67.6009997  14.5899992  90.8684990  67.5929997
  13.8039992  90.1514990  67.2749997  15.6039992  90.7614990  67.1509997
  14.5939992  90.9484990  69.1229997  14.6489992  92.0124990  69.4409997
  13.6269992  90.4604990  69.3699997  15.6229992  89.9994990  69.6419997
  15.7489992  88.8664990  69.3229997  16.3129992  90.7484990  70.5599997
  17.4699992  90.0164990  71.0459997  17.0569992  89.0434990  71.3889997
  18.0819992  89.7974990  70.1449997  18.2509992  90.7484990  72.1319997
  19.0869992  90.1494990  72.5519997  17.3659992  91.2524990  73.2779997
  16.8649992  90.4204990  73.8179997  18.1159992  91.7204990  73.9509997
  16.3539992  92.1154990  72.7309997  15.0039992  92.4384990  73.6129997
  15.6979992  93.2834990  74.7939997  16.3409992  94.5474990  74.5269997
  16.4549992  94.7634990  73.4429997  15.8719992  95.4314990  75.0099997
  17.8629992  94.4854990  74.8849997  18.3419992  93.8204990  74.1809997
  18.3269992  95.4514990  74.7549997  18.1489992  94.2444990  76.3799997
  17.2499992  95.1014990  77.2499997  16.2409992  95.0664990  76.8659997
  17.3649992  94.8094990  78.2839997  17.7509992  96.0584990  77.2409997
  17.8099992  92.7654990  76.7149997  16.8839992  92.5134990  76.2209997
  18.6199992  92.1204990  76.4099997  17.7819992  92.6824990  77.7919997
  19.6219992  94.5094990  76.5899997  19.7149992  95.5744990  76.7419997
  20.2439992  94.2174990  75.7569997  19.9949992  93.9574990  77.4399997
  14.0939992  93.2764990  72.8869997  14.4329992  91.1844990  74.0999997
  18.9009992  91.9674990  71.4979997  19.7769992  92.6644990  72.2489997
  20.2679992  92.2844990  73.3129997  20.1709992  93.9754990  71.5089997
  20.5109992  93.8184990  70.4629997  20.9919992  94.5084990  72.0359997
  18.9319992  94.9404990  71.5019997  19.1589992  95.6534990  72.3229997
  17.9799992  94.4044990  71.7039997  18.8099992  95.7284990  70.2039997
  19.8129992  96.0754990  69.8759997  18.1409992  96.5964990  70.3849997
  18.2169992  94.8264990  69.0499997  17.3509992  94.2024990  69.3569997
  18.9199992  94.0124990  68.7709997  17.7809992  95.6024990  67.8039997
  17.1549992  96.5084990  67.9549997  17.1519992  94.8944990  67.2229997
  19.0869992  95.9804990  66.9469997  19.8799992  95.3494990  67.4029997
  19.1629992  97.0834990  67.0609997  19.0259992  95.8434990  65.3779997
  19.1689992  94.7634990  65.1649997  19.9509992  96.3394990  65.0149997
  18.0049992  96.6314990  64.7289997  17.6439992  97.4274990  65.3959997
  17.4529992  96.4304990  63.6099997  16.8819992  97.2304990  63.1169997
  17.7829992  95.2264990  62.7789997  16.8729992  94.9314990  62.2119997
  18.0539992  94.3284990  63.3739997  19.0559992  95.2804990  61.8799997
  19.8249992  95.7964990  62.4949997  18.7339992  95.8644990  60.9909997
  19.6349992  93.9064990  61.2889997  19.7969992  93.2244990  62.1519997
  20.6319992  94.2324990  60.9239997  18.8269992  93.1774990  60.1829997
  18.8419992  93.8824990  59.3249997  17.7539992  93.1674990  60.4689997
  19.3979992  91.8474990  59.6959997  19.2129992  91.0584990  60.4559997
  20.4889992  91.9474990  59.5089997  18.7599992  91.4614990  58.3299997
  17.7779992  91.9744990  58.2439997  18.5329992  90.4094990  58.0509997
  19.6399992  91.9984990  57.1909997  20.7009992  91.6734990  57.2219997
  19.7319992  93.0774990  57.4409997  19.0329992  91.7514990  55.7059997
  18.0979992  92.2584990  55.3859997  18.9669992  90.6614990  55.5039997
  19.8109992  92.2754990  55.1099997 116.5159992 107.1734990  55.8219997
 116.5669992 107.8564990  54.9479997 115.5119992 106.7374990  55.6289997
 117.2799992 106.3684990  55.7719997 116.6989992 108.0054990  57.0819997
 115.9149992 108.7914990  57.1339997 116.6459992 107.3634990  57.9869997
 117.9799992 108.7894990  57.0619997 117.9259992 109.5384990  56.2439997
 118.1299992 109.3724990  57.9959997 119.2439992 108.0094990  56.8349997
 119.2479992 107.8244990  55.7389997 120.1659992 108.5684990  57.1049997
 119.3779992 106.7294990  57.5989997 118.6079992 105.9944990  57.2799997
 120.2969992 106.1424990  57.3879997 119.3159992 106.9734990  59.1659997
 120.2509992 107.3064990  59.6659997 118.5669992 107.7854990  59.2849997
 118.6079992 105.7814990  59.9899997 117.9799992 105.2294990  59.2569997
 119.5039992 105.3284990  60.4649997 117.6439992 106.3094990  61.0359997
 116.6899992 106.6974990  60.6179997 117.4229992 105.3914990  61.6219997
 118.2599992 107.3374990  61.9499997 119.3219992 107.0124990  61.9889997
 118.2659992 108.2744990  61.3529997 117.6809992 107.4714990  63.2969997
 116.6079992 107.7524990  63.3539997 117.6359992 106.4154990  63.6389997
 118.6149992 108.3234990  64.2029997 119.6639992 108.0034990  64.0199997
 118.4849992 109.3884990  63.9169997 118.3119992 108.0254990  65.6949997
 117.2929992 108.2684990  66.0639997 118.3219992 106.9144990  65.7179997
 119.4609992 108.5994990  66.6489997 120.4119992 108.1064990  66.3569997
 119.6109992 109.6904990  66.5039997 119.2329992 108.3154990  68.1319997
 120.0029992 108.8654990  68.7139997 118.3159992 108.8634990  68.4359997
 119.2909992 106.8224990  68.4919997 118.6139992 106.2924990  67.7869997
 120.3119992 106.4154990  68.3299997 118.7739992 106.5024990  69.9189997
 118.6479992 105.3714990  70.3449997 118.6019992 107.6044990  70.5199997
 118.3149992 107.5024990  71.9429997 118.3079992 106.4864990  72.3929997
 119.0819992 108.0504990  72.5309997 117.0429992 108.2414990  72.2789997
 117.0869992 108.3844990  73.3799997 115.7429992 107.4104990  72.0109997
 115.7449992 106.9424990  71.0029997 115.7639992 106.4604990  72.5859997
 114.5679992 108.1634990  72.0039997 113.6589992 108.1874990  73.3369997
 114.8109992 108.4704990  74.4419997 115.1649992 109.8204990  74.6949997
 115.1939992 110.4824990  73.8029997 114.3689992 110.2844990  75.3169997
 116.3999992 109.9474990  75.5139997 117.3069992 110.0844990  74.9439997
 116.2209992 110.8934990  76.0029997 116.7039992 108.8894990  76.5869997
 116.9989992 107.5724990  75.9989997 117.8599992 107.6964990  75.3579997
 117.3439992 106.8814990  76.7539997 116.2129992 107.2774990  75.3189997
 117.8799992 109.2594990  77.4849997 118.1839992 108.4534990  78.1359997
 118.7869992 109.4104990  76.9169997 117.6539992 110.0654990  78.1669997
 115.4869992 108.8054990  77.4769997 115.6619992 108.2404990  78.3799997
 114.6369992 108.3454990  76.9939997 115.1529992 109.7744990  77.8189997
 112.6899992 109.3104990  73.3389997 113.0589992 106.8464990  73.5929997
 116.9769992 109.5064990  71.5569997 117.4829992 110.6494990  72.0049997
 118.3719992 110.7284990  72.8219997 116.8469992 111.8694990  71.3289997
 116.7069992 112.6984990  72.0559997 115.8389992 111.5614990  70.9789997
 117.7019992 112.1924990  70.0999997 117.6839992 111.3784990  69.3449997
 118.7839992 112.3354990  70.3109997 117.3059992 113.4874990  69.3859997
 117.9279992 113.6324990  68.4769997 117.4179992 114.4074990  69.9989997
 115.8939992 113.5494990  68.6979997 115.7939992 114.4474990  68.0509997
 115.0849992 113.5084990  69.4589997 115.7239992 112.2914990  67.7379997
 114.6829992 112.2904990  67.3509997 115.8539992 111.3534990  68.3199997
 116.6729992 112.0674990  66.5439997 117.4849992 111.3424990  66.7669997
 117.0879992 113.0904990  66.4139997 116.0019992 111.7504990  65.2089997
 115.5899992 110.7274990  65.3469997 116.7419992 111.7574990  64.3799997
 114.9199992 112.7304990  64.8429997 115.1159992 113.8034990  64.7049997
 113.5899992 112.3704990  64.7459997 112.8449992 113.1684990  64.6159997
 113.0079992 110.9864990  64.9759997 112.1819992 111.1494990  65.7009997
 113.6189992 110.2454990  65.5349997 112.6179992 110.3074990  63.6779997
 112.0789992 110.9394990  62.9419997 111.8719992 109.4974990  63.8299997
 113.7649992 109.5874990  63.0309997 114.1119992 108.6994990  63.6009997
 114.6149992 110.2794990  62.8519997 113.3469992 109.0014990  61.5959997
 112.4959992 108.2974990  61.7119997 114.2289992 108.3954990  61.2999997
 112.8949992 109.9494990  60.5139997 111.8619992 110.2324990  60.8109997
 112.8219992 109.4144990  59.5439997 113.8259992 111.1684990  60.4179997
 114.8359992 110.7094990  60.3619997 113.7389992 111.7524990  61.3589997
 113.3779992 112.1144990  59.2879997 113.9969992 113.0374990  59.2829997
 112.3489992 112.5324990  59.2679997 113.6339992 111.5644990  57.8869997
 114.6369992 111.0884990  57.8389997 113.4889992 112.3724990  57.1389997
 112.9199992 110.7434990  57.6629997 134.7519992  74.2124990  58.1639997
 134.1159992  73.7474990  58.9479997 134.3679992  75.2474990  58.0389997
 135.8049992  74.2564990  58.5149997 134.6649992  73.3384990  56.9199997
 133.6359992  73.2314990  56.5139997 135.2879992  73.8524990  56.1579997
 135.0759992  71.8834990  57.0629997 134.4599992  71.3414990  57.8129997
 134.8439992  71.3424990  56.1209997 136.5559992  71.5364990  57.4339997
 137.2719992  72.0724990  56.7749997 136.5779992  72.0194990  58.4339997
 136.9649992  70.0184990  57.5159997 137.1239992  69.5864990  56.5049997
 137.9409992  70.0134990  58.0479997 136.0899992  69.1184990  58.4569997
 135.0349992  69.0654990  58.1119997 136.3879992  68.0524990  58.3729997
 136.0459992  69.5334990  59.9379997 137.0749992  69.5704990  60.3549997
 135.6319992  70.5534990  60.0909997 135.1129992  68.5984990  60.7219997
 134.2379992  68.3594990  60.0809997 135.7269992  67.6934990  60.9169997
 134.4609992  69.2044990  61.9179997 135.3399992  69.6214990  62.4549997
 133.7799992  70.0544990  61.7019997 133.8019992  68.1674990  62.8209997
 132.7639992  68.1634990  62.4249997 134.4449992  67.2764990  62.6529997
 133.8219992  68.4894990  64.3129997 134.7439992  69.0824990  64.4939997
 132.8859992  69.0494990  64.5229997 133.6999992  67.2824990  65.2199997
 132.8299992  66.6834990  64.8759997 134.5169992  66.5914990  64.9199997
 133.5369992  67.4374990  66.7299997 133.5599992  66.4224990  67.1829997
 134.3179992  68.0144990  67.2699997 132.2469992  68.1584990  67.0749997
 132.2029992  69.2604990  66.9379997 131.4639992  67.6914990  66.4409997
 131.6699992  67.9654990  68.5009997 130.6719992  68.4364990  68.3669997
 131.7539992  66.8844990  68.7429997 132.4039992  68.6534990  69.6329997
 132.2209992  69.8294990  69.9599997 133.1039992  67.8004990  70.3839997
 133.9129992  68.3884990  71.4679997 133.3019992  69.1244990  72.0309997
 134.1279992  67.6054990  72.2269997 135.2459992  68.9794990  71.0059997
 135.6279992  68.3644990  70.1629997 136.2529992  69.0964990  72.1029997
 136.1249992  68.2154990  72.7679997 137.3039992  69.0644990  71.7439997
 135.9949992  70.3574990  72.7899997 135.3589992  70.6344990  74.2109997
 133.7909992  70.6034990  73.8759997 133.1529992  71.8464990  73.8629997
 133.7189992  72.6914990  73.4159997 132.2849992  71.7234990  73.1799997
 132.5509992  72.2544990  75.2389997 133.3709992  72.4804990  75.9039997
 132.0319992  73.1984990  75.1609997 131.6859992  71.1664990  75.9899997
 132.4549992  69.9254990  76.4959997 132.8489992  69.4994990  75.5849997
 133.2779992  70.1594990  77.1539997 131.7629992  69.3194990  77.0629997
 131.0129992  71.7874990  77.1999997 130.0949992  72.2894990  76.9309997
 130.7789992  71.0134990  77.9159997 131.6569992  72.5184990  77.6659997
 130.6709992  70.5964990  75.0529997 129.8899992  70.0284990  75.5369997
 131.1699992  70.0454990  74.2699997 130.1709992  71.4804990  74.6849997
 135.7779992  69.5404990  75.0909997 135.8519992  71.9534990  74.6629997
 134.8419992  70.2734990  70.4609997 135.6079992  70.9524990  69.6449997
 136.7129992  70.6314990  69.2699997 134.9499992  72.3684990  69.3949997
 135.2639992  73.1014990  70.1689997 133.8659992  72.2454990  69.6009997
 135.3789992  72.8434990  67.9909997 136.1979992  72.2414990  67.5439997
 135.8129992  73.8644990  68.0539997 134.1819992  72.7854990  66.9429997
 133.4749992  73.5604990  67.3109997 133.6619992  71.8044990  66.8949997
 134.4119992  73.1544990  65.4869997 135.1679992  72.5914990  64.8999997
 134.6439992  74.2414990  65.5139997 133.1119992  73.2884990  64.6509997
 133.3169992  73.9164990  63.7579997 132.4259992  73.8334990  65.3349997
 132.4929992  72.0314990  64.1609997 132.6099992  71.2094990  64.8989997
 133.1169992  71.7774990  63.2769997 130.9769992  72.3014990  63.9179997
 130.9069992  73.1234990  63.1729997 130.4879992  72.5494990  64.8839997
 130.3179992  71.0694990  63.4259997 130.3189992  70.2654990  64.1769997
 129.9129992  70.7684990  62.1649997 129.4969992  69.7584990  62.0339997
 129.9499992  71.5884990  60.9529997 129.8499992  72.6774990  61.1459997
 129.1959992  71.2564990  60.2079997 131.3069992  71.5884990  60.1439997
 132.0789992  71.6774990  60.9379997 131.4399992  72.4694990  59.4799997
 131.6159992  70.2174990  59.4639997 131.4509992  69.4284990  60.2279997
 132.6739992  70.0374990  59.1799997 130.7009992  69.9054990  58.1979997
 129.6219992  70.0074990  58.4439997 130.9719992  68.8724990  57.8919997
 130.8159992  70.7754990  56.9779997 131.8019992  70.6464990  56.4819997
 130.6749992  71.8204990  57.3279997 129.7339992  70.4674990  55.9289997
 128.7039992  70.6804990  56.2869997 130.0119992  69.4334990  55.6329997
 129.8199992  71.2664990  54.5509997 129.2159992  70.7364990  53.7839997
 130.8879992  71.1514990  54.2669997 129.2109992  72.6634990  54.5269997
 128.0999992  72.6484990  54.5349997 129.4559992  73.1814990  53.5759997
 129.4819992  73.4184990  55.2959997 132.5469992  77.5154990  55.9699997
 133.1539992  76.9794990  55.2099997 132.3479992  78.5454990  55.6019997
 131.6269992  76.8964990  56.0399997 133.2489992  77.5424990  57.3449997
 133.6509992  76.5414990  57.6079997 134.1179992  78.2314990  57.2829997
 132.3439992  77.9924990  58.6239997 132.3709992  79.1034990  58.6429997
 131.2799992  77.6754990  58.5959997 132.9039992  77.4974990  59.9849997
 132.1439992  77.8024990  60.7349997 132.9649992  76.3894990  59.9179997
 134.2269992  78.0184990  60.4669997 135.0679992  77.4444990  60.0209997
 134.2799992  79.1034990  60.2349997 134.2889992  77.7544990  62.0069997
 133.8419992  78.6154990  62.5489997 133.6899992  76.8404990  62.2069997
 135.7119992  77.4824990  62.4889997 135.5419992  77.2504990  63.5619997
 136.0849992  76.5724990  61.9719997 136.7739992  78.5764990  62.2639997
 137.6879992  78.1134990  62.6939997 136.9549992  78.6714990  61.1719997
 136.5119992  79.9744990  62.8459997 137.2199992  80.7384990  62.4579997
 135.5589992  80.3574990  62.4229997 136.6739992  79.9624990  64.3689997
 135.8189992  79.3714990  64.7599997 137.4879992  79.2494990  64.6189997
 136.7819992  81.3464990  65.0059997 136.9239992  81.1554990  66.0909997
 137.6599992  81.9594990  64.7079997 135.5529992  82.2214990  64.7849997
 135.7729992  83.2884990  65.0029997 135.5109992  82.4034990  63.6899997
 134.2059992  81.9334990  65.4109997 133.3839992  82.6194990  65.1139997
 133.7759992  80.9924990  65.0049997 134.3899992  81.7924990  66.8749997
 135.0759992  80.9284990  67.0039997 134.7769992  82.7074990  67.3739997
 133.0179992  81.4114990  67.5549997 132.1409992  82.0764990  67.4019997
 132.8189992  80.4534990  67.0299997 133.2319992  81.1304990  69.0319997
 134.0659992  80.3864990  69.4249997 132.2409992  81.5964990  69.7129997
 132.1769992  81.5094990  71.1289997 133.0989992  81.2154990  71.6749997
 131.9779992  82.5394990  71.4959997 130.9929992  80.6924990  71.5679997
 130.0909992  81.0394990  71.0189997 130.8029992  80.6594990  73.1439997
 131.7839992  80.9644990  73.5669997 130.1569992  81.5304990  73.3849997
 130.3489992  79.4394990  73.5819997 131.2519992  78.6324990  74.6019997
 132.8089992  78.9014990  74.3259997 133.7339992  78.0644990  74.9349997
 133.4689992  77.9464990  76.0069997 133.7629992  77.0604990  74.4589997
 135.2339992  78.5174990  74.9299997 135.7499992  77.8094990  75.5619997
 135.6009992  78.3354990  73.9309997 135.6559992  79.9434990  75.3109997
 135.2889992  80.2004990  76.7469997 135.6069992  81.2064990  76.9769997
 134.2239992  80.1454990  76.9129997 135.8799992  79.4864990  77.3019997
 137.1729992  80.0964990  75.1929997 137.5869992  79.3504990  75.8569997
 137.5759992  79.8854990  74.2139997 137.4539992  81.1134990  75.4249997
 135.0349992  81.0164990  74.5069997 135.5749992  81.0904990  73.5739997
 135.0929992  82.0134990  74.9179997 133.9909992  80.8664990  74.2769997
 131.0279992  79.1974990  75.9949997 131.0859992  77.2284990  74.3449997
 131.2709992  79.3404990  70.9979997 130.2529992  78.5234990  70.8479997
 129.0539992  78.8194990  70.9909997 130.6969992  77.0794990  70.5239997
 129.8179992  76.4234990  70.3419997 131.1909992  76.6984990  71.4429997
 131.7869992  77.0174990  69.4199997 132.1679992  75.9734990  69.4319997
 132.6339992  77.6884990  69.6799997 131.1489992  77.1844990  68.0509997
 130.4069992  76.3574990  68.0459997 131.8289992  77.0114990  67.1889997
 130.3919992  78.4584990  67.6829997 131.1019992  79.3124990  67.6419997
 129.4699992  78.6374990  68.2769997 129.7679992  78.1274990  66.3769997
 129.1629992  77.1944990  66.3789997 130.5949992  78.0234990  65.6419997
 128.8589992  79.2534990  65.8199997 128.1449992  79.5344990  66.6239997
 128.3089992  78.9114990  64.9169997 129.6739992  80.5114990  65.4169997
 130.4949992  80.3054990  64.6979997 130.3549992  80.8564990  66.2249997
 128.9649992  81.7184990  64.9109997 128.4809992  82.3414990  65.6769997
 128.8539992  82.1214990  63.5769997 128.2119992  82.9854990  63.3499997
 129.4649992  81.5034990  62.2949997 128.9459992  82.0584990  61.4839997
 129.1279992  80.4694990  62.0679997 130.9569992  81.4284990  62.2439997
 131.4059992  80.5204990  62.6999997 131.2599992  82.2724990  62.8999997
 131.6059992  81.6654990  60.8019997 131.3419992  80.8264990  60.1219997
 132.6989992  81.4964990  60.9029997 131.2279992  82.9994990  60.0759997
 131.6289992  83.8244990  60.7019997 130.1349992  83.1534990  59.9479997
 131.9709992  83.1954990  58.7259997 133.0509992  82.9514990  58.8159997
 131.9839992  84.2864990  58.5139997 131.2999992  82.5554990  57.4879997
 130.2399992  82.8864990  57.4999997 131.1879992  81.4644990  57.6689997
 131.8839992  82.8744990  56.0419997 132.9039992  82.4324990  56.0259997
 132.0539992  83.9714990  55.9979997 131.1399992  82.3084990  54.8089997
 131.5809992  82.5444990  53.8169997 130.1059992  82.7134990  54.7879997
 131.1279992  81.1984990  54.7549997 128.4519992  47.5324990  57.8729997
 127.6589992  47.0564990  57.2589997 129.3129992  46.8994990  57.5709997
 128.5549992  48.5914990  57.5519997 128.2439992  47.5134990  59.3549997
 127.2609992  47.9674990  59.6019997 128.2229992  46.4904990  59.7889997
 129.2279992  48.2844990  60.1079997 130.1989992  48.0484990  59.6239997
 128.9619992  49.3544990  59.9679997 129.3829992  48.0034990  61.5699997
 129.3769992  46.8984990  61.6819997 130.2829992  48.5014990  61.9899997
 128.2559992  48.4694990  62.4739997 128.0349992  49.5574990  62.4359997
 127.3259992  47.9044990  62.2499997 128.5849992  48.1684990  63.9519997
 129.5849992  48.5894990  64.1919997 127.9189992  48.8304990  64.5449997
 128.3679992  46.7524990  64.4069997 128.9279992  45.9524990  63.8769997
 128.7159992  46.6434990  65.4569997 126.8169992  46.5054990  64.3789997
 126.3929992  47.3464990  64.9679997 126.4339992  46.4924990  63.3359997
 126.4239992  45.1694990  65.0019997 127.0889992  44.3994990  64.5529997
 126.5639992  45.2004990  66.1029997 124.9599992  44.7444990  64.6049997
 124.1709992  45.5194990  64.7129997 124.9059992  44.6744990  63.4979997
 124.5049992  43.2934990  65.1209997 123.4849992  43.1184990  64.7149997
 125.1769992  42.5584990  64.6269997 124.6149992  43.1394990  66.6839997
 124.5809992  42.0494990  66.8999997 125.6319992  43.4444990  67.0089997
 123.5759992  43.8904990  67.4639997 123.7519992  44.9694990  67.2659997
 122.5149992  43.7424990  67.1699997 123.6319992  43.4694990  68.8959997
 122.5929992  43.6334990  69.2539997 123.9249992  42.4134990  69.0749997
 124.3669992  44.3964990  69.9719997 124.1909992  45.4304990  69.6039997
 123.8749992  44.2144990  70.9509997 125.8359992  44.1374990  70.1409997
 126.5229992  43.9484990  69.1609997 126.2789992  44.3474990  71.4049997
 127.6969992  44.5344990  71.5399997 128.0589992  44.1984990  72.5349997
 128.2529992  43.8984990  70.8199997 128.2839992  45.9304990  71.2959997
 129.3819992  45.8474990  71.4489997 127.7209992  46.8964990  72.2689997
 128.2189992  46.6784990  73.2379997 127.9689992  47.9454990  72.0009997
 126.2939992  46.9604990  72.3369997 125.6249992  47.2424990  73.7769997
 126.4509992  48.4114990  74.3379997 125.7619992  49.1084990  75.3809997
 124.7389992  49.4194990  75.0789997 125.6779992  48.5514990  76.3389997
 126.3979992  50.5304990  75.7679997 126.1299992  51.2504990  75.0079997
 125.8699992  50.7444990  76.6859997 127.8849992  50.5904990  76.0529997
 128.2289992  49.3764990  76.8229997 128.0949992  48.4304990  76.3199997
 129.2759992  49.5174990  77.0439997 127.6869992  49.2344990  77.7469997
 128.6809992  50.5924990  74.8939997 128.5069992  49.7454990  74.2469997
 128.4909992  51.5024990  74.3439997 129.7069992  50.7044990  75.2139997
 128.1559992  51.8004990  76.9499997 127.5609992  51.8034990  77.8509997
 127.8389992  52.6984990  76.4399997 129.2069992  51.7584990  77.1909997
 124.1589992  47.6274990  73.5759997 125.9619992  45.9834990  74.5749997
 128.0869992  46.2124990  69.9159997 128.6309992  47.3144990  69.4799997
 129.4339992  48.0634990  70.0469997 128.2459992  47.5464990  67.9929997
 127.8169992  46.6084990  67.5799997 129.1509992  47.7104990  67.3689997
 127.2299992  48.7924990  67.8749997 127.0759992  48.9894990  66.7919997
 127.6119992  49.7134990  68.3649997 125.8179992  48.4164990  68.4809997
 125.4819992  49.2584990  69.1239997 125.9129992  47.5634990  69.1869997
 124.6579992  47.9394990  67.5129997 124.5589992  46.8334990  67.5499997
 124.9749992  48.2194990  66.4859997 123.3379992  48.8304990  67.8139997
 123.7249992  49.8654990  67.9339997 122.9199992  48.6474990  68.8269997
 122.2129992  48.6234990  66.7639997 121.2729992  48.9624990  67.2489997
 122.0279992  47.5864990  66.4099997 122.4379992  49.4594990  65.5109997
 123.4809992  49.2494990  65.1929997 122.6759992  50.5044990  65.8029997
 121.4129992  49.3364990  64.3909997 120.6169992  50.0884990  64.4909997
 121.5319992  48.6694990  63.2409997 120.7039992  48.7374990  62.5209997
 122.8109992  47.9044990  62.8819997 122.4549992  46.9114990  62.5339997
 123.5729992  47.7734990  63.6789997 123.5659992  48.5474990  61.7929997
 123.0159992  48.6254990  60.8309997 124.3359992  47.7934990  61.5219997
 124.3089992  49.8174990  62.1629997 125.0589992  49.6364990  62.9629997
 123.6419992  50.5834990  62.6129997 124.9699992  50.3824990  60.9319997
 124.2239992  50.4004990  60.1079997 125.7919992  49.7014990  60.6219997
 125.7219992  51.6444990  61.1789997 126.6019992  51.5754990  61.8539997
 125.0639992  52.3544990  61.7229997 126.1429992  52.3574990  59.9159997
 126.8349992  53.1624990  60.2429997 125.2699992  52.8904990  59.4839997
 126.8129992  51.5404990  58.7999997 127.3999992  50.7114990  59.2489997
 127.6489992  52.0714990  58.2959997 125.8669992  50.8574990  57.7549997
 125.5689992  51.6264990  57.0099997 124.9629992  50.3974990  58.2079997
 126.5169992  50.0724990  57.3149997  26.8789992 112.5154990  58.0469997
  25.7709992 112.4744990  57.9719997  27.3439992 111.9134990  57.2369997
  27.2349992 113.5614990  57.9319997  27.3779992 112.0054990  59.4439997
  26.7839992 112.5644990  60.1979997  27.1199992 110.9264990  59.5059997
  28.8549992 112.0504990  59.6669997  29.2969992 111.2434990  59.0439997
  29.2369992 113.0334990  59.3169997  29.2989992 111.8664990  61.1289997
  29.4079992 112.8274990  61.6739997  28.5549992 111.2194990  61.6399997
  30.7989992 111.3914990  61.2579997  30.7959992 110.2954990  61.0759997
  31.4569992 111.9524990  60.5599997  31.1899992 111.5464990  62.7119997
  31.0899992 112.6504990  62.7849997  30.4819992 111.0274990  63.3939997
  32.5989992 111.1534990  63.1689997  32.7019992 110.0484990  63.1189997
  33.3589992 111.3924990  62.3949997  33.1069992 111.6304990  64.4639997
  32.2119992 111.8534990  65.0839997  33.8249992 110.9044990  64.9029997
  33.7699992 113.0494990  64.3549997  34.5319992 112.9624990  63.5509997
  33.1119992 113.8694990  63.9959997  34.5619992 113.6034990  65.5089997
  35.3259992 112.8634990  65.8289997  35.2379992 114.3944990  65.1199997
  33.7749992 114.0654990  66.7609997  33.3699992 113.1204990  67.1829997
  34.4839992 114.5584990  67.4599997  32.6379992 115.0744990  66.3739997
  32.9689992 115.8974990  65.7049997  31.8179992 114.6044990  65.7909997
  31.9089992 115.6824990  67.6419997  31.5339992 114.9144990  68.3509997
  32.6479992 116.1594990  68.3209997  30.8379992 116.6584990  67.3449997
  31.1949992 117.3634990  66.5639997  29.9829992 116.1244990  66.8779997
  30.3749992 117.5384990  68.6269997  31.1969992 117.8654990  69.2989997
  29.7599992 118.4134990  68.3269997  29.3439992 116.6454990  69.3449997
  28.4039992 116.1354990  68.8069997  29.5709992 116.5754990  70.7159997
  28.6589992 115.7164990  71.4679997  28.3519992 116.2474990  72.3939997
  27.7729992 115.4494990  70.8529997  29.2729992 114.3434990  71.8019997
  28.6019992 113.7324990  72.4439997  30.5199992 114.4834990  72.7579997
  31.2449992 115.1334990  72.2229997  30.2259992 115.0404990  73.6729997
  31.1999992 113.2454990  72.9699997  30.4979992 112.0254990  73.6399997
  29.3509992 112.6574990  74.5649997  29.7979992 113.2324990  75.8329997
  30.0579992 112.3134990  76.4009997  30.6999992 113.8734990  75.7329997
  28.6019992 113.9094990  76.5359997  27.7699992 113.2284990  76.6389997
  28.9169992 114.2194990  77.5209997  28.0389992 115.1274990  76.0759997
  26.9989992 115.6074990  76.9459997  26.3029992 114.7814990  76.9539997
  27.3199992 115.8344990  77.9509997  26.5689992 116.4924990  76.4999997
  29.1499992 116.2054990  75.9349997  29.7499992 116.1854990  76.8319997
  29.7459992 116.0744990  75.0439997  28.6509992 117.1624990  75.9019997
  27.4209992 115.0064990  74.7499997  26.7499992 115.8364990  74.5809997
  26.7299992 114.1804990  74.8239997  28.1469992 114.7704990  73.9859997
  29.8809992 111.0924990  72.6079997  31.4379992 111.4014990  74.6149997
  29.7599992 113.6554990  70.6049997  28.8299992 112.8404990  70.0649997
  27.6739992 112.8604990  70.3809997  29.4059992 111.8194990  69.0999997
  29.7869992 110.9474990  69.6729997  30.2609992 112.3154990  68.5919997
  28.3239992 111.3474990  68.1399997  27.5079992 110.9404990  68.7749997
  28.6189992 110.4154990  67.6129997  27.8779992 112.3214990  67.0389997
  27.3349992 113.0874990  67.6329997  27.1499992 111.8234990  66.3629997
  29.0829992 112.7394990  66.1729997  29.6549992 111.7884990  66.1159997
  29.6079992 113.5794990  66.6759997  28.8929992 113.0854990  64.7329997
  28.2819992 112.3784990  64.1329997  29.8739992 113.1804990  64.2209997
  28.0779992 114.4714990  64.5379997  28.2199992 115.0324990  65.4859997
  26.9969992 114.2234990  64.4729997  28.4369992 115.4064990  63.3539997
  27.7249992 116.2484990  63.4889997  28.3109992 114.8694990  62.3899997
  29.8469992 116.0284990  63.5149997  30.1529992 116.4634990  64.4779997
  30.8569992 116.0464990  62.5889997  31.6769992 116.7034990  62.9159997
  31.0089992 115.5044990  61.1439997  30.2189992 114.7924990  60.8249997
  31.9459992 114.9074990  61.1209997  31.0699992 116.5404990  59.9749997
  31.6729992 116.1114990  59.1459997  31.6109992 117.4274990  60.3679997
  29.6849992 116.9834990  59.4499997  29.0019992 116.9164990  60.3239997
  29.3109992 116.1394990  58.8309997  29.7639992 118.3784990  58.6919997
  30.2369992 119.1764990  59.3039997  28.6999992 118.6064990  58.4659997
  30.7949992 118.3204990  57.5219997  31.8129992 118.1084990  57.9139997
  30.8559992 119.3564990  57.1249997  30.3599992 117.2944990  56.3929997
  29.3379992 117.4524990  55.9869997  30.4529992 116.2764990  56.8279997
  31.4119992 117.2444990  55.2799997  31.4349992 118.2274990  54.7639997
  31.0909992 116.4574990  54.5629997  32.8989992 116.9854990  55.6399997
  33.5519992 117.1834990  54.7629997  32.9849992 115.9624990  56.0649997
  33.2869992 117.6894990  56.4069997   0.9889992  62.5094990  57.6019997
   0.6579992  61.8724990  56.7539997   1.4609992  61.8644990  58.3729997
   1.7399992  63.2354990  57.2219997  -0.1850008  63.2844990  58.2129997
  -0.8510008  63.6944990  57.4239997  -0.7610008  62.5374990  58.8009997
   0.3169992  64.5504990  58.9429997   1.2079992  64.3154990  59.5639997
   0.8519992  65.1664990  58.1889997  -0.6450008  65.2044990  59.8859997
  -1.5810008  65.4894990  59.3589997  -0.9700008  64.5854990  60.7489997
  -0.1940008  66.5454990  60.6209997   0.2699992  67.2094990  59.8609997
  -1.0150008  67.1884990  61.0049997   0.7469992  66.3794990  61.7679997
   0.2189992  65.9334990  62.6389997   1.6049992  65.7574990  61.4359997
   1.2839992  67.8164990  62.1919997   2.1089992  68.1314990  61.5189997
   0.4089992  68.4864990  62.0529997   1.5819992  68.0404990  63.6569997
   2.5109992  67.5044990  63.9479997   1.7969992  69.1134990  63.8489997
   0.4029992  67.6524990  64.5529997  -0.4760008  68.2384990  64.2089997
   0.2169992  66.5594990  64.6319997   0.4929992  68.0774990  66.0419997
   1.5299992  67.7874990  66.3149997   0.4899992  69.1884990  66.0309997
  -0.5320008  67.5924990  67.0779997  -0.1840008  68.0594990  68.0249997
  -1.5830008  67.8614990  66.8369997  -0.4110008  66.0714990  67.4329997
  -0.5320008  65.4384990  66.5279997   0.6629992  66.0684990  67.7179997
  -1.1250008  65.5214990  68.6939997  -2.2130008  65.5394990  68.4709997
  -0.8170008  64.4604990  68.8079997  -1.1040008  66.4724990  69.9219997
  -0.0530008  66.6224990  70.2479997  -1.5330008  67.4604990  69.6499997
  -1.9990008  66.1614990  71.1149997  -2.0020008  66.9804990  71.8649997
  -2.9680008  65.8454990  70.6739997  -1.4570008  65.0254990  72.0419997
  -1.6770008  65.0174990  73.2279997  -0.7250008  64.2204990  71.3179997
  -0.2300008  63.0084990  71.9149997  -0.0870008  63.1394990  73.0089997
  -1.0200008  62.2544990  71.7139997   1.1929992  62.5624990  71.4249997
   1.3489992  61.5494990  71.8519997   2.3189992  63.4654990  72.0579997
   2.5069992  63.0454990  73.0699997   3.2209992  63.4364990  71.4109997
   1.8289992  64.7594990  72.2349997   2.7919992  65.8004990  72.9809997
   2.8109992  65.1034990  74.3439997   1.6299992  64.9974990  75.2409997
   0.6809992  65.4624990  74.8989997   1.3459992  63.9244990  75.2889997
   1.9829992  65.5284990  76.6669997   1.2389992  65.2104990  77.3819997
   2.8089992  64.9604990  77.0699997   2.2659992  66.9914990  76.8719997
   2.3349992  67.4024990  78.2769997   2.6519992  68.4324990  78.3369997
   1.4089992  67.1984990  78.7939997   3.1089992  66.8664990  78.8059997
   3.5559992  67.4204990  76.2439997   3.6529992  68.4964990  76.2439997
   4.3939992  67.1654990  76.8769997   3.6329992  67.0354990  75.2379997
   1.1199992  67.7224990  76.1909997   1.2739992  67.5414990  75.1369997
   1.1169992  68.7904990  76.3499997   0.1879992  67.3704990  76.6089997
   4.1469992  65.7514990  72.4149997   2.0799992  67.1214990  73.0049997
   1.3129992  62.6914990  69.9939997   2.3329992  62.0584990  69.3879997
   3.1699992  61.3174990  69.9509997   2.2129992  62.4754990  67.9319997
   3.1759992  62.3254990  67.3979997   1.9579992  63.5494990  67.8009997
   1.1679992  61.5874990  67.2699997   0.2309992  61.9214990  67.7649997
   1.3449992  60.5004990  67.4129997   0.9489992  61.8704990  65.7219997
   0.5619992  62.9104990  65.7739997   0.1239992  61.2194990  65.3619997
   2.2369992  61.8114990  64.8529997   2.7199992  60.8124990  64.7949997
   3.0049992  62.3774990  65.4219997   2.0379992  62.3084990  63.3629997
   2.0599992  63.4114990  63.4969997   1.0629992  61.8434990  63.1049997
   3.1059992  61.7744990  62.3949997   2.7879992  61.8914990  61.3369997
   3.0669992  60.6654990  62.3649997   4.6149992  62.1284990  62.5309997
   5.1199992  61.5024990  61.7659997   4.9369992  61.8194990  63.5489997
   4.9199992  63.6194990  62.3989997   4.1449992  64.2914990  62.7959997
   6.1019992  64.1644990  61.9679997   6.1579992  65.2624990  61.9449997
   7.3369992  63.3994990  61.5379997   7.5479992  62.7244990  62.3949997
   8.1499992  64.1524990  61.6159997   7.2359992  62.7574990  60.1739997
   6.3149992  62.1364990  60.1489997   8.0659992  62.0194990  60.2139997
   7.5049992  63.8424990  59.0929997   8.6019992  63.8954990  58.9249997
   7.3259992  64.8304990  59.5689997   6.6899992  63.6934990  57.8539997
   6.8099992  64.5804990  57.1959997   5.6149992  63.6924990  58.1339997
   7.0839992  62.3864990  57.0689997   6.8329992  61.4294990  57.5749997
   8.1919992  62.4074990  56.9939997   6.6379992  62.2634990  55.6559997
   7.1969992  61.4714990  55.1139997   6.8089992  63.1664990  55.0319997
   5.1649992  61.8644990  55.6399997   4.6199992  62.6944990  56.1379997
   4.8629992  60.9824990  56.2449997   4.3789992  61.7794990  54.3199997
   4.7949992  60.9654990  53.6889997   4.1859992  62.7294990  53.7759997
   3.3579992  61.4164990  54.5629997 132.7289992  90.1994990  56.4389997
 133.4359992  89.3694990  56.2289997 133.2089992  91.0834990  55.9659997
 131.6979992  90.0984990  56.0379997 132.8059992  90.4764990  57.9939997
 132.1549992  91.3584990  58.1729997 132.4019992  89.6684990  58.6419997
 134.1639992  90.8714990  58.6369997 134.5949992  91.7104990  58.0499997
 134.0009992  91.2844990  59.6549997 135.2229992  89.7534990  58.7359997
 135.3489992  89.3774990  57.6979997 136.1019992  90.3714990  59.0209997
 134.8189992  88.6434990  59.7089997 134.8589992  89.0994990  60.7219997
 133.7219992  88.5204990  59.5809997 135.5829992  87.3524990  59.7649997
 135.6209992  86.8014990  58.8009997 136.6119992  87.6874990  60.0169997
 135.0739992  86.3724990  60.8259997 135.7989992  86.4554990  61.6639997
 134.1439992  86.7794990  61.2759997 134.9409992  84.9704990  60.3759997
 133.9929992  84.9184990  59.7989997 135.7289992  84.5454990  59.7169997
 134.6669992  84.0474990  61.6159997 134.2819992  83.1294990  61.1219997
 135.6589992  83.8234990  62.0639997 133.6329992  84.6174990  62.6669997
 134.0129992  85.5644990  63.1069997 132.8149992  85.0274990  62.0369997
 133.2019992  83.5484990  63.6269997 132.2619992  83.6774990  64.2049997
 133.1449992  82.5974990  63.0569997 134.2189992  83.4204990  64.7719997
 135.2159992  83.0774990  64.4239997 134.3359992  84.4574990  65.1539997
 133.8009992  82.5224990  65.8709997 132.6929992  82.5294990  65.9469997
 134.0749992  81.4644990  65.6669997 134.4339992  82.9394990  67.2179997
 134.2969992  82.0974990  67.9289997 135.5369992  82.9604990  67.0859997
 133.8359992  84.2764990  67.6929997 134.3559992  85.0834990  67.1329997
 132.7429992  84.2144990  67.5069997 134.1359992  84.4924990  69.1689997
 134.7909992  83.6764990  69.7459997 133.6469992  85.5354990  69.6959997
 133.9649992  85.9164990  71.0459997 133.0079992  86.1694990  71.5489997
 134.6359992  85.2604990  71.6409997 134.7409992  87.2664990  71.0289997
 135.7289992  87.1784990  70.5289997 135.0479992  87.7824990  72.5369997
 135.4519992  86.9114990  73.0969997 135.7599992  88.6344990  72.5069997
 133.8349992  88.2804990  73.1219997 133.9439992  89.0454990  74.4879997
 132.7479992  88.4164990  75.3449997 131.4759992  88.2054990  74.6269997
 131.0649992  89.2284990  74.4849997 131.5439992  87.6304990  73.6789997
 130.4489992  87.3444990  75.5349997 130.4219992  87.7924990  76.5169997
 129.4959992  87.4624990  75.0399997 130.6739992  85.8914990  75.4809997
 131.8579992  85.6394990  76.3289997 132.8289992  85.8704990  75.9179997
 131.8219992  86.3274990  77.1599997 131.8309992  84.5914990  76.5909997
 129.4529992  85.1934990  76.1029997 128.6059992  85.4554990  75.4869997
 129.5659992  84.1194990  76.0739997 129.2619992  85.5174990  77.1149997
 130.7829992  85.3764990  74.0319997 131.5319992  85.9334990  73.4879997
 129.8739992  85.3684990  73.4499997 131.2609992  84.4094990  74.0839997
 135.1679992  88.5194990  75.1019997 133.6819992  90.4974990  74.3079997
 133.9939992  88.3084990  70.3859997 134.6419992  89.4244990  70.1169997
 135.7949992  89.7164990  70.3649997 133.6279992  90.4854990  69.5279997
 133.8479992  91.4604990  70.0129997 132.5889992  90.1474990  69.7299997
 133.9439992  90.6584990  68.0799997 135.0369992  90.5574990  67.9089997
 133.8269992  91.6994990  67.7089997 133.2549992  89.6334990  67.1689997
 132.1629992  89.7534990  67.3389997 133.4529992  88.6034990  67.5339997
 133.5789992  89.7594990  65.6479997 133.2739992  88.7704990  65.2439997
 134.6249992  90.0604990  65.4269997 132.9559992  90.9374990  64.9909997
 133.4039992  91.8774990  65.3779997 131.8909992  91.0614990  65.2819997
 133.2249992  90.9174990  63.5129997 134.2809992  90.8984990  63.1689997
 132.7649992  91.7834990  62.9899997 132.5779992  89.6894990  62.7669997
 133.3169992  88.8664990  62.8739997 132.5979992  89.8684990  61.6709997
 131.2509992  89.3874990  63.3229997 131.2239992  89.0874990  64.3809997
 130.0509992  89.4344990  62.6389997 129.1109992  89.1804990  63.1499997
 129.9109992  89.8804990  61.2119997 130.7499992  90.5294990  60.8819997
 129.0169992  90.5094990  61.0189997 129.6909992  88.7904990  60.0869997
 129.6359992  89.2744990  59.0879997 128.7069992  88.3384990  60.3339997
 130.8469992  87.7044990  60.0579997 130.9339992  87.3424990  61.1049997
 131.8729992  88.1224990  59.9749997 130.6709992  86.5634990  59.0419997
 131.3449992  85.7724990  59.4359997 130.9499992  86.8784990  58.0139997
 129.3039992  85.9474990  59.0789997 128.5749992  86.6134990  58.5699997
 128.7889992  85.9984990  60.0619997 129.2299992  84.5134990  58.4629997
 128.2349992  84.0194990  58.4779997 129.9079992  83.8094990  58.9909997
 129.5019992  84.5924990  56.9159997 130.1939992  85.4364990  56.7079997
 128.4999992  84.8264990  56.4969997 130.1079992  83.3154990  56.2539997
 129.5099992  82.3794990  56.2289997 131.0169992  83.0324990  56.8279997
 130.5339992  83.5494990  55.2549997  12.9759992  89.8674990  58.2399997
  13.3549992  89.3684990  57.3229997  13.8039992  89.9064990  58.9799997
  12.7929992  90.8954990  57.8619997  11.7489992  89.1944990  58.6719997
  11.4699992  89.6704990  59.6359997  10.9349992  89.4754990  57.9709997
  11.8149992  87.6364990  58.8119997  10.8159992  87.2354990  59.0869997
  12.1319992  87.1914990  57.8449997  12.7539992  87.0924990  59.9499997
  12.4559992  86.0394990  60.1439997  13.7809992  87.1224990  59.5289997
  12.5789992  87.8244990  61.2829997  13.2239992  88.7214990  61.1619997
  11.5229992  88.1354990  61.4269997  12.9339992  86.8704990  62.4579997
  13.8719992  86.3384990  62.1929997  13.1639992  87.5084990  63.3379997
  11.8909992  85.8454990  62.9279997  11.6729992  85.1514990  62.0879997
  12.3559992  85.2224990  63.7219997  10.5749992  86.6084990  63.3439997
  10.9029992  87.5934990  63.7389997   9.9519992  86.7024990  62.4289997
   9.7419992  85.8904990  64.3999997  10.4519992  85.7824990  65.2469997
   8.9559992  86.6154990  64.7029997   9.1709992  84.5294990  64.0549997
   8.5639992  84.6084990  63.1269997   9.9389992  83.7504990  63.8599997
   8.2999992  83.9824990  65.2289997   8.0819992  82.9064990  65.0599997
   8.9969992  83.9804990  66.0949997   6.9989992  84.7144990  65.4609997
   7.3049992  85.6324990  66.0059997   6.4599992  84.9404990  64.5159997
   6.0479992  83.8284990  66.2969997   5.2939992  84.5854990  66.6009997
   5.6889992  83.0774990  65.5609997   6.7029992  83.1164990  67.5509997
   6.0459992  82.4234990  68.1189997   7.6419992  82.6074990  67.2449997
   7.1559992  84.1374990  68.5439997   7.7509992  84.9654990  68.1019997
   6.3079992  84.6034990  69.0899997   7.9899992  83.4574990  69.6499997
   8.2349992  82.2554990  69.6969997   8.5069992  84.3844990  70.5139997
   9.5059992  83.8744990  71.3999997   9.2689992  82.8974990  71.8729997
  10.4969992  83.7904990  70.9059997   9.6469992  84.8974990  72.5059997
  10.3909992  84.5604990  73.2599997   8.3359992  85.1834990  73.2909997
   7.4619992  85.3204990  72.6189997   8.1439992  84.4104990  74.0659997
   8.6789992  86.4214990  73.9949997   7.5589992  87.3874990  74.5589997
   8.3989992  88.2934990  75.5649997   9.5269992  87.7744990  76.2089997
   9.6069992  88.1694990  77.2439997   9.3829992  86.6794990  76.3279997
  10.8559992  88.2084990  75.4669997  11.5929992  87.9484990  76.2129997
  11.0659992  87.4454990  74.7319997  11.0959992  89.6774990  75.1129997
  10.7929992  90.5584990  76.2419997  11.5719992  90.3654990  76.9639997
  10.7479992  91.5934990  75.9359997   9.8089992  90.3034990  76.6049997
  12.5149992  89.8324990  74.6739997  13.1109992  89.4274990  75.4789997
  12.6439992  89.3494990  73.7169997  12.7019992  90.8954990  74.7099997
  10.1659992  90.0204990  73.9109997   9.1409992  89.8904990  74.2249997
  10.3389992  89.3194990  73.1079997  10.3389992  91.0564990  73.6599997
   7.1779992  88.3154990  73.4839997   6.6079992  86.5004990  75.2529997
  10.1299992  86.0384990  71.8569997  11.4139992  86.4054990  71.8349997
  12.3159992  85.9024990  72.5109997  11.6189992  87.4854990  70.7609997
  12.6379992  87.9124990  70.8789997  10.8909992  88.3224990  70.8139997
  11.3929992  86.7964990  69.3759997  10.7719992  85.8984990  69.5819997
  12.3329992  86.3834990  68.9519997  10.4939992  87.5454990  68.3959997
  10.5489992  86.9794990  67.4419997  10.8349992  88.5954990  68.2739997
   9.0249992  87.6514990  68.8579997   8.9409992  88.2424990  69.7959997
   8.6489992  86.6404990  69.1219997   8.0209992  88.2534990  67.8299997
   7.7959992  87.3934990  67.1629997   8.4549992  89.0054990  67.1369997
   6.7359992  88.7454990  68.4809997   6.8789992  89.6954990  69.0399997
   6.3339992  87.9794990  69.1769997   5.6539992  89.1504990  67.5089997
   6.0959992  89.9104990  66.8299997   4.8349992  89.6884990  68.0319997
   4.9659992  87.9974990  66.7279997   4.4969992  87.2414990  67.3759997
   4.7199992  87.9264990  65.3819997   4.1889992  87.0824990  64.9179997
   5.0979992  88.9804990  64.3259997   5.4959992  89.8574990  64.8799997
   4.1529992  89.2604990  63.8129997   6.3189992  88.5094990  63.4109997
   7.1789992  88.3554990  64.0979997   6.5519992  89.4324990  62.8379997
   5.8329992  87.4714990  62.4449997   4.9359992  87.8744990  61.9279997
   5.4559992  86.6214990  63.0529997   6.9479992  87.1624990  61.3959997
   6.7839992  86.3074990  60.7059997   7.8359992  86.9174990  62.0179997
   7.2889992  88.3294990  60.5079997   8.1169992  88.9524990  60.9099997
   6.5219992  89.1294990  60.4359997   7.7079992  87.9184990  59.1159997
   8.6259992  87.3014990  59.2149997   8.0609992  88.8134990  58.5609997
   6.6549992  87.3684990  58.1799997   6.2309992  86.4344990  58.6089997
   7.2259992  87.1294990  57.2569997   5.5399992  88.3984990  57.8509997
   5.8489992  89.3414990  57.3519997   4.9659992  88.7444990  58.7369997
   4.8159992  87.8684990  57.1949997  12.1959992  37.0974990  54.8879997
  11.5019992  37.1184990  54.0209997  12.1689992  36.0424990  55.2349997
  13.1919992  37.4394990  54.5339997  11.6349992  38.1474990  55.9009997
  11.8379992  39.1544990  55.4779997  10.5329992  38.1054990  56.0309997
  12.4549992  38.2034990  57.2119997  13.4899992  38.5914990  57.0939997
  11.9999992  38.9044990  57.9429997  12.4649992  36.8574990  57.8619997
  11.4059992  36.6264990  58.1049997  12.9769992  36.1124990  57.2169997
  13.2639992  36.9104990  59.2049997  14.3399992  36.9664990  58.9339997
  13.0549992  37.8584990  59.7449997  12.8799992  35.7504990  60.1909997
  13.4679992  35.8314990  61.1299997  11.8079992  35.9474990  60.4079997
  12.8629992  34.3084990  59.6569997  11.8489992  34.2234990  59.2119997
  13.5539992  34.0734990  58.8189997  12.7099992  33.1184990  60.6309997
  12.6759992  32.2324990  59.9619997  13.5699992  32.9594990  61.3169997
  11.4919992  33.2684990  61.6149997  11.5729992  34.1944990  62.2239997
  10.6619992  33.3774990  60.8839997  11.2689992  32.0924990  62.5699997
  11.1199992  31.2574990  61.8529997  12.1769992  31.7954990  63.1369997
  10.0689992  32.3474990  63.5159997  10.4199992  33.2334990  64.0859997
   9.1789992  32.6424990  62.9199997   9.7299992  31.1774990  64.4789997
   8.9739992  31.6274990  65.1559997   9.1139992  30.4544990  63.9019997
  10.8909992  30.3744990  65.1319997  10.3159992  29.6204990  65.7109997
  11.6019992  30.0094990  64.3609997  11.6659992  31.2134990  66.1639997
  12.3309992  31.8734990  65.5669997  10.9189992  31.7734990  66.7659997
  12.6489992  30.3944990  67.0329997  12.1509992  29.4334990  67.2839997
  13.5659992  30.3434990  66.4079997  12.9989992  31.1884990  68.3329997
  14.0519992  31.8794990  68.4939997  12.0369992  31.0244990  69.1619997
  12.0049992  31.5614990  70.4409997  11.1599992  31.0664990  70.9669997
  12.8859992  31.1484990  70.9779997  11.9859992  33.1194990  70.4249997
  13.0369992  33.4774990  70.4539997  11.2549992  33.6664990  71.7169997
  10.2149992  33.2744990  71.7099997  11.7699992  33.3064990  72.6329997
  11.1029992  35.0494990  71.8259997  10.2329992  35.7234990  72.9389997
  10.6759992  34.9884990  74.2239997  11.9609992  35.3604990  74.8449997
  12.2969992  34.3734990  75.2269997  12.7359992  35.8764990  74.2389997
  11.6119992  36.3484990  76.0319997  12.4519992  36.2494990  76.7039997
  11.5749992  37.3644990  75.6669997  10.4229992  36.0944990  76.9289997
   9.0469992  36.4224990  76.3829997   8.8819992  37.3874990  75.9279997
   8.9029992  35.7174990  75.5769997   8.3209992  36.0984990  77.1139997
  10.5449992  34.6344990  77.4469997  10.7229992  33.9714990  76.6139997
  11.4469992  34.6544990  78.0419997   9.7049992  34.2814990  78.0279997
  10.6469992  37.0514990  78.0719997   9.9109992  36.8814990  78.8439997
  10.5319992  38.0644990  77.7149997  11.5969992  36.9304990  78.5699997
  10.5449992  37.2004990  73.0989997   8.8099992  35.4074990  72.6769997
  11.2759992  33.5824990  69.2199997  11.5169992  34.8194990  68.8109997
  12.3029992  35.6554990  69.2609997  10.8269992  34.9984990  67.4209997
   9.7549992  34.8374990  67.6639997  11.1879992  34.2284990  66.7049997
  11.1299992  36.4174990  66.8379997  12.2279992  36.4324990  66.6699997
  10.8589992  37.2214990  67.5549997  10.4689992  36.7434990  65.4859997
  10.9139992  36.0064990  64.7829997  10.6349992  37.7444990  65.0329997
   8.9739992  36.4874990  65.5609997   8.5859992  36.9114990  66.5119997
   8.8079992  35.3924990  65.6499997   8.0419992  37.0854990  64.5489997
   8.2849992  38.1614990  64.6789997   7.0019992  36.8344990  64.8489997
   8.3729992  36.6534990  63.0449997   8.1399992  35.5684990  62.9939997
   9.4669992  36.7584990  62.8819997   7.6469992  37.5454990  62.0989997
   7.9459992  37.2834990  61.0619997   8.0039992  38.5894990  62.2299997
   6.1509992  37.5614990  62.2089997   5.7509992  38.3264990  62.8919997
   5.3299992  36.6354990  61.6209997   4.2329992  36.6314990  61.7139997
   5.8929992  35.4904990  60.7659997   5.3849992  34.5124990  60.9029997
   6.8939992  35.1324990  61.0889997   6.2089992  36.0664990  59.3649997
   7.2449992  36.4264990  59.1859997   5.4749992  36.8774990  59.1699997
   6.0449992  34.9234990  58.3069997   6.0469992  35.3104990  57.2659997
   5.0669992  34.4724990  58.5819997   7.0969992  33.8564990  58.4779997
   6.6369992  33.2284990  57.6849997   7.0139992  33.2364990  59.3959997
   8.5979992  34.1564990  58.2519997   8.9039992  34.6694990  59.1889997
   8.8339992  34.9324990  57.4919997   9.3369992  32.8674990  57.8339997
  10.4249992  33.0704990  57.9339997   9.0959992  32.7394990  56.7569997
   9.0669992  31.6094990  58.6619997   8.0459992  31.2114990  58.4789997
   9.2179992  31.7294990  59.7559997  10.1029992  30.5364990  58.2329997
   9.8769992  30.1874990  57.2029997  10.0299992  29.7164990  58.9789997
  11.1259992  30.9564990  58.3349997 120.9769992 105.1834990  56.4099997
 119.9379992 105.4154990  56.7289997 121.1609992 104.1154990  56.1669997
 121.1679992 105.8674990  55.5559997 121.8139992 105.4604990  57.6749997
 122.8939992 105.6314990  57.4789997 121.2779992 106.2474990  58.2459997
 121.8039992 104.2814990  58.6499997 120.7269992 104.2384990  58.9179997
 122.2019992 103.4024990  58.0989997 122.4679992 104.5844990  60.0209997
 123.5229992 104.8924990  59.8569997 121.9759992 105.5414990  60.2989997
 122.3999992 103.4944990  61.0589997 123.0479992 103.8224990  61.8999997
 121.3739992 103.3804990  61.4709997 122.7419992 102.1054990  60.6079997
 121.8869992 101.7774990  59.9799997 123.7139992 102.1874990  60.0759997
 122.7059992 101.0974990  61.8299997 121.8609992 101.3424990  62.5079997
 122.5609992 100.0234990  61.5829997 123.9659992 101.2684990  62.7029997
 124.8169992 101.0024990  62.0409997 124.1819992 102.2074990  63.2559997
 124.0099992 100.3624990  63.9199997 123.6099992  99.3834990  63.5809997
 125.0259992 100.2984990  64.3649997 123.0389992 100.8004990  65.0529997
 123.3299992 101.8574990  65.2349997 121.9639992 100.7504990  64.7749997
 123.4419992 100.1894990  66.4069997 123.2489992  99.0964990  66.4499997
 124.4859992 100.5164990  66.6019997 122.6489992 100.8744990  67.5209997
 122.2839992 101.8904990  67.2599997 121.6459992 100.4044990  67.6069997
 123.3359992 100.8034990  68.9189997 122.6109992 101.0364990  69.7279997
 123.9319992  99.8774990  69.0669997 124.4589992 101.9104990  68.9499997
 125.0769992 101.7444990  68.0409997 123.8949992 102.8644990  68.8769997
 125.4909992 101.8464990  70.1489997 124.9969992 101.8694990  71.1439997
 126.0059992 100.8654990  70.2279997 126.5169992 102.9704990  70.1489997
 126.8879992 103.5004990  69.1309997 126.9579992 103.2124990  71.3989997
 127.6059992 104.5204990  71.4999997 128.4919992 104.4254990  72.1639997
 127.8819992 104.9644990  70.5199997 126.6709992 105.5744990  72.1009997
 127.2189992 106.5344990  71.9809997 126.5429992 105.2674990  73.6389997
 126.3109992 104.1964990  73.8219997 127.5149992 105.5984990  74.0639997
 125.5749992 106.0504990  74.3249997 124.7399992 105.4214990  75.5629997
 123.9039992 104.0394990  75.0549997 123.3489992 103.9524990  73.7739997
 124.1259992 104.2574990  73.0399997 123.5089992 102.8854990  73.5119997
 121.9129992 104.4394990  73.7009997 121.9509992 105.5114990  73.8239997
 121.5349992 104.3694990  72.6919997 120.9359992 103.8314990  74.6529997
 120.9489992 104.5794990  75.9529997 120.1649992 104.2984990  76.6399997
 121.9119992 104.5074990  76.4379997 120.7309992 105.6094990  75.7139997
 119.5379992 104.1114990  74.0779997 119.3069992 103.4344990  73.2689997
 118.7439992 103.9634990  74.7949997 119.4289992 105.1094990  73.6799997
 121.0989992 102.3444990  74.8459997 120.9109992 101.9374990  73.8639997
 120.2459992 102.0684990  75.4469997 122.0349992 102.0614990  75.3049997
 125.7179992 104.9254990  76.5829997 123.7379992 106.4454990  75.9399997
 125.3979992 105.6334990  71.4709997 125.0929992 106.7754990  70.9059997
 125.7819992 107.7894990  70.7379997 123.6649992 106.7134990  70.4319997
 123.1009992 107.5064990  70.9669997 123.1589992 105.7414990  70.6159997
 123.7519992 106.9874990  68.8879997 124.1719992 107.9814990  68.6219997
 122.7019992 107.0104990  68.5249997 124.5869992 105.8994990  68.2309997
 124.2749992 104.8964990  68.5909997 125.6379992 106.2004990  68.4299997
 124.4949992 105.9564990  66.6979997 125.3149992 105.3204990  66.2999997
 124.7039992 106.9574990  66.2649997 123.2179992 105.4344990  66.1499997
 122.4009992 106.0334990  66.6069997 123.1249992 104.4034990  66.5529997
 123.0699992 105.3294990  64.5949997 122.0439992 105.0244990  64.2959997
 123.7409992 104.5384990  64.1959997 123.2789992 106.7054990  63.8999997
 124.3509992 106.9824990  63.9859997 122.8319992 107.4634990  64.5779997
 122.7119992 106.8294990  62.4849997 121.7409992 106.3274990  62.3589997
 123.2229992 107.5164990  61.5089997 122.7309992 107.4834990  60.5249997
 124.5019992 108.3074990  61.4829997 125.1179992 108.3114990  62.4069997
 124.2959992 109.3734990  61.2479997 125.2909992 107.7074990  60.2859997
 124.6969992 107.4704990  59.3779997 125.6049992 106.7084990  60.6559997
 126.4889992 108.5644990  59.9169997 127.4519992 108.3204990  60.4149997
 126.4179992 109.6654990  60.0419997 126.9569992 108.3934990  58.4479997
 127.7779992 109.1184990  58.2599997 126.0979992 108.7894990  57.8649997
 127.3209992 106.9954990  57.8969997 126.5709992 106.7144990  57.1269997
 127.1959992 106.3104990  58.7629997 128.7529992 106.8634990  57.3909997
 129.4499992 107.4824990  57.9949997 128.8089992 107.3824990  56.4099997
 129.1929992 105.4094990  57.2019997 130.0999992 105.3354990  56.5659997
 128.4429992 104.8964990  56.5619997 129.5059992 104.6784990  58.4569997
 129.8689992 103.6474990  58.2639997 128.6689992 104.5784990  59.1809997
 130.3439992 105.1774990  58.9889997  25.7679992   8.9644990  56.6689997
  25.9469992   8.0194990  56.1109997  26.5709992   9.6134990  56.2569997
  24.8459992   9.4904990  56.3409997  25.8919992   8.7964990  58.1649997
  25.6609992   9.7944990  58.5939997  25.1579992   8.0364990  58.5079997
  27.2409992   8.2864990  58.6239997  27.5909992   7.3374990  58.1639997
  27.9289992   9.0194990  58.1499997  27.4169992   8.4464990  60.2039997
  27.0679992   9.4774990  60.4279997  26.7869992   7.6684990  60.6859997
  28.7999992   7.9674990  60.7769997  29.0159992   6.9134990  60.5009997
  29.5239992   8.5394990  60.1579997  28.9439992   8.3554990  62.2719997
  28.3459992   7.6784990  62.9179997  29.9529992   7.9944990  62.5659997
  28.8619992   9.8424990  62.5209997  29.6969992  10.0874990  63.2119997
  29.0039992  10.4394990  61.5939997  27.6329992  10.2834990  63.4439997
  26.6929992  10.2554990  62.8519997  27.4499992   9.5344990  64.2439997
  27.7669992  11.6314990  64.1889997  28.6769992  11.6974990  64.8229997
  27.8969992  12.5054990  63.5149997  26.5589992  12.0624990  65.0809997
  26.8469992  12.9164990  65.7299997  25.7839992  12.4164990  64.3669997
  26.0759992  11.0954990  66.0919997  25.7509992  10.1644990  65.5809997
  26.9139992  10.9314990  66.8039997  24.7859992  11.5734990  66.8479997
  24.8159992  12.5434990  67.3899997  23.9969992  11.7774990  66.0929997
  24.3929992  10.5754990  67.9469997  24.4529992   9.5084990  67.6429997
  25.0839992  10.6234990  68.8159997  22.9609992  10.7584990  68.4909997
  22.7419992  11.8454990  68.5699997  22.2189992  10.2834990  67.8129997
  22.6609992  10.2284990  69.9439997  23.2659992  10.6294990  70.7849997
  21.5879992  10.4014990  70.1739997  22.6989992   8.6944990  69.9519997
  22.1859992   7.9244990  69.1459997  23.1799992   8.3764990  71.1319997
  23.4469992   7.0194990  71.3959997  22.9069992   6.7334990  72.3239997
  23.0099992   6.3084990  70.6619997  24.9579992   6.7024990  71.6349997
  25.1729992   5.6754990  71.9999997  25.5569992   7.8064990  72.6099997
  25.0319992   7.6784990  73.5809997  26.6599992   7.6754990  72.6309997
  25.2909992   9.1144990  72.1169997  25.9309992  10.3744990  72.9039997
  25.1139992  10.4754990  74.2379997  25.5579992  11.3284990  75.3409997
  26.0819992  12.2664990  75.0569997  24.6689992  11.7654990  75.8439997
  26.2629992  10.4884990  76.3639997  27.1549992  10.2044990  75.8269997
  26.4569992  11.1664990  77.1829997  25.6669992   9.1984990  76.8739997
  24.2099992   9.2984990  77.0899997  24.0379992  10.0634990  77.8319997
  23.6899992   9.4664990  76.1579997  23.7499992   8.4164990  77.5089997
  26.1719992   8.0914990  75.9779997  27.2509992   8.1154990  76.0239997
  25.8569992   7.1634990  76.4329997  25.8939992   8.1904990  74.9399997
  26.3059992   8.9614990  78.2759997  27.3669992   8.8034990  78.1509997
  25.9189992   8.0924990  78.7859997  26.1569992   9.9124990  78.7659997
  27.3099992  10.0344990  73.2519997  25.7029992  11.5824990  72.0369997
  25.6709992   6.8814990  70.3819997  26.8309992   6.4284990  70.1329997
  27.4979992   5.6014990  70.7609997  27.3939992   6.9914990  68.8489997
  28.4739992   6.7274990  68.8339997  27.3599992   8.1004990  68.8979997
  26.5919992   6.4334990  67.6149997  25.4989992   6.5374990  67.7799997
  26.9039992   5.3674990  67.5779997  26.8829992   7.1064990  66.2939997
  27.9699992   7.3104990  66.1899997  26.2609992   8.0234990  66.2179997
  26.4469992   6.1464990  65.0949997  27.0019992   5.2024990  65.2859997
  26.8799992   6.5874990  64.1729997  24.9999992   5.8514990  64.8709997
  24.5279992   5.3494990  65.7419997  24.8159992   5.2704990  63.9419997
  24.0129992   7.1154990  64.8319997  23.9539992   7.5394990  65.8569997
  22.9999992   6.6814990  64.6909997  24.3559992   8.0654990  63.7339997
  25.4619992   8.1574990  63.6929997  24.0089992   9.0934990  63.9739997
  23.7189992   7.7084990  62.4179997  24.1739992   6.9374990  61.7789997
  22.6539992   8.2604990  61.8109997  22.2749992   7.8724990  60.8529997
  21.8039992   9.4284990  62.3049997  22.2439992   9.8734990  63.2229997
  20.7679992   9.0374990  62.4049997  21.8369992  10.6124990  61.3079997
  22.9109992  10.8794990  61.2099997  21.2909992  11.4554990  61.7819997
  21.3729992  10.3254990  59.8739997  20.3659992   9.8694990  59.9869997
  21.9789992   9.5114990  59.4199997  21.4179992  11.5824990  58.9669997
  21.2379992  12.4984990  59.5699997  20.5599992  11.4094990  58.2819997
  22.6829992  11.7664990  58.0709997  22.6269992  11.0304990  57.2409997
  23.5969992  11.7424990  58.7019997  22.5999992  13.0974990  57.3279997
  22.4859992  14.0614990  57.8679997  21.7299992  13.0704990  56.6369997
  23.8549992  13.2184990  56.3659997  24.2049992  12.1704990  56.2449997
  24.5829992  13.8564990  56.9119997  23.4779992  13.8754990  55.0539997
  22.9219992  14.7944990  55.3399997  22.8359992  13.1284990  54.5409997
  24.4089992  14.1094990  54.4949997 137.6239992  60.6474990  55.9809997
 137.8849992  59.7574990  55.3679997 138.1629992  61.5364990  55.5909997
 136.5269992  60.6564990  55.8049997 138.0259992  60.4414990  57.4139997
 137.6769992  59.4864990  57.8609997 139.1369992  60.4334990  57.4049997
 137.5839992  61.6974990  58.2179997 138.3029992  61.8924990  59.0429997
 137.6689992  62.5804990  57.5479997 136.1139992  61.6614990  58.7129997
 135.4039992  61.3404990  57.9219997 136.0539992  60.7864990  59.3959997
 135.4769992  62.9474990  59.2889997 135.5499992  63.7624990  58.5379997
 134.4009992  62.6734990  59.3249997 136.0669992  63.5594990  60.5169997
 137.1159992  63.8944990  60.3689997 135.4939992  64.5024990  60.6459997
 136.0939992  62.6434990  61.6919997 134.9929992  62.4944990  61.6979997
 136.4969992  61.6234990  61.5189997 136.5309992  63.2734990  63.0029997
 137.5339992  63.7504990  62.9899997 135.7819992  63.9854990  63.4119997
 136.5019992  62.2614990  64.1139997 135.4749992  61.8404990  64.0649997
 137.2399992  61.4794990  63.8349997 136.8089992  62.9224990  65.4629997
 137.8599992  63.2764990  65.5269997 136.0109992  63.6614990  65.6879997
 136.7719992  61.7734990  66.5499997 135.7549992  61.3424990  66.4379997
 137.5609992  61.0284990  66.3119997 136.7209992  62.3254990  67.9449997
 137.5479992  63.0544990  68.0849997 135.7419992  62.8264990  68.1069997
 136.8799992  61.2924990  69.0999997 136.6999992  61.8524990  70.0429997
 136.0289992  60.5824990  69.1729997 138.2279992  60.4814990  69.0119997
 138.2389992  59.7384990  68.1859997 138.9369992  61.2794990  68.7009997
 138.6519992  59.8874990  70.3869997 137.9869992  59.0434990  70.6679997
 139.6039992  59.3464990  70.2029997 138.8889992  60.9474990  71.4539997
 139.4429992  61.9974990  71.2589997 138.5789992  60.3344990  72.6189997
 139.0339992  61.0464990  73.8209997 139.2829992  60.3564990  74.6559997
 139.9439992  61.6654990  73.6729997 137.9829992  62.0654990  74.4509997
 138.3119992  62.3604990  75.4699997 136.5329992  61.4834990  74.5959997
 136.6809992  60.4254990  74.9019997 135.9609992  62.0724990  75.3439997
 135.8879992  61.5304990  73.2919997 134.6829992  60.6144990  73.1819997
 133.7339992  61.1404990  74.3519997 132.8709992  62.2144990  74.2679997
 132.9459992  62.8034990  73.3289997 131.8199992  61.8674990  74.3639997
 133.1289992  63.3394990  75.3819997 134.1559992  63.6594990  75.2859997
 132.4109992  64.1194990  75.1719997 132.9499992  62.9294990  76.8199997
 133.7379992  61.7444990  77.2359997 133.5579992  61.4774990  78.2669997
 133.4579992  60.9914990  76.5129997 134.7949992  61.9394990  77.1379997
 133.3509992  64.1294990  77.6539997 132.7559992  64.9574990  77.2969997
 133.3019992  63.9984990  78.7249997 134.3659992  64.4404990  77.4539997
 131.5039992  62.6484990  77.0459997 131.4199992  61.7724990  76.4199997
 130.8149992  63.4194990  76.7339997 131.4019992  62.4894990  78.1099997
 134.1649992  60.9034990  71.7929997 135.1369992  59.2244990  73.4469997
 138.0579992  63.1374990  73.6129997 137.6059992  64.2934990  74.1039997
 137.3119992  64.4794990  75.2629997 137.6289992  65.2694990  72.9789997
 138.5349992  65.2304990  72.3369997 137.6749992  66.3004990  73.3889997
 136.4469992  65.0854990  72.0219997 136.3899992  64.0984990  71.5159997
 136.5519992  65.8424990  71.2149997 135.1359992  65.2134990  72.8029997
 135.1349992  66.0674990  73.5149997 135.0769992  64.3814990  73.5369997
 133.9319992  65.0864990  71.8529997 133.0789992  64.9914990  72.5589997
 133.9989992  64.0954990  71.3559997 133.7589992  66.1994990  70.8869997
 134.6199992  66.3364990  70.1989997 133.5919992  67.2014990  71.3379997
 132.6629992  65.8264990  69.8689997 132.2329992  66.7624990  69.4519997
 131.8879992  65.3304990  70.4919997 132.9879992  64.8494990  68.7059997
 131.9819992  64.6994990  68.2589997 133.3519992  63.8564990  69.0459997
 133.8779992  65.4854990  67.6839997 134.7939992  65.8314990  68.1839997
 133.5249992  65.5774990  66.4049997 134.3029992  65.9544990  65.7249997
 132.3489992  65.1124990  65.6539997 131.9389992  65.8734990  64.9569997
 131.4539992  64.9044990  66.2779997 132.7699992  63.9654990  64.7549997
 132.9899992  63.0774990  65.3849997 133.6069992  64.2094990  64.0659997
 131.6509992  63.5994990  63.7919997 131.2109992  64.4974990  63.3079997
 130.8399992  62.9914990  64.2459997 132.1169992  62.6024990  62.6709997
 132.5359992  61.7384990  63.2299997 132.8399992  63.1264990  62.0109997
 130.8699992  62.2874990  61.8219997 130.3719992  63.2374990  61.5319997
 130.1369992  61.6954990  62.4109997 131.2979992  61.5284990  60.5339997
 130.8589992  60.5204990  60.3729997 132.4059992  61.4594990  60.5499997
 131.1329992  62.3064990  59.1979997 131.7749992  63.2124990  59.1789997
 130.0839992  62.6224990  59.0089997 131.6369992  61.4364990  58.0969997
 131.5329992  61.8944990  57.0899997 131.1289992  60.4504990  58.1659997
 132.7289992  61.3504990  58.2769997   2.8589992  57.3824990  57.9779997
   1.7779992  57.5124990  58.1989997   3.0549992  56.2894990  58.0099997
   3.0209992  57.9124990  57.0149997   3.5169992  58.1734990  59.1119997
   4.6169992  58.0764990  58.9929997   3.2619992  59.2534990  59.1539997
   3.3229992  57.6794990  60.6039997   3.7799992  56.6874990  60.8079997
   3.7449992  58.4164990  61.3199997   1.8689992  57.5104990  60.9649997
   1.2919992  58.1874990  60.2999997   1.4979992  56.4654990  60.9069997
   1.4529992  57.8794990  62.4359997   0.5499992  57.2544990  62.6019997
   2.1869992  57.6604990  63.2409997   0.9659992  59.3964990  62.5119997
   0.5199992  59.6684990  61.5319997   0.0669992  59.4604990  63.1619997
   2.0569992  60.3784990  62.9409997   2.9709992  59.9504990  62.4779997
   1.7459992  61.3604990  62.5239997   2.2769992  60.5214990  64.4819997
   1.4259992  60.9304990  65.0669997   2.5119992  59.5084990  64.8729997
   3.5159992  61.3064990  64.9359997   3.4659992  62.3584990  64.5829997
   3.5999992  61.4804990  66.0299997   4.9429992  60.8514990  64.3859997
   4.9109992  60.9824990  63.2829997   5.7759992  61.4364990  64.8299997
   5.1129992  59.3744990  64.7209997   4.4179992  58.6554990  64.2349997
   6.0759992  59.1074990  64.2369997   5.2309992  58.9334990  66.2069997
   5.8879992  59.6554990  66.7369997   4.2499992  58.7274990  66.6859997
   6.0359992  57.6494990  66.3579997   5.9159992  57.0054990  65.4609997
   7.0889992  57.9804990  66.2279997   6.0659992  56.8484990  67.6429997
   6.9809992  56.2194990  67.5979997   6.0849992  57.6914990  68.3659997
   4.8469992  55.9504990  67.9209997   3.9309992  56.5354990  67.6899997
   4.8719992  55.0014990  67.3449997   4.8309992  55.5964990  69.3829997
   5.6779992  55.9764990  70.2019997   3.6439992  54.9674990  69.6469997
   3.4599992  54.4584990  70.9139997   2.6709992  53.6854990  71.0359997
   4.3719992  53.9634990  71.3089997   3.0329992  55.6034990  71.9429997
   3.8649992  56.3294990  72.0669997   2.7819992  54.8904990  73.2729997
   1.9959992  54.1124990  73.1679997   3.6799992  54.3384990  73.6219997
   2.2639992  55.6794990  74.2949997   2.9249992  55.8144990  75.6969997
   2.3489992  57.2214990  76.2319997   2.9069992  58.4354990  75.8569997
   2.4969992  59.2124990  76.5379997   4.0109992  58.4064990  75.9719997
   2.5009992  58.8874990  74.4289997   3.1829992  59.6644990  74.1169997
   2.6299992  58.0284990  73.7869997   1.0579992  59.3124990  74.0879997
   0.5839992  60.5664990  74.8279997   1.1289992  61.3574990  74.3359997
  -0.4850008  60.7124990  74.7759997   0.8599992  60.5724990  75.8719997
   1.0679992  59.6664990  72.5949997   1.5269992  60.6314990  72.4389997
   1.7569992  59.0014990  72.0939997   0.0769992  59.5914990  72.1729997
   0.1439992  58.1944990  74.3749997   0.4829992  57.8794990  75.3499997
   0.2359992  57.3764990  73.6759997  -0.8600008  58.5864990  74.3069997
   2.4899992  54.7054990  76.5819997   4.3449992  55.9644990  75.4929997
   1.8479992  56.2694990  71.5609997   1.8069992  57.2134990  70.6369997
   2.7579992  57.7124990  70.0819997   0.3439992  57.5394990  70.2799997
   0.3979992  58.3564990  69.5289997  -0.2730008  57.9084990  71.1269997
  -0.4270008  56.3404990  69.7929997  -1.4270008  56.7254990  69.5009997
  -0.4540008  55.6844990  70.6899997   0.1829992  55.6194990  68.6219997
  -0.1210008  54.5524990  68.5669997   1.2809992  55.6844990  68.7789997
  -0.1280008  56.2104990  67.2129997   0.3409992  57.2114990  67.1019997
  -1.2040008  56.1854990  66.9379997   0.5179992  55.4604990  66.0329997
   0.1879992  55.9434990  65.0879997   0.1309992  54.4194990  66.0569997
   2.1209992  55.5134990  66.1049997   2.5429992  54.9814990  66.9839997
   2.5029992  56.5524990  66.1909997   2.7089992  54.8824990  64.8199997
   3.7269992  55.3104990  64.6969997   2.1149992  55.2334990  63.9489997
   2.7489992  53.3904990  64.6659997   3.1329992  52.8704990  65.5559997
   2.5399992  52.6494990  63.5879997   2.7019992  51.5614990  63.5819997
   2.2069992  53.1524990  62.1849997   3.1829992  53.0754990  61.6599997
   1.9069992  54.2134990  62.0469997   1.1479992  52.2994990  61.4089997
   0.1399992  52.3184990  61.8769997   1.3419992  51.2054990  61.3989997
   0.8779992  52.7524990  59.9929997   0.2029992  53.6294990  60.0849997
   0.2469992  51.9694990  59.5199997   2.0929992  53.0714990  59.1489997
   2.9179992  52.3284990  59.1839997   2.3869992  54.1344990  59.2879997
   1.7689992  53.0864990  57.6089997   1.4259992  52.0814990  57.2819997
   2.6529992  53.4644990  57.0509997   0.6409992  54.1624990  57.2989997
   1.1239992  55.0814990  57.6959997  -0.3180008  54.0354990  57.8459997
   0.3289992  54.4334990  55.8059997  -0.0540008  53.5084990  55.3239997
   1.2889992  54.7024990  55.3169997  -0.6980008  55.4974990  55.5279997
  -1.6570008  55.0564990  55.8759997  -0.6340008  55.6604990  54.4309997
  -0.4820008  56.3654990  56.1869997   5.1509992  75.2784990  54.8329997
   4.3639992  75.9334990  55.2639997   4.8569992  74.7684990  53.8909997
   5.9929992  75.9554990  54.5769997   5.4779992  74.1674990  55.8139997
   6.2469992  73.4974990  55.3729997   5.8009992  74.5194990  56.8159997
   4.1529992  73.2884990  55.9719997   3.2539992  73.9194990  56.1449997
   4.0259992  72.6784990  55.0529997   4.3269992  72.3294990  57.1539997
   5.1619992  71.6044990  57.0409997   4.7069992  72.9694990  57.9779997
   3.0389992  71.6234990  57.7089997   2.4419992  71.2914990  56.8329997
   3.1319992  70.7294990  58.3619997   2.0949992  72.4784990  58.6259997
   1.9309992  73.3954990  58.0199997   1.1639992  71.9354990  58.8909997
   2.7679992  72.7394990  59.9789997   2.7279992  71.7584990  60.4989997
   3.8289992  73.0644990  59.9329997   2.1859992  73.9254990  60.7869997
   1.9669992  74.8024990  60.1409997   1.2079992  73.7364990  61.2779997
   3.1349992  74.4774990  61.9529997   4.1059992  74.6594990  61.4439997
   2.8269992  75.4834990  62.3099997   3.2769992  73.4164990  63.0129997
   3.6619992  72.4844990  62.5469997   4.0309992  73.7564990  63.7549997
   2.0289992  72.8564990  63.7049997   1.2889992  73.6804990  63.7959997
   1.5969992  72.2124990  62.9089997   2.2699992  72.1304990  65.0359997
   3.0729992  71.3774990  64.8839997   2.5379992  72.7614990  65.9099997
   1.0789992  71.2044990  65.6159997   0.0469992  71.6154990  65.6309997
   1.1449992  70.2524990  65.0469997   1.3889992  70.8384990  67.1189997
   1.4729992  71.7394990  67.7629997   0.5259992  70.2254990  67.4559997
   2.6849992  69.9944990  67.2969997   2.5149992  69.0074990  66.8159997
   3.6249992  70.3154990  66.7979997   2.9799992  70.0544990  68.7809997
   2.5849992  69.1644990  69.5489997   3.7259992  71.1024990  69.0409997
   3.9699992  71.3004990  70.4499997   3.0379992  71.0044990  70.9749997
   4.8959992  70.8014990  70.8079997   4.0609992  72.7424990  70.8319997
   4.9169992  73.2044990  70.2959997   4.3699992  72.8544990  72.3319997
   5.2389992  72.2404990  72.6469997   4.5629992  73.9254990  72.5549997
   3.2129992  72.5084990  73.0329997   3.0589992  72.9144990  74.4899997
   2.9899992  74.4814990  74.4169997   1.8749992  75.0544990  73.8009997
   2.2499992  75.6914990  72.9709997   1.1859992  74.2814990  73.3989997
   0.9599992  75.9514990  74.6939997   0.4419992  76.5114990  73.9299997
   0.2479992  75.4274990  75.3149997   1.6199992  76.7594990  75.7019997
   2.2519992  75.9294990  76.8639997   3.0169992  75.2314990  76.5569997
   2.6329992  76.5944990  77.6249997   1.3759992  75.4664990  77.2939997
   2.6699992  77.5314990  75.0199997   3.3219992  76.9104990  74.4239997
   2.2369992  78.1504990  74.2489997   3.1639992  78.2244990  75.6849997
   0.6129992  77.8074990  76.2139997  -0.2930008  77.8934990  75.6319997
   1.0739992  78.7184990  76.5649997   0.2239992  77.3754990  77.1249997
   1.7659992  72.3614990  74.9759997   4.2779992  72.5134990  75.2609997
   2.8939992  73.3844990  70.3849997   2.8709992  74.7284990  70.2759997
   3.7089992  75.5114990  70.6419997   1.4479992  75.1864990  69.7909997
   0.9109992  75.5884990  70.6769997   0.7989992  74.3624990  69.4249997
   1.5469992  76.3064990  68.7509997   2.3379992  77.0484990  68.9919997
   0.6239992  76.9214990  68.8109997   1.7699992  75.7964990  67.3619997
   1.0179992  75.0904990  66.9499997   2.7569992  75.3024990  67.2319997
   1.7609992  76.9874990  66.3759997   2.4979992  77.7824990  66.6189997
   0.7279992  77.3944990  66.4239997   1.8909992  76.5714990  64.9749997
   1.0319992  75.8874990  64.8049997   2.9209992  76.2294990  64.7359997
   1.6479992  77.7314990  64.0119997   2.6479992  78.0974990  63.6939997
   1.0889992  78.5214990  64.5569997   0.7079992  77.4424990  62.8049997
  -0.1400008  76.7684990  63.0499997   1.1969992  76.8204990  62.0259997
   0.1969992  78.6924990  62.2119997  -0.6940008  79.1144990  62.7009997
   0.6009992  79.3004990  61.0719997  -0.0290008  80.1744990  60.8509997
   1.7099992  78.9334990  60.0889997   2.1699992  78.0834990  60.6379997
   2.3729992  79.8084990  59.9189997   1.1629992  78.3754990  58.7029997
   1.9849992  77.9494990  58.0879997   0.7229992  79.2604990  58.1949997
   0.1229992  77.2724990  58.7549997  -0.7530008  77.4314990  59.4199997
   0.6309992  76.4324990  59.2739997  -0.3650008  76.8374990  57.3789997
   0.4969992  76.7724990  56.6819997  -0.9680008  77.6034990  56.8459997
  -1.2760008  75.5994990  57.3839997  -2.0000008  75.7434990  58.2139997
  -0.6680008  74.7244990  57.6979997  -1.8360008  75.2524990  56.0049997
  -2.5660008  76.0724990  55.8329997  -2.2360008  74.2194990  55.9279997
  -0.7540008  75.3284990  54.8789997   0.0979992  74.7934990  55.3499997
  -0.1870008  76.2454990  54.6119997  -1.2920008  74.8044990  53.5269997
  -1.8280008  73.8454990  53.6959997  -0.4390008  74.6554990  52.8309997
  -2.0050008  75.6174990  53.2739997  98.3699992 131.7164990  54.9569997
  98.8199992 130.7324990  55.2079997  98.6159992 131.9264990  53.8949997
  97.2669992 131.6054990  55.0239997  98.9539992 132.8444990  55.8479997
 100.0199992 133.0074990  55.5799997  98.3869992 133.7494990  55.5409997
  98.8249992 132.6644990  57.4149997  97.7699992 132.4784990  57.7089997
  99.3739992 131.7134990  57.5889997  99.3979992 133.8474990  58.1879997
 100.4909992 133.8934990  57.9939997  98.8849992 134.7514990  57.7969997
  99.1639992 133.8594990  59.7189997  99.1969992 132.8514990  60.1859997
  99.9549992 134.5174990  60.1379997  97.8229992 134.4154990  60.1889997
  97.8149992 135.4734990  59.8499997  97.0129992 133.9534990  59.5839997
  97.4619992 134.2014990  61.6379997  97.0649992 133.1784990  61.8119997
  98.4329992 134.1974990  62.1779997  96.4859992 135.2444990  62.2159997
  96.9459992 136.2484990  62.0919997  95.5199992 135.2594990  61.6679997
  96.1889992 134.9494990  63.7069997  95.6269992 133.9974990  63.8179997
  97.1479992 134.8354990  64.2569997  95.4549992 136.0324990  64.4749997
  96.0539992 136.9674990  64.4929997  94.5029992 136.2624990  63.9519997
  95.1879992 135.5734990  65.8699997  94.6009992 134.6464990  66.0479997
  96.1339992 135.3614990  66.4119997  94.3669992 136.4964990  66.6759997
  94.6479992 137.5264990  66.3699997  93.2749992 136.4194990  66.4829997
  94.6699992 136.4564990  68.2029997  95.7539992 136.6394990  68.3639997
  94.1049992 137.2324990  68.7609997  94.2499992 135.0094990  68.7049997
  93.1629992 134.8794990  68.5149997  94.7939992 134.1704990  68.2189997
  94.3229992 134.9914990  70.2949997  95.4119992 134.9084990  70.4969997
  94.0369992 135.9734990  70.7289997  93.5909992 133.8034990  70.9029997
  92.7019992 133.8984990  71.7179997  94.0929992 132.6954990  70.5179997
  93.6519992 131.4044990  70.9719997  92.9769992 131.4514990  71.8529997
  93.1469992 130.8904990  70.1269997  94.9379992 130.6564990  71.3309997
  94.5949992 129.6764990  71.7269997  95.6309992 131.3784990  72.5079997
  95.8379992 132.4154990  72.1669997  94.8609992 131.2904990  73.3039997
  96.8069992 130.7124990  73.0199997  97.8529992 131.6794990  73.7569997
  96.8409992 132.5614990  74.5379997  97.3079992 133.6034990  75.4589997
  98.1749992 133.1844990  76.0139997  97.7559992 134.4984990  74.9779997
  96.2349992 133.8664990  76.4549997  95.7599992 132.9194990  76.6629997
  96.6479992 134.2744990  77.3649997  95.2299992 134.8824990  76.0349997
  95.8679992 136.2364990  76.0129997  96.4569992 136.4644990  76.8889997
  96.6789992 136.1724990  75.3019997  95.1049992 136.9954990  75.9269997
  94.5609992 134.6614990  74.7189997  94.0839992 133.6934990  74.6899997
  93.8989992 135.5044990  74.5849997  95.3179992 134.6724990  73.9489997
  94.2319992 134.8064990  77.1269997  93.7679992 133.8434990  76.9729997
  93.5119992 135.5624990  76.8509997  94.7849992 134.7764990  78.0539997
  98.7709992 131.0404990  74.6049997  98.4089992 132.6504990  72.7449997
  95.7869992 130.5604990  70.2169997  95.5459992 129.6364990  69.3829997
  94.7119992 128.7464990  69.4009997  96.5069992 129.8434990  68.1159997
  96.3279992 129.1084990  67.3029997  97.5819992 129.8634990  68.3969997
  96.2179992 131.2424990  67.5329997  97.1609992 131.5764990  67.0489997
  96.1169992 131.9464990  68.3859997  95.0079992 131.3674990  66.5169997
  95.1999992 130.5934990  65.7429997  95.0249992 132.3664990  66.0319997
  93.6109992 131.1864990  67.1519997  93.5959992 131.8274990  68.0599997
  93.4069992 130.1424990  67.4739997  92.4909992 131.7624990  66.2919997
  92.7009992 132.8494990  66.2039997  91.6009992 131.6534990  66.9479997
  92.1939992 130.9834990  64.9969997  91.9079992 129.9494990  65.2889997
  93.1849992 130.8684990  64.5089997  91.1899992 131.6294990  64.0269997
  90.1629992 131.4074990  64.3889997  91.3309992 131.0664990  63.0799997
  91.3109992 133.1644990  64.0669997  91.0979992 133.6204990  65.0449997
  91.6579992 133.9434990  63.0829997  91.7839992 135.0334990  63.1559997
  91.9569992 133.4004990  61.7349997  91.0509992 132.8864990  61.3489997
  92.8319992 132.7254990  61.8449997  92.4599992 134.4864990  60.7379997
  93.1629992 135.0674990  61.3709997  91.5929992 135.1044990  60.4199997
  93.1819992 133.9274990  59.5609997  92.4169992 133.4084990  58.9429997
  94.0789992 133.2854990  59.6879997  93.7869992 135.0914990  58.7329997
  94.6029992 135.4704990  59.3849997  93.0239992 135.8634990  58.4939997
  94.5989992 134.5004990  57.5489997  95.5719992 134.0874990  57.8889997
  94.9819992 135.4144990  57.0459997  93.9419992 133.7294990  56.3819997
  93.6129992 132.8144990  56.9189997  94.6179992 133.4474990  55.5469997
  92.6329992 134.3954990  55.9629997  92.0139992 134.2664990  56.8769997
  92.0959992 133.8244990  55.1759997  92.6079992 135.8554990  55.4689997
  91.6139992 136.2544990  55.7639997  92.7419992 135.9594990  54.3709997
  93.4129992 136.3484990  56.0549997  23.0479992 108.0934990  57.0539997
  23.6749992 108.4034990  56.1909997  22.0439992 108.5534990  56.9369997
  22.9919992 106.9844990  57.0139997  23.8989992 108.4854990  58.2969997
  23.8969992 107.6744990  59.0549997  24.9659992 108.6644990  58.0429997
  23.5339992 109.8724990  58.9989997  24.0729992 109.9754990  59.9649997
  23.7439992 110.7354990  58.3329997  21.9729992 110.0074990  59.3939997
  21.3889992 110.1454990  58.4589997  21.6939992 108.9764990  59.6969997
  21.8059992 111.0774990  60.4819997  22.3529992 112.0184990  60.2559997
  20.7829992 111.4154990  60.2099997  21.9989992 110.4884990  61.9499997
  21.0659992 109.9234990  62.1609997  22.9109992 109.8544990  61.9909997
  21.9869992 111.6404990  62.9539997  22.6439992 112.4474990  62.5639997
  21.0589992 112.2314990  63.1059997  22.3289992 111.2274990  64.3729997
  23.3739992 110.8524990  64.3689997  22.2269992 112.0924990  65.0629997
  21.6019992 109.9834990  64.9329997  21.9409992 108.9864990  64.5779997
  21.8519992 110.0414990  66.0139997  20.0769992 109.9134990  64.8469997
  19.8479992 110.2334990  63.8079997  19.7209992 108.8704990  64.9929997
  19.3909992 110.7544990  65.8459997  19.7849992 111.7804990  65.6839997
  18.3059992 110.7774990  65.6079997  19.4389992 110.2724990  67.2859997
  19.0579992 109.2434990  67.4589997  20.5459992 110.2144990  67.3689997
  19.0029992 111.2564990  68.3309997  19.4249992 112.2274990  67.9929997
  17.8929992 111.2884990  68.3009997  19.4759992 110.8704990  69.7539997
  19.1439992 109.8234990  69.9249997  20.5869992 110.8494990  69.7789997
  18.9429992 111.7494990  70.9429997  19.3449992 112.7834990  70.8889997
  17.8449992 111.9134990  70.9009997  19.2259992 111.1824990  72.2639997
  19.5799992 111.8794990  73.1909997  18.9949992 109.8894990  72.2669997
  19.0749992 109.2514990  73.6159997  19.8099992 109.6824990  74.3299997
  18.0429992 109.3424990  74.0169997  19.5339992 107.7524990  73.4529997
  18.6559992 107.2254990  73.0229997  19.8889992 107.0634990  74.8619997
  19.3129992 107.5594990  75.6719997  19.5329992 106.0154990  74.7559997
  21.3349992 107.1544990  75.0159997  21.9179992 107.3264990  76.4829997
  23.2009992 108.1804990  76.0909997  24.1999992 107.6864990  75.2419997
  25.1719992 107.9994990  75.6799997  24.2889992 106.5814990  75.3169997
  24.1529992 108.2304990  73.7789997  25.1329992 107.9964990  73.3909997
  23.4509992 107.6454990  73.2029997  23.9939992 109.7214990  73.4819997
  24.7349992 110.6214990  74.4349997  25.7919992 110.4164990  74.3439997
  24.6269992 111.6364990  74.0849997  24.5049992 110.4824990  75.4809997
  24.4779992 109.9684990  72.0889997  25.3919992 109.3934990  72.0449997
  23.7259992 109.5644990  71.4279997  24.6929992 110.9954990  71.8329997
  22.5339992 110.0314990  73.5639997  22.1129992 109.6094990  74.4649997
  21.9569992 109.4314990  72.8769997  22.3909992 111.0934990  73.4299997
  21.0189992 108.1184990  77.3869997  22.3939992 105.9944990  76.9059997
  20.6719992 107.7014990  72.5919997  21.0289992 106.4744990  72.0909997
  20.4949992 105.3834990  72.2409997  22.1999992 106.7154990  71.1469997
  23.1259992 106.3994990  71.6719997  22.1019992 107.7144990  70.6709997
  21.9809992 105.7624990  69.9159997  21.6439992 104.7614990  70.2629997
  22.9049992 105.6464990  69.3089997  20.8009992 106.2794990  68.9739997
  21.1809992 107.2224990  68.5259997  19.8629992 106.4624990  69.5399997
  20.4919992 105.3834990  67.8179997  19.8059992 104.5584990  68.1069997
  21.4469992 104.8634990  67.5859997  19.8179992 105.9644990  66.5709997
  20.5149992 106.7204990  66.1519997  18.8799992 106.4044990  66.9729997
  19.4959992 104.8304990  65.4869997  18.6689992 104.1894990  65.8589997
  20.3969992 104.2274990  65.2469997  18.9519992 105.3674990  64.0579997
  17.9939992 105.9154990  64.1819997  18.7339992 104.4064990  63.5449997
  19.8569992 106.3464990  63.2709997  19.9499992 107.3874990  63.6139997
  20.6269992 106.1984990  62.1419997  21.1629992 107.0694990  61.7359997
  20.8109992 104.8764990  61.3929997  20.7449992 104.0014990  62.0739997
  21.8929992 104.8434990  61.1429997  19.9729992 104.6654990  60.1999997
  18.9329992 104.4554990  60.5299997  20.2829992 103.6674990  59.8229997
  20.1149992 105.5924990  58.9999997  21.1829992 105.6334990  58.6969997
  19.6669992 106.5674990  59.2899997  19.2769992 105.1204990  57.8109997
  19.1479992 106.0004990  57.1449997  18.2469992 104.8534990  58.1299997
  19.9359992 103.9614990  56.9889997  19.2459992 103.6494990  56.1759997
  20.1299992 103.0644990  57.6149997  21.2689992 104.2464990  56.3159997
  21.4259992 103.2554990  55.8399997  22.0379992 104.5504990  57.0579997
  21.1089992 105.2964990  55.1899997  20.7969992 106.2824990  55.5979997
  20.2009992 104.9634990  54.6429997  22.4309992 105.4094990  54.3349997
  23.3439992 105.8064990  54.8269997  22.1439992 106.0264990  53.4559997
  22.6149992 104.4334990  53.8369997  88.3969992 140.4944990  54.5479997
  87.6809992 140.6114990  55.3899997  88.1239992 139.5224990  54.0819997
  88.3699992 141.3984990  53.9039997  89.7309992 140.4234990  55.4089997
  90.4399992 139.8914990  54.7379997  90.1179992 141.4644990  55.3769997
  89.7019992 139.6794990  56.7299997  89.2879992 138.6614990  56.5679997
  90.7619992 139.6594990  57.0619997  88.7549992 140.2984990  57.8499997
  88.8839992 141.4004990  57.9029997  87.7589992 140.0944990  57.4029997
  88.9189992 139.5934990  59.2099997  88.3429992 140.0844990  60.0229997
  88.5359992 138.5524990  59.2729997  90.3679992 139.4914990  59.8049997
  91.0049992 138.7624990  59.2609997  90.7429992 140.5314990  59.6999997
  90.4059992 139.1624990  61.3069997  91.4329992 139.2034990  61.7289997
  89.8739992 140.0004990  61.8049997  89.9029992 137.8124990  61.6679997
  88.8079992 137.7314990  61.4939997  90.4509992 137.0344990  61.0949997
  90.1229992 137.4714990  63.1509997  90.2499992 136.3714990  63.2379997
  90.9909992 138.0234990  63.5699997  88.8859992 137.9134990  63.8579997
  88.6879992 138.9924990  63.6779997  88.0259992 137.3524990  63.4359997
  88.9319992 137.7374990  65.3649997  87.9069992 137.6104990  65.7739997
  89.6369992 136.9154990  65.6129997  89.6329992 139.0244990  65.8929997
  90.6289992 139.2454990  65.4529997  88.9819992 139.9134990  65.7549997
  89.8809992 139.0394990  67.3859997  89.1179992 138.3984990  67.8769997
  90.8849992 138.6274990  67.6199997  89.7809992 140.4654990  68.0059997
  90.5739992 141.1014990  67.5589997  88.7649992 140.8964990  67.8789997
  90.0999992 140.4094990  69.5269997  89.8219992 139.4074990  69.9169997
  91.1859992 140.5614990  69.6999997  89.2659992 141.4414990  70.3769997
  89.4519992 142.6304990  70.4579997  88.3329992 140.7314990  71.0279997
  87.4059992 141.4864990  71.8319997  87.8399992 141.8834990  72.7749997
  86.9509992 142.3374990  71.2799997  86.2409992 140.5224990  72.2419997
  85.4029992 141.1424990  72.6269997  86.7009992 139.4934990  73.3099997
  87.1679992 140.1524990  74.0739997  85.7539992 139.1354990  73.7669997
  87.5039992 138.4024990  72.7999997  88.9359992 138.2874990  73.2839997
  88.6459992 138.0494990  74.8459997  88.2969992 136.7154990  75.2729997
  87.2209992 136.6624990  75.5449997  88.5069992 135.9604990  74.4859997
  89.0879992 136.2444990  76.6149997  88.7369992 136.8664990  77.4249997
  88.7759992 135.2974990  77.0309997  90.5799992 136.1854990  76.4899997
  91.0149992 135.5854990  77.7769997  90.5959992 134.5924990  77.8479997
  92.0739992 135.3784990  77.8339997  90.7709992 136.1814990  78.6439997
  90.9299992 135.3114990  75.3249997  90.3949992 134.4014990  75.5569997
  90.6499992 135.6814990  74.3499997  92.0009992 135.1844990  75.2719997
  91.1919992 137.4894990  76.2649997  90.9819992 138.1484990  77.0939997
  90.8909992 137.9254990  75.3239997  92.2559992 137.3074990  76.2309997
  89.5049992 137.0614990  72.7039997  89.7299992 139.5234990  73.0919997
  85.7229992 139.6594990  71.2069997  85.1529992 140.2284990  70.2229997
  84.8439992 141.4364990  70.0899997  84.8129992 139.1844990  69.1479997
  83.7309992 139.1394990  68.8969997  85.1119992 138.1824990  69.5239997
  85.5969992 139.6564990  67.9049997  86.6559992 139.5724990  68.2289997
  85.5139992 140.7454990  67.6999997  85.2709992 138.9444990  66.5929997
  85.5839992 137.8874990  66.7279997  85.8879992 139.4084990  65.7939997
  83.7829992 139.0684990  66.1609997  83.3309992 140.0444990  66.4369997
  83.2239992 138.2364990  66.6399997  83.7949992 138.8534990  64.6049997
  84.3829992 139.6204990  64.0569997  82.7269992 138.9344990  64.3099997
  84.4749992 137.5404990  64.1259997  84.1189992 136.6654990  64.7099997
  85.5609992 137.4704990  64.3539997  84.4139992 137.2184990  62.5729997
  83.3169992 137.2424990  62.4029997  84.9269992 136.3344990  62.1379997
  85.0699992 138.3004990  61.7499997  86.0529992 138.6404990  62.1069997
  84.6459992 138.8394990  60.5839997  85.2259992 139.6384990  60.0979997
  83.4029992 138.4364990  59.8359997  82.5579992 139.1574990  59.8609997
  83.0729992 137.4544990  60.2379997  83.8199992 138.2744990  58.3529997
  84.3979992 139.1744990  58.0519997  82.9349992 138.2594990  57.6819997
  84.5709992 136.9254990  57.9849997  83.7259992 136.2194990  57.8459997
  85.2459992 136.5284990  58.7729997  85.1659992 136.7814990  56.5929997
  86.0729992 137.4214990  56.5519997  84.4649992 137.2034990  55.8429997
  85.5019992 135.3814990  56.2809997  85.8729992 135.2494990  55.2419997
  84.5639992 134.7964990  56.3919997  86.5079992 134.6364990  57.2009997
  86.6669992 133.6514990  56.7119997  86.0739992 134.3854990  58.1929997
  87.8839992 135.4304990  57.3099997  87.6979992 136.4074990  57.8049997
  88.1599992 135.6424990  56.2539997  88.8789992 134.6174990  58.0609997
  89.8489992 135.1454990  58.1799997  89.0379992 133.6534990  57.5319997
  88.4529992 134.4934990  59.0789997  79.0159992   2.6344990  58.3579997
  78.2919992   1.8404990  58.0739997  79.2319992   3.2504990  57.4589997
  78.5169992   3.3074990  59.0879997  80.3039992   2.0014990  58.9449997
  80.1029992   1.2524990  59.7399997  80.6449992   1.2334990  58.2179997
  81.3159992   3.0164990  59.4399997  81.5349992   3.6214990  58.5339997
  80.7129992   3.6534990  60.1219997  82.6319992   2.4204990  59.8629997
  83.0569992   1.8184990  59.0319997  83.3649992   3.2254990  60.0869997
  82.5219992   1.4764990  61.1539997  82.0129992   0.6054990  60.6889997
  83.4749992   0.9714990  61.4209997  81.7159992   2.1914990  62.2229997
  80.7279992   2.5244990  61.8389997  81.6129992   1.4394990  63.0339997
  82.2879992   3.4304990  62.9439997  83.2919992   3.1324990  63.3149997
  82.4719992   4.2814990  62.2539997  81.3199992   4.1154990  63.8689997
  81.7609992   5.0654990  64.2379997  80.4439992   4.4564990  63.2769997
  80.8089992   3.2804990  65.0289997  80.0799992   2.5464990  64.6239997
  81.6499992   2.6394990  65.3699997  80.2699992   3.9994990  66.1769997
  81.1029992   4.6304990  66.5529997  79.3939992   4.5954990  65.8409997
  79.6619992   3.1254990  67.2729997  78.8549992   2.4854990  66.8569997
  80.4409992   2.4454990  67.6769997  79.1669992   4.0704990  68.4209997
  80.0639992   4.3094990  69.0309997  78.8569992   5.1094990  68.1799997
  78.0669992   3.4024990  69.1819997  77.7279992   4.0724990  70.0009997
  77.2359992   3.2654990  68.4589997  78.2339992   2.0534990  69.7929997
  78.3559992   1.2984990  68.9859997  79.1749992   1.9084990  70.3659997
  77.0179992   1.4954990  70.6789997  76.9559992   1.9994990  71.6669997
  76.0099992   1.5394990  70.2129997  77.3669992   0.0114990  70.8429997
  77.1079992  -0.8395010  69.9949997  77.9719992  -0.2505010  71.9819997
  78.1259992  -1.7515010  72.1529997  77.2319992  -2.3345010  72.4609997
  78.4509992  -2.2655010  71.2229997  79.2229992  -1.9785010  73.2599997
  79.1489992  -3.0405010  73.5759997  78.9239992  -1.1785010  74.6139997
  79.0809992  -0.0965010  74.4159997  77.8859992  -1.3625010  74.9649997
  79.7419992  -1.6335010  75.7029997  81.1839992  -1.0595010  75.8849997
  81.1959992   0.3634990  75.2409997  82.4819992   0.9304990  74.9479997
  83.2819992   0.6334990  75.6599997  82.6869992   0.5734990  73.9159997
  82.3909992   2.4554990  74.9529997  82.1689992   2.6884990  75.9839997
  83.3719992   2.8744990  74.7879997  81.3449992   3.0784990  74.0699997
  81.6019992   2.6554990  72.6579997  81.5479992   1.5784990  72.5909997
  80.9149992   3.2324990  72.0569997  82.5469992   3.0914990  72.3719997
  79.8719992   2.7904990  74.5059997  79.8599992   1.7124990  74.5619997
  79.7659992   3.2494990  75.4769997  79.2169992   3.2544990  73.7829997
  81.4849992   4.6094990  74.1569997  82.4299992   5.0354990  73.8559997
  81.3769992   4.9084990  75.1899997  80.8079992   5.0234990  73.4249997
  81.4169992  -0.8355010  77.2989997  82.1449992  -1.8625010  75.0529997
  80.4879992  -1.6445010  72.7299997  81.0079992  -2.3405010  71.8009997
  80.7299992  -3.5445010  71.5649997  82.1919992  -1.4815010  71.2369997
  83.0649992  -1.4375010  71.9229997  81.7499992  -0.4755010  71.0749997
  82.5049992  -2.1935010  69.9239997  81.6479992  -2.2255010  69.2179997
  82.7719992  -3.2445010  70.1629997  83.7419992  -1.5425010  69.1809997
  84.0429992  -2.1295010  68.2869997  84.6169992  -1.5615010  69.8649997
  83.6099992  -0.2005010  68.5879997  84.5659992  -0.0165010  68.0529997
  83.4869992   0.4824990  69.4559997  82.3629992  -0.1285010  67.7639997
  82.4899992   0.9124990  67.3969997  81.5199992  -0.0455010  68.4829997
  82.2099992  -1.2755010  66.6859997  81.9269992  -2.2115010  67.2139997
  83.2309992  -1.5795010  66.3699997  81.1859992  -1.0165010  65.5729997
  81.1219992  -1.9025010  64.9059997  81.5669992  -0.1295010  65.0249997
  79.8139992  -0.5945010  66.0869997  79.8939992   0.3224990  66.6899997
  78.6279992  -1.1145010  66.0299997  77.8009992  -0.5405010  66.4739997
  78.1559992  -2.3935010  65.3829997  77.3519992  -2.8195010  66.0199997
  78.9769992  -3.1355010  65.2859997  77.5739992  -1.9755010  64.0459997
  76.6839992  -1.3185010  64.1529997  77.3159992  -2.9745010  63.6329997
  78.4849992  -1.2085010  62.9839997  79.4819992  -1.6855010  62.8729997
  78.8569992  -0.2805010  63.4699997  77.8139992  -0.9795010  61.6119997
  78.2519992  -0.1685010  60.9919997  76.7649992  -0.6745010  61.8119997
  77.6879992  -2.1775010  60.6239997  77.1599992  -1.8385010  59.7069997
  76.9789992  -2.8905010  61.0959997  78.9889992  -2.8715010  60.3809997
  78.7979992  -3.7155010  59.6849997  79.5019992  -3.3285010  61.2549997
  80.0619992  -2.0375010  59.5329997  80.3379992  -1.1405010  60.1269997
  79.3529992  -1.5865010  58.8059997  81.1379992  -2.8815010  58.9459997
  81.9939992  -2.3215010  58.5109997  80.7209992  -3.5365010  58.1509997
  81.5779992  -3.4855010  59.7679997 101.7719992  15.1994990  58.3259997
 100.9509992  14.8464990  58.9859997 102.2779992  14.2464990  58.0599997
 101.2239992  15.6544990  57.4739997 102.5419992  16.1884990  59.2149997
 103.4569992  16.5804990  58.7209997 102.0229992  17.1334990  59.4819997
 103.0249992  15.4824990  60.4609997 103.6339992  14.5804990  60.2369997
 103.6319992  16.1544990  61.1039997 101.8419992  14.9274990  61.3619997
 101.2139992  14.2594990  60.7349997 102.2569992  14.3864990  62.2389997
 101.0099992  15.9584990  62.0889997 101.7009992  16.6684990  62.5909997
 100.3989992  16.5274990  61.3569997 100.1309992  15.5034990  63.2459997
  99.3569992  16.2504990  63.5249997  99.7589992  14.4844990  63.0049997
 100.8229992  15.3394990  64.6249997 101.7219992  14.6954990  64.5199997
 101.1589992  16.3754990  64.8429997  99.9719992  14.7294990  65.6969997
  99.5879992  13.7274990  65.4099997 100.5289992  14.6754990  66.6569997
  98.6969992  15.5984990  66.0579997  99.0419992  16.5784990  66.4509997
  98.1999992  15.7964990  65.0849997  97.5579992  14.8704990  66.8019997
  96.6459992  14.9864990  66.1789997  97.8229992  13.7974990  66.6909997
  97.3149992  15.2464990  68.2809997  97.1239992  16.3364990  68.3769997
  96.3799992  14.8094990  68.6909997  98.3459992  14.7624990  69.3979997
  98.6069992  13.6994990  69.2049997  99.2759992  15.3494990  69.2379997
  97.8649992  14.8794990  70.8749997  96.7729992  14.7084990  70.9849997
  98.2639992  14.0064990  71.4339997  98.3409992  16.2084990  71.5789997
  99.4149992  16.3814990  71.3539997  97.7969992  17.0164990  71.0449997
  98.0819992  16.4274990  73.0459997  98.4769992  17.4064990  73.3919997
  96.9879992  16.4404990  73.2389997  98.6649992  15.3224990  73.9579997
  98.3959992  15.0394990  75.1249997  99.6609992  14.7564990  73.2699997
 100.1639992  13.5054990  73.8609997  99.5689992  13.1384990  74.7249997
 100.1589992  12.8254990  72.9819997 101.6809992  13.7104990  74.2689997
 102.2319992  12.7614990  74.4459997 101.7689992  14.5144990  75.6099997
 101.0079992  14.1834990  76.3489997 102.7869992  14.5204990  76.0539997
 101.4169992  15.8604990  75.2659997 101.4609992  16.9184990  76.4729997
 102.6169992  17.9224990  76.0889997 103.8479992  17.3394990  75.6469997
 104.7679992  17.7774990  76.0909997 104.0879992  16.3234990  76.0279997
 103.9629992  17.2704990  74.1069997 104.7609992  16.6034990  73.8189997
 103.0549992  17.0154990  73.5799997 104.2019992  18.6104990  73.3269997
 103.1209992  19.6084990  73.6999997 102.2119992  19.3224990  73.1919997
 102.8279992  19.6014990  74.7389997 103.3949992  20.5844990  73.3269997
 105.5219992  19.2804990  73.7369997 105.4699992  19.2834990  74.8149997
 106.3479992  18.6524990  73.4379997 105.6609992  20.3094990  73.4409997
 104.2759992  18.3864990  71.8289997 104.8209992  17.4594990  71.7299997
 104.8209992  19.2334990  71.4379997 103.2619992  18.3784990  71.4579997
 100.2239992  17.7374990  76.5209997 101.7759992  16.2434990  77.7759997
 102.4399992  14.4654990  73.3049997 102.5299992  13.9674990  72.0389997
 102.1429992  12.8364990  71.7859997 103.0539992  14.9834990  71.0679997
 102.7989992  15.9714990  71.5079997 102.4999992  14.9304990  70.1059997
 104.5739992  14.7674990  70.8819997 105.0569992  14.6574990  71.8759997
 105.0179992  15.5824990  70.2709997 104.9429992  13.4374990  70.0559997
 104.6259992  12.5144990  70.5889997 106.0519992  13.3904990  70.0949997
 104.5079992  13.4004990  68.5659997 104.8969992  14.3844990  68.2289997
 103.4319992  13.1524990  68.4489997 105.1139992  12.2794990  67.7719997
 104.7979992  11.3274990  68.2499997 106.2219992  12.3554990  67.8059997
 104.4669992  12.2604990  66.3609997 103.3739992  12.0784990  66.4439997
 104.9299992  11.4884990  65.7099997 104.6949992  13.5864990  65.5309997
 104.1349992  14.4134990  66.0189997 104.2119992  13.3964990  64.5489997
 106.1449992  13.9284990  65.2669997 106.8029992  13.0694990  65.0699997
 106.6469992  15.1694990  65.4159997 107.7209992  15.3114990  65.2249997
 105.9909992  16.4624990  65.8229997 106.6319992  17.1524990  66.4119997
 105.0939992  16.3364990  66.4679997 105.3779992  17.3944990  64.6849997
 105.4659992  18.3954990  65.1579997 104.3679992  17.1084990  64.3219997
 106.2409992  17.2264990  63.3849997 105.8759992  16.2314990  63.0519997
 107.3249992  17.3444990  63.5959997 105.7619992  18.2844990  62.3849997
 105.5839992  19.2514990  62.9009997 104.7439992  17.9434990  62.0979997
 106.6989992  18.4264990  61.2349997 106.8659992  17.3624990  60.9659997
 107.5849992  18.9054990  61.7049997 106.1639992  19.1634990  60.0019997
 106.1339992  20.2714990  60.0849997 105.1329992  18.7644990  59.8929997
 106.8539992  18.8244990  58.6629997 106.9989992  17.7234990  58.6269997
 107.9189992  19.1414990  58.6609997 106.2159992  19.3054990  57.3289997
 105.3179992  18.7424990  56.9949997 106.9759992  19.2994990  56.5179997
 105.8259992  20.3274990  57.5189997  62.7429992 137.8464990  53.4999997
  62.2959992 138.2584990  52.5699997  63.0149992 136.7784990  53.3569997
  63.5799992 138.4954990  53.8359997  61.6579992 137.9994990  54.6259997
  60.6329992 137.8054990  54.2439997  61.8389992 137.1584990  55.3289997
  61.6709992 139.2084990  55.5609997  61.5059992 140.0884990  54.9029997
  60.8199992 139.0984990  56.2669997  63.0469992 139.4354990  56.1809997
  63.2939992 138.4994990  56.7269997  63.8119992 139.6654990  55.4089997
  62.9859992 140.6314990  57.1789997  62.5509992 141.4814990  56.6119997
  62.3439992 140.3754990  58.0489997  64.3969992 141.1384990  57.7339997
  65.0059992 141.3974990  56.8419997  64.2649992 141.9944990  58.4299997
  65.2159992 139.9294990  58.3459997  65.1439992 139.0044990  57.7349997
  66.2669992 140.2854990  58.4079997  64.6579992 139.4894990  59.7189997
  63.5749992 139.3304990  59.5309997  65.0589992 138.4784990  59.9479997
  64.7949992 140.4904990  60.8499997  65.8829992 140.6474990  61.0069997
  64.3999992 141.4494990  60.4519997  64.0979992 139.9684990  62.1529997
  63.0749992 139.5614990  62.0089997  64.6979992 139.0844990  62.4569997
  64.0679992 141.0524990  63.2269997  65.0469992 141.5384990  63.4239997
  63.2789992 141.7364990  62.8489997  63.5229992 140.5804990  64.5389997
  62.8129992 139.7314990  64.4369997  64.3799992 140.1864990  65.1259997
  62.9679992 141.7864990  65.3459997  63.8209992 142.4874990  65.4729997
  62.2719992 142.3024990  64.6499997  62.2499992 141.3884990  66.6629997
  62.2539992 142.2344990  67.3829997  61.2089992 141.2244990  66.3089997
  62.6919992 140.1034990  67.4799997  62.5799992 139.2004990  66.8429997
  63.7589992 140.2974990  67.7239997  61.8749992 140.1214990  68.7749997
  60.6779992 140.2484990  68.8399997  62.7249992 140.0894990  69.7589997
  62.2269992 140.0124990  71.0769997  62.1359992 141.0554990  71.4479997
  61.2099992 139.5664990  71.1269997  63.2179992 139.2874990  72.0609997
  62.6529992 139.2384990  73.0169997  64.4999992 140.1214990  72.2929997
  64.9959992 140.2824990  71.3119997  64.1169992 141.1584990  72.4109997
  65.3139992 139.6104990  73.3029997  65.7569992 140.3764990  74.5379997
  66.1049992 139.2844990  75.6559997  65.0259992 138.4174990  76.1279997
  65.3479992 138.0844990  77.1379997  64.0839992 139.0054990  76.1769997
  64.7859992 137.2354990  75.2139997  63.7989992 136.8134990  75.3289997
  64.7519992 137.6614990  74.2219997  65.8209992 136.1264990  75.1259997
  66.2019992 135.6394990  76.5009997  65.2589992 135.4084990  76.9719997
  66.9159992 134.8294990  76.4899997  66.6419992 136.4344990  77.0849997
  65.2189992 134.9514990  74.3379997  64.2859992 134.6274990  74.7769997
  65.0589992 135.1854990  73.2959997  65.9959992 134.2044990  74.4049997
  67.0319992 136.6104990  74.3619997  67.4639992 137.2924990  75.0789997
  66.6329992 137.1274990  73.5019997  67.7429992 135.8034990  74.2569997
  67.0239992 141.0424990  74.2529997  64.6169992 141.2014990  75.0529997
  63.5729992 137.9904990  71.5699997  62.8159992 136.9654990  71.9969997
  61.9389992 136.9964990  72.8239997  63.3619992 135.7254990  71.2539997
  62.9599992 134.8534990  71.8109997  64.4659992 135.8544990  71.2409997
  62.8769992 135.7114990  69.7769997  61.8899992 136.2184990  69.8319997
  62.7689992 134.6564990  69.4439997  63.7689992 136.4904990  68.8089997
  63.9439992 137.5634990  69.0389997  63.2869992 136.4724990  67.8069997
  65.1139992 135.7774990  68.3609997  64.8849992 134.7164990  68.1269997
  65.7999992 135.9274990  69.2219997  65.8529992 136.5724990  67.2269997
  66.9249992 136.2824990  67.2709997  65.6659992 137.6614990  67.3479997
  65.4309992 136.2484990  65.7309997  64.3269992 136.1554990  65.6529997
  65.8679992 135.2694990  65.4399997  65.8069992 137.3604990  64.7259997
  65.3879992 138.2954990  65.1529997  65.4059992 137.1984990  63.7019997
  67.2879992 137.5034990  64.6549997  67.6689992 138.3594990  65.2319997
  68.0679992 136.7384990  63.9809997  69.1579992 136.8784990  63.9479997
  67.6719992 135.5934990  63.0999997  66.5889992 135.3464990  63.0949997
  68.2249992 134.7524990  63.5699997  68.2639992 135.8744990  61.6849997
  68.4139992 134.9534990  61.0809997  69.2369992 136.4094990  61.7099997
  67.3589992 136.8694990  60.8539997  67.8909992 137.8074990  60.5869997
  66.4979992 137.1604990  61.4919997  66.7349992 136.2254990  59.6289997
  66.1159992 136.9474990  59.0539997  66.1279992 135.3224990  59.8529997
  67.7579992 135.7674990  58.4679997  68.3939992 134.9694990  58.9059997
  68.4169992 136.6554990  58.3609997  67.1649992 135.4024990  57.0679997
  66.4559992 134.5874990  57.3239997  67.9639992 134.9984990  56.4099997
  66.5829992 136.5724990  56.3169997  67.2089992 136.6814990  55.4059997
  66.7039992 137.4684990  56.9629997  65.1239992 136.4244990  56.0139997
  64.7789992 137.1954990  55.2929997  64.4669992 136.6154990  56.8899997
  64.8829992 135.4204990  55.6029997 118.3849992  34.3264990  54.5289997
 119.0789992  33.6394990  55.0589997 119.0799992  34.8484990  53.8359997
 117.6049992  33.6934990  54.0549997 117.8479992  35.2524990  55.5989997
 117.0329992  35.8574990  55.1489997 117.3869992  34.6734990  56.4269997
 118.8879992  36.3204990  56.1399997 119.4629992  36.7304990  55.2829997
 118.3149992  37.1494990  56.6079997 119.9399992  35.7384990  57.1529997
 119.3469992  34.9494990  57.6619997 120.5709992  35.0664990  56.5319997
 120.6159992  36.8544990  57.9679997 121.4019992  37.3864990  57.3899997
 119.7769992  37.4774990  58.3469997 121.4189992  36.2584990  59.1329997
 120.7719992  35.4524990  59.5409997 122.3329992  35.7454990  58.7639997
 121.7939992  37.4104990  60.0569997 122.1389992  38.1854990  59.3389997
 120.9329992  37.8604990  60.5949997 122.9079992  37.0934990  61.0219997
 122.9289992  36.0474990  61.3969997 123.8909992  37.1864990  60.5129997
 122.8999992  38.0274990  62.2139997 123.2029992  39.0294990  61.8419997
 121.8699992  38.1564990  62.6079997 123.8119992  37.6574990  63.4529997
 124.8099992  37.3364990  63.0869997 123.8959992  38.6414990  63.9619997
 123.2359992  36.5744990  64.3899997 122.1859992  36.9264990  64.4809997
 123.2379992  35.5484990  63.9629997 123.7279992  36.6254990  65.7969997
 124.6769992  36.0714990  65.9579997 124.0059992  37.6614990  66.0869997
 122.6139992  36.1544990  66.7869997 121.7019992  36.7784990  66.6729997
 122.2419992  35.1624990  66.4509997 123.0319992  36.0814990  68.1719997
 122.2859992  35.5614990  68.8099997 123.9539992  35.4684990  68.2559997
 123.3329992  37.4954990  68.8229997 123.9779992  37.4134990  69.7229997
 123.8509992  38.0404990  68.0049997 122.0339992  38.0124990  69.2769997
 121.4929992  38.9444990  68.7239997 121.6999992  37.3524990  70.3319997
 120.5769992  37.8414990  71.1159997 120.5799992  37.3384990  72.1059997
 120.6629992  38.9354990  71.2929997 119.2439992  37.3774990  70.4079997
 119.0109992  38.1224990  69.6179997 118.0449992  37.3464990  71.3889997
 117.9019992  38.3604990  71.8189997 117.1629992  37.1014990  70.7599997
 118.2179992  36.3934990  72.4239997 117.0689992  35.9674990  73.4459997
 117.7609992  36.2164990  74.8759997 118.6709992  37.3004990  74.9699997
 119.4499992  37.2704990  74.1789997 118.1279992  38.2664990  75.0479997
 119.5189992  37.0374990  76.2659997 120.2009992  37.8744990  76.2879997
 118.7309992  37.0804990  77.0029997 120.3999992  35.7314990  76.3849997
 119.5229992  34.5114990  76.2079997 118.7489992  34.5834990  76.9579997
 119.1069992  34.5004990  75.2119997 120.1129992  33.6284990  76.4049997
 121.5139992  35.7374990  75.3889997 122.0969992  36.6374990  75.5129997
 122.1379992  34.8734990  75.5559997 121.1879992  35.7074990  74.3589997
 120.9309992  35.6184990  77.7869997 121.6219992  34.7934990  77.8799997
 120.1549992  35.4174990  78.5099997 121.3659992  36.5444990  78.1319997
 115.9149992  36.8694990  73.4739997 116.9169992  34.4874990  73.2459997
 119.4329992  36.0284990  69.8769997 118.7409992  35.7754990  68.7799997
 118.1079992  36.5624990  68.1619997 118.8319992  34.2834990  68.5619997
 118.4089992  33.8374990  69.4869997 119.8539992  33.8484990  68.5529997
 117.9309992  33.8894990  67.4429997 118.3759992  34.3354990  66.5279997
 116.8809992  34.2424990  67.5219997 118.0689992  32.3364990  67.1529997
 117.4949992  31.9184990  68.0079997 119.1369992  32.0304990  67.1659997
 117.5719992  31.9024990  65.7979997 116.5209992  32.2604990  65.7629997
 117.4719992  30.8014990  65.6939997 118.2469992  32.4934990  64.5639997
 118.5139992  33.5574990  64.7439997 117.6709992  32.2814990  63.6389997
 119.6029992  31.8174990  64.3529997 119.4809992  30.7144990  64.3909997
 120.2149992  32.1694990  65.2099997 120.2459992  32.0414990  62.9649997
 119.5539992  31.5364990  62.2579997 121.2769992  31.6284990  62.9249997
 120.3259992  33.5514990  62.6609997 121.0739992  34.0724990  63.2749997
 119.6429992  34.2804990  61.7459997 119.8269992  35.3644990  61.7599997
 118.6439992  33.7874990  60.7519997 118.3879992  32.7334990  60.9929997
 119.1179992  33.7324990  59.7479997 117.3269992  34.5374990  60.7499997
 116.9519992  34.5284990  61.7959997 116.6259992  33.8524990  60.2269997
 117.3699992  36.1064990  60.4369997 117.8829992  36.2304990  59.4599997
 117.9459992  36.5964990  61.2519997 116.0219992  36.8024990  60.3529997
 116.0419992  37.8804990  60.6249997 115.3739992  36.2424990  61.0609997
 115.5499992  36.4694990  58.9029997 115.1989992  35.4164990  58.9469997
 116.3339992  36.3804990  58.1209997 114.3499992  37.3094990  58.4179997
 114.5009992  38.3794990  58.6739997 113.4199992  36.9534990  58.9099997
 114.1329992  37.3284990  56.8369997 113.0619992  37.5994990  56.7219997
 114.2619992  36.3154990  56.3989997 114.9939992  38.3044990  56.0649997
 116.0279992  38.5284990  56.4029997 114.5489992  39.3214990  56.1119997
 115.1289992  37.8654990  55.0529997  46.4779992 130.5534990  56.4629997
  46.5259992 129.4704990  56.7069997  47.5589992 130.7924990  56.5539997
  46.1579992 130.7844990  55.4239997  45.6229992 131.4084990  57.3749997
  45.7459992 132.4194990  56.9299997  44.5769992 131.1114990  57.1459997
  45.8639992 131.2384990  58.8669997  46.9419992 131.4464990  59.0349997
  45.2649992 132.0254990  59.3729997  45.5539992 129.8764990  59.4759997
  44.6169992 129.4394990  59.0699997  46.3509992 129.2074990  59.0889997
  45.5049992 129.7914990  61.0189997  45.4089992 128.6994990  61.1959997
  46.4289992 130.1984990  61.4839997  44.2039992 130.3414990  61.5939997
  44.4299992 131.4234990  61.4779997  43.3769992 130.0514990  60.9109997
  43.8679992 130.0884990  63.0499997  42.9599992 130.6124990  63.4179997
  43.7489992 128.9854990  63.1209997  44.9469992 130.4404990  64.0769997
  45.7209992 129.6614990  63.9059997  45.3189992 131.4664990  63.8699997
  44.4549992 130.3614990  65.5419997  43.8029992 131.2544990  65.6469997
  43.9229992 129.4064990  65.7399997  45.5609992 130.5154990  66.6059997
  46.5059992 129.9754990  66.3839997  45.8429992 131.5894990  66.6169997
  45.2229992 130.0534990  68.0399997  44.7729992 129.0554990  67.8479997
  46.1559992 129.8364990  68.6029997  44.3349992 131.0394990  68.7379997
  44.6009992 132.0894990  68.4909997  43.3489992 130.6474990  68.4089997
  44.2939992 130.8414990  70.2989997  45.2309992 131.3414990  70.6259997
  43.4279992 131.3454990  70.7779997  44.2149992 129.3774990  70.7059997
  43.1489992 129.0944990  70.5739997  44.8219992 128.7764990  69.9959997
  44.6999992 129.1004990  72.1369997  44.2099992 129.7494990  72.8939997
  44.4939992 128.0554990  72.4539997  46.1979992 129.2974990  72.1429997
  47.0559992 128.7194990  71.4599997  46.5149992 130.1074990  73.1309997
  47.8689992 130.5194990  73.3979997  48.4759992 129.7584990  73.9319997
  48.4099992 130.5694990  72.4289997  47.8819992 131.8124990  74.2769997
  48.8949992 132.1884990  74.5369997  47.0999992 131.5494990  75.5529997
  47.3749992 130.5524990  75.9599997  47.3909992 132.3064990  76.3119997
  45.7369992 131.6384990  75.2099997  44.6779992 131.7674990  76.4329997
  43.3099992 131.8654990  75.6869997  43.1629992 132.9184990  74.6939997
  42.5649992 133.6934990  75.2189997  44.1699992 133.3034990  74.4259997
  42.4239992 132.4524990  73.4109997  42.3049992 133.3584990  72.8349997
  43.0129992 131.7794990  72.8049997  41.0789992 131.8624990  73.6559997
  40.3219992 131.9174990  72.3589997  40.4729992 132.8684990  71.8699997
  40.7069992 131.1264990  71.7319997  39.2609992 131.7674990  72.4959997
  41.1559992 130.4534990  74.0209997  41.7749992 130.4244990  74.9049997
  40.1599992 130.0694990  74.1899997  41.6699992 129.9584990  73.2109997
  40.2069992 132.6274990  74.6399997  40.5069992 132.6324990  75.6779997
  39.2569992 132.1304990  74.5069997  40.0619992 133.6314990  74.2689997
  44.6169992 130.5514990  77.1829997  45.0519992 132.9864990  77.1779997
  47.2159992 132.9534990  73.6389997  47.7009992 133.4744990  72.5569997
  48.8989992 133.3414990  72.2149997  46.5579992 134.0514990  71.7139997
  46.5879992 135.1344990  71.9599997  45.5529992 133.6104990  71.8879997
  46.7789992 133.9674990  70.2179997  46.2999992 133.0094990  69.9209997
  47.8609992 133.9014990  69.9769997  46.2469992 135.2534990  69.4609997
  46.9199992 136.0974990  69.7249997  45.2559992 135.4824990  69.9079997
  46.2399992 135.1584990  67.9489997  45.8549992 136.1274990  67.5659997
  45.5129992 134.3804990  67.6299997  47.6089992 134.6724990  67.3639997
  47.8549992 133.6464990  67.7119997  48.4099992 135.2324990  67.8929997
  47.7609992 134.9174990  65.8619997  48.8239992 134.7454990  65.5889997
  47.5859992 136.0104990  65.7669997  47.0939992 133.9014990  64.9469997
  46.0219992 133.9184990  65.2399997  47.4319992 132.8794990  65.2229997
  47.2369992 134.1894990  63.5199997  48.1369992 133.6724990  63.1539997
  46.4349992 134.8924990  62.6669997  46.8239992 135.1294990  61.6659997
  45.0589992 135.4584990  63.0119997  45.1709992 136.5074990  62.6629997
  44.8539992 135.6484990  64.0869997  43.8789992 134.7494990  62.3879997
  42.9419992 135.3334990  62.5099997  43.8119992 133.7904990  62.9449997
  43.9599992 134.5724990  60.8849997  43.0409992 133.9944990  60.6519997
  44.8419992 133.9914990  60.5389997  43.9079992 135.8644990  60.0919997
  44.6219992 136.6484990  60.4239997  42.8599992 136.2164990  60.2079997
  44.2309992 135.6204990  58.6009997  45.1989992 135.0764990  58.5619997
  44.4399992 136.5874990  58.0969997  43.1959992 134.7414990  58.0439997
  42.8859992 133.8614990  58.6479997  43.5149992 134.3654990  57.0489997
  41.8379992 135.4654990  57.7209997  42.0759992 136.4684990  57.3059997
  41.2409992 135.5884990  58.6499997  40.9439992 134.6704990  56.7129997
  40.0359992 135.3094990  56.6739997  40.6609992 133.6914990  57.1569997
  41.3659992 134.6534990  55.6859997  96.1029992  12.8024990  57.2619997
  97.1589992  13.0154990  56.9909997  95.4989992  13.3054990  56.4769997
  95.9409992  11.7064990  57.1769997  95.7439992  13.3184990  58.6789997
  95.7789992  14.4284990  58.6529997  94.7089992  12.9924990  58.9189997
  96.7869992  12.8894990  59.7549997  96.6249992  11.8014990  59.5989997
  97.7839992  13.0874990  59.3039997  96.5919992  13.5654990  61.0939997
  96.5679992  14.6634990  60.9269997  95.5479992  13.3754990  61.4239997
  97.5629992  13.1274990  62.1889997  97.6749992  12.0524990  61.9309997
  98.5299992  13.6734990  62.2039997  96.8799992  13.1274990  63.5369997
  96.0039992  12.4534990  63.6469997  97.7049992  12.6624990  64.1179997
  96.5359992  14.4364990  64.2029997  97.4529992  15.0244990  64.4229997
  95.9399992  15.0084990  63.4599997  95.8049992  14.1434990  65.4639997
  94.9099992  13.5844990  65.1169997  96.3099992  13.3064990  65.9929997
  95.4509992  15.2994990  66.3809997  96.3879992  15.8594990  66.5899997
  94.6529992  15.9194990  65.9209997  94.9369992  14.8204990  67.7129997
  95.7279992  14.1564990  68.1219997  94.8669992  15.6204990  68.4809997
  93.5709992  14.1664990  67.6459997  92.7799992  14.9204990  67.4449997
  93.6489992  13.4764990  66.7789997  93.1559992  13.4644990  68.9779997
  93.4769992  14.1414990  69.7989997  92.0679992  13.2404990  69.0109997
  93.7739992  11.9824990  69.0399997  94.8389992  12.0504990  68.7309997
  93.8649992  11.8024990  70.1319997  92.9119992  10.8024990  68.3629997
  91.8659992  11.1174990  68.1619997  93.3759992  10.6994990  67.3589997
  93.0729992   9.4274990  69.1819997  92.4519992   9.6264990  70.0819997
  92.5149992   8.6404990  68.6309997  94.5789992   9.1884990  69.3069997
  95.4149992   9.5954990  68.4929997  94.7579992   8.6544990  70.4879997
  96.1459992   8.2624990  70.9349997  96.0199992   7.3254990  71.5179997
  96.7679992   7.9464990  70.0699997  97.0039992   9.3394990  71.7349997
  97.9489992   8.8664990  72.0789997  96.1449992   9.7454990  72.9389997
  95.7979992   8.7854990  73.3779997  96.7109992  10.1564990  73.8019997
  95.0899992  10.6344990  72.5879997  94.3349992  11.4774990  73.7109997
  95.4969992  12.2034990  74.4919997  96.3799992  13.1474990  73.9669997
  96.8679992  12.7454990  73.0539997  95.9259992  14.0784990  73.5659997
  97.5819992  13.4804990  74.9049997  98.2659992  12.6444990  74.9089997
  98.0639992  14.3784990  74.5469997  97.2939992  13.8354990  76.4279997
  96.6549992  12.6334990  77.1149997  97.2719992  11.8684990  76.6679997
  96.8079992  12.6444990  78.1839997  95.6489992  12.4444990  76.7729997
  98.6419992  14.0344990  77.1079997  99.1859992  14.7834990  76.5499997
  98.5829992  14.0724990  78.1859997  99.1859992  13.1084990  76.9979997
  96.3559992  14.9904990  76.5289997  95.3679992  14.7074990  76.1979997
  96.8229992  15.8624990  76.0949997  96.1509992  15.1254990  77.5799997
  93.5319992  12.4774990  72.9929997  93.6989992  10.4994990  74.6359997
  97.3389992  10.2904990  70.8449997  98.1849992  11.2264990  71.2219997
  98.7409992  11.3714990  72.2659997  98.5599992  12.1034990  69.9789997
  98.5929992  13.1474990  70.3569997  97.6839992  12.0694990  69.2959997
  99.9589992  11.6974990  69.3669997 100.5989992  11.8774990  70.2569997
 100.2789992  12.3954990  68.5639997 100.1199992  10.3404990  68.7239997
 100.1079992   9.6794990  69.6169997 101.1059992  10.3644990  68.2109997
  99.1099992   9.9104990  67.6809997  98.1299992  10.1264990  68.1579997
  99.2109992   8.8104990  67.5629997  99.2069992  10.5684990  66.3679997
 100.1759992  10.3484990  65.8699997  99.0619992  11.6604990  66.5079997
  98.1089992  10.1974990  65.3759997  98.2209992  10.7144990  64.3979997
  97.1249992  10.4564990  65.8199997  97.9619992   8.7084990  65.1529997
  97.4419992   8.1954990  65.9909997  98.9949992   8.3054990  65.0859997
  97.2449992   8.3804990  63.8309997  97.8759992   7.9764990  63.0259997
  95.9409992   8.3284990  63.6089997  95.6459992   8.1214990  62.5689997
  94.7649992   8.6064990  64.5309997  94.9499992   8.5624990  65.6259997
  93.9409992   7.8894990  64.3309997  94.2059992   9.9454990  64.1549997
  95.0609992  10.6554990  64.1409997  93.7349992  10.4274990  65.0379997
  93.3399992   9.9354990  62.8299997  92.2889992   9.6594990  63.0639997
  93.6719992   9.1294990  62.1409997  93.3699992  11.3234990  62.1719997
  94.4319992  11.3774990  61.8499997  93.1799992  12.1384990  62.9019997
  92.6639992  11.4834990  60.7999997  92.9549992  12.4744990  60.3919997
  91.5639992  11.4534990  60.9579997  92.9349992  10.3834990  59.7179997
  92.5569992  10.8624990  58.7889997  92.1979992   9.6134990  60.0319997
  94.3889992   9.8534990  59.3369997  94.8129992   9.3494990  60.2309997
  94.9529992  10.7854990  59.1159997  94.3939992   8.9134990  58.1959997
  94.1149992   9.2964990  57.1909997  93.7499992   8.0824990  58.5549997
  95.3589992   8.4244990  57.9439997 106.7639992  23.0574990  54.8819997
 105.7129992  22.7114990  54.9819997 107.3699992  22.4184990  54.2049997
 106.8249992  24.0734990  54.4379997 107.4229992  23.0374990  56.3219997
 106.6769992  23.5784990  56.9419997 107.5039992  21.9884990  56.6789997
 108.8059992  23.8594990  56.4209997 109.4719992  23.3334990  55.7039997
 108.6329992  24.9414990  56.2329997 109.4979992  23.7214990  57.8069997
 108.7539992  24.1844990  58.4899997 109.8169992  22.7334990  58.2009997
 110.8139992  24.4824990  57.7599997 111.1689992  24.4084990  56.7099997
 110.6679992  25.5454990  58.0509997 111.9099992  23.9454990  58.7169997
 112.1369992  22.8644990  58.5989997 112.9069992  24.3104990  58.3879997
 111.6769992  24.3044990  60.2289997 111.5099992  25.4014990  60.1659997
 110.7369992  23.7674990  60.4779997 112.9599992  24.0564990  60.9869997
 113.2289992  22.9804990  60.9119997 113.7899992  24.5714990  60.4579997
 112.9139992  24.4204990  62.4849997 112.1109992  23.8054990  62.9459997
 113.9369992  24.1944990  62.8529997 112.4449992  25.8224990  62.6629997
 112.9559992  26.5444990  61.9899997 111.3529992  26.0034990  62.5709997
 112.7809992  26.2634990  64.0909997 113.8819992  26.2494990  64.2339997
 112.5279992  27.3454990  64.0859997 112.1019992  25.6174990  65.3149997
 112.7119992  24.7614990  65.6749997 112.1389992  26.3994990  66.1039997
 110.6439992  25.1774990  65.0339997 110.1389992  25.7774990  64.2469997
 110.7669992  24.1704990  64.5809997 109.8089992  25.1434990  66.3169997
 109.3759992  26.1524990  66.4889997 108.9359992  24.4934990  66.0929997
 110.6109992  24.3534990  67.4199997 111.0349992  23.4284990  66.9739997
 111.3539992  25.0444990  67.8719997 109.5519992  23.9724990  68.4759997
 108.6749992  24.6924990  68.9449997 109.7809992  22.7094990  68.7429997
 108.8809992  21.9334990  69.5229997 107.8469992  22.3374990  69.4739997
 108.8189992  20.9694990  68.9739997 109.3769992  21.6934990  70.9839997
 108.8399992  20.8104990  71.3919997 109.1719992  22.9544990  71.8829997
 109.6199992  23.9454990  71.6549997 108.0709992  23.1004990  71.8959997
 109.7489992  22.7554990  73.1919997 109.0639992  22.1924990  74.5169997
 110.1579992  22.4304990  75.6669997 110.8929992  23.6054990  75.7829997
 110.2849992  24.5114990  75.5739997 111.2819992  23.8244990  76.7999997
 112.1619992  23.5874990  74.9289997 111.8409992  23.5634990  73.8979997
 112.8269992  24.4384990  74.9569997 113.0799992  22.4474990  75.1929997
 113.3969992  22.4354990  76.7359997 112.4619992  22.4964990  77.2729997
 113.9739992  21.5324990  76.8669997 113.9019992  23.3584990  76.9839997
 112.5869992  21.0674990  74.8479997 111.5099992  21.1214990  74.8919997
 112.8019992  20.9634990  73.7949997 112.9429992  20.2914990  75.5089997
 114.3429992  22.7214990  74.4329997 114.7679992  23.6454990  74.7979997
 114.0199992  22.6984990  73.4029997 114.9649992  21.8824990  74.7039997
 107.8509992  22.9824990  74.8539997 108.9209992  20.7054990  74.3209997
 110.8069992  21.2794990  70.9369997 111.1449992  20.2034990  70.2589997
 110.3869992  19.4374990  69.6499997 112.6429992  20.0104990  70.5219997
 112.7069992  19.3404990  71.4059997 113.1839992  20.9384990  70.8069997
 113.4249992  19.5854990  69.2309997 112.8839992  18.8034990  68.6569997
 114.3409992  19.0794990  69.6059997 113.9469992  20.8154990  68.4679997
 114.6529992  21.4264990  69.0709997 113.1499992  21.5614990  68.2629997
 114.6359992  20.3154990  67.1929997 114.0299992  19.5724990  66.6309997
 115.5799992  19.7654990  67.3909997 115.0619992  21.5224990  66.3759997
 115.7499992  21.0794990  65.6249997 115.6489992  22.2124990  67.0189997
 114.0359992  22.3634990  65.6509997 114.4629992  23.3374990  65.3309997
 113.3399992  22.6474990  66.4689997 113.1449992  21.5664990  64.6999997
 112.2039992  22.1224990  64.5029997 112.7919992  20.6474990  65.2159997
 113.8029992  21.2054990  63.4399997 114.5229992  21.9234990  63.0199997
 113.6659992  20.0894990  62.7739997 114.2049992  20.1564990  61.8169997
 112.8899992  18.8114990  63.0249997 112.3369992  18.7984990  63.9889997
 113.5959992  17.9534990  63.0189997 112.0109992  18.5444990  61.9039997
 111.5759992  19.5214990  61.6019997 111.1399992  17.9244990  62.2059997
 112.7579992  18.0074990  60.6559997 112.8859992  16.9084990  60.7529997
 113.7849992  18.4304990  60.6529997 112.1249992  18.1334990  59.1929997
 111.4399992  17.2844990  58.9819997 112.9079992  18.0834990  58.4069997
 111.2779992  19.3634990  58.8319997 111.8709992  20.2914990  58.9789997
 110.5419992  19.3944990  59.6629997 110.3899992  19.1744990  57.6709997
 109.5899992  19.9304990  57.5219997 110.0039992  18.1324990  57.6449997
 111.2879992  19.3054990  56.3469997 112.0539992  18.5034990  56.2779997
 111.8109992  20.2844990  56.3809997 110.4679992  19.3164990  55.0639997
 110.2369992  18.3004990  54.6769997 111.0229992  19.8984990  54.2979997
 109.4799992  19.7854990  55.2609997  -0.0280008  52.3464990  57.5119997
  -0.2570008  53.4304990  57.4279997   1.0729992  52.2624990  57.6369997
  -0.5150008  52.0534990  58.4669997  -0.3550008  51.5234990  56.2239997
  -1.4530008  51.6664990  56.1379997  -0.0080008  52.1224990  55.3539997
  -0.1350008  50.0364990  56.2529997  -0.7240008  49.5224990  55.4639997
   0.9539992  49.8924990  56.0869997  -0.5040008  49.4064990  57.6029997
   0.2779992  49.8154990  58.2789997  -1.5370008  49.6394990  57.9389997
  -0.5320008  47.8644990  57.6399997  -1.3320008  47.5954990  56.9169997
   0.4669992  47.4404990  57.4009997  -0.7660008  47.1864990  59.0459997
  -1.7670008  47.5574990  59.3529997  -0.8240008  46.0884990  58.8859997
   0.2989992  47.5194990  60.1089997   1.0849992  46.7824990  59.8379997
   0.6469992  48.5284990  59.8009997   0.0489992  47.2764990  61.5989997
  -0.6060008  46.3934990  61.7599997   1.0359992  47.0604990  62.0619997
  -0.4530008  48.4674990  62.2839997   0.3439992  49.2404990  62.3129997
  -1.3590008  48.9644990  61.8739997  -0.8710008  48.3044990  63.7399997
  -1.6330008  48.9794990  64.1829997  -1.3570008  47.3114990  63.8539997
   0.3049992  48.2104990  64.7529997  -0.0340008  47.8444990  65.7449997
   1.0639992  47.4824990  64.3929997   1.0369992  49.5394990  65.0709997
   1.8979992  49.2984990  65.7299997   1.5839992  49.8424990  64.1529997
   0.1729992  50.7794990  65.3959997   0.8359992  51.6664990  65.4809997
  -0.4720008  50.9924990  64.5159997  -0.7600008  50.6514990  66.6379997
  -1.3040008  51.6194990  66.5949997  -1.4940008  49.8194990  66.5759997
   0.0149992  50.3344990  67.9399997   0.5529992  49.3694990  68.0589997
   0.6939992  51.1834990  68.1689997  -1.0190008  50.4304990  69.0859997
  -2.1730008  50.7494990  68.9929997  -0.3830008  50.3084990  70.3069997
  -1.2570008  50.6684990  71.3949997  -1.3430008  51.7744990  71.3359997
  -2.2500008  50.1704990  71.3599997  -0.6090008  50.0974990  72.7259997
  -1.3580008  50.2054990  73.5389997   0.6839992  50.7394990  73.1429997
   0.6809992  51.8344990  72.9519997   0.7089992  50.6244990  74.2479997
   1.7249992  50.0864990  72.4339997   3.1669992  50.0344990  72.9109997
   3.0619992  49.0544990  74.0909997   4.2339992  48.7264990  74.8329997
   4.2969992  47.6254990  74.6989997   5.1769992  49.0584990  74.3479997
   4.0979992  49.0914990  76.3569997   4.7659992  48.4034990  76.8529997
   4.3709992  50.1164990  76.5619997   2.7329992  48.7654990  76.9919997
   2.9189992  48.8794990  78.4079997   3.5819992  48.0834990  78.7139997
   3.2069992  49.8814990  78.6869997   1.9389992  48.6054990  78.7699997
   1.7489992  49.8894990  76.5429997   2.0649992  50.7884990  77.0499997
   1.8869992  49.8304990  75.4729997   0.7279992  49.6254990  76.7759997
   2.3289992  47.3844990  76.5479997   2.0639992  47.4424990  75.5029997
   1.4809992  47.2194990  77.1969997   3.0209992  46.5994990  76.8129997
   3.9149992  49.4394990  71.7789997   3.5949992  51.2904990  73.5759997
  -0.5090008  48.6804990  72.4479997  -0.6840008  47.7924990  73.4779997
  -0.9760008  47.9934990  74.6289997  -0.6290008  46.4334990  72.8879997
  -1.5010008  46.2864990  72.2149997  -0.8560008  45.6264990  73.6179997
   0.5819992  46.2074990  72.0199997   1.5039992  46.1994990  72.6399997
   0.6509992  47.0124990  71.2579997   0.6129992  44.9784990  71.1219997
  -0.3630008  44.9744990  70.5909997   0.5769992  44.0524990  71.7359997
   1.8569992  44.8434990  70.2549997   1.8739992  43.7714990  69.9639997
   2.6989992  45.0444990  70.9519997   1.8649992  45.7544990  69.0089997
   0.8329992  45.6574990  68.6079997   2.6409992  45.4664990  68.2679997
   2.2629992  47.2434990  69.2569997   2.6859992  47.3644990  70.2769997
   1.3429992  47.8664990  69.2469997   3.1949992  47.7314990  68.1179997
   2.6709992  47.4734990  67.1729997   4.1159992  47.1124990  68.0569997
   3.4709992  49.2134990  68.1929997   2.6939992  49.7684990  68.7379997
   4.4939992  49.8634990  67.6579997   4.5609992  50.9454990  67.8389997
   5.5379992  49.2484990  66.7999997   5.8199992  48.2714990  67.2469997
   6.5249992  49.7574990  66.7789997   5.1719992  49.0154990  65.2299997
   5.5239992  49.8864990  64.6369997   4.0639992  49.0174990  65.1529997
   5.5789992  47.6434990  64.5439997   4.9959992  46.8544990  65.0639997
   6.6419992  47.4504990  64.8039997   5.3449992  47.6194990  63.0229997
   5.6729992  46.6114990  62.6909997   6.0539992  48.3144990  62.5239997
   3.8699992  47.9074990  62.6489997   3.2859992  48.0584990  63.5819997
   3.4719992  47.0684990  62.0389997   3.5009992  49.1494990  61.8299997
   4.0459992  49.9904990  62.3099997   2.4109992  49.3474990  61.7439997
   4.0209992  49.0434990  60.3849997   3.5829992  48.0844990  60.0339997
   5.1309992  49.0464990  60.4219997   3.7069992  50.2344990  59.4739997
   4.3019992  51.0774990  59.8849997   2.6069992  50.3644990  59.3829997
   4.0239992  50.1424990  58.4129997  16.8929992  13.5734990  57.5289997
  15.7879992  13.6844990  57.5549997  16.9889992  12.4924990  57.2919997
  17.2469992  14.1324990  56.6369997  17.5729992  13.8654990  58.8949997
  18.6159992  13.4824990  58.9099997  17.4779992  14.9324990  59.1889997
  16.7609992  13.0834990  59.9659997  15.6779992  13.2604990  59.7909997
  17.0169992  12.0154990  59.7999997  17.1399992  13.4674990  61.4259997
  16.6719992  14.4024990  61.8009997  16.8319992  12.6894990  62.1569997
  18.5839992  13.7994990  61.7439997  18.7839992  14.6664990  61.0789997
  18.5119992  14.2654990  62.7499997  19.6799992  12.7164990  61.4209997
  19.7549992  12.4324990  60.3499997  20.6539992  13.1584990  61.7209997
  19.5649992  11.4154990  62.2179997  18.5809992  10.9924990  61.9229997
  20.3639992  10.7184990  61.8879997  19.7649992  11.5084990  63.6739997
  20.7709992  11.9334990  63.8789997  18.9959992  12.1374990  64.1709997
  19.7079992  10.1284990  64.2849997  18.7189992   9.6514990  64.1129997
  20.3729992   9.3464990  63.8599997  20.0089992  10.1994990  65.7999997
  20.1289992   9.1714990  66.2029997  20.9769992  10.7434990  65.7769997
  18.8689992  10.7464990  66.5889997  18.5539992  11.7614990  66.2639997
  18.0119992  10.0674990  66.3939997  19.0009992  10.6844990  68.1609997
  18.1659992  11.2854990  68.5789997  18.8469992   9.6974990  68.6479997
  20.1339992  11.4854990  68.7949997  20.4349992  12.3934990  68.2299997
  19.9029992  11.7394990  69.8509997  21.4949992  10.7264990  68.9799997
  21.1519992   9.6824990  69.1449997  22.1469992  10.7954990  68.0829997
  22.3019992  11.0504990  70.2119997  21.6489992  10.9154990  71.1009997
  23.1729992  10.3624990  70.2529997  22.8619992  12.5434990  70.1759997
  23.6039992  12.9874990  69.3049997  22.5379992  13.2214990  71.2309997
  22.8219992  14.6034990  71.3549997  23.4309992  14.6384990  72.2829997
  23.4839992  15.0044990  70.5579997  21.5859992  15.4254990  71.4879997
  21.8459992  16.5044990  71.5289997  20.7309992  15.0324990  72.6859997
  21.3969992  14.8374990  73.5529997  20.0789992  15.8654990  73.0269997
  19.8649992  13.9574990  72.3689997  19.4599992  12.8484990  73.4169997
  18.6739992  13.6724990  74.5179997  17.6489992  14.6004990  74.1679997
  18.0679992  15.5034990  73.6739997  16.9329992  14.2034990  73.4169997
  16.7369992  14.9724990  75.4449997  16.0499992  15.7104990  75.0589997
  16.3419992  14.0044990  75.7189997  17.3689992  15.5104990  76.6869997
  18.2039992  14.3894990  77.2539997  17.4429992  13.7914990  77.7339997
  18.6859992  13.7594990  76.5209997  18.9529992  14.6704990  77.9779997
  18.2649992  16.7104990  76.3139997  18.9729992  16.3514990  75.5809997
  17.6209992  17.4474990  75.8559997  18.8559992  17.0144990  77.1649997
  16.2719992  15.9124990  77.6409997  15.8559992  14.9954990  78.0309997
  15.6349992  16.5454990  77.0399997  16.5569992  16.4214990  78.5499997
  18.6259992  11.8154990  72.6989997  20.6759992  12.2904990  73.9609997
  20.8059992  15.2034990  70.3049997  19.8119992  16.1104990  70.0519997
  19.6079992  17.0644990  70.7419997  19.0289992  15.8854990  68.7769997
  17.9579992  16.0834990  68.9979997  19.1179992  14.7934990  68.5939997
  19.6409992  16.6484990  67.6149997  19.8479992  17.6774990  67.9799997
  18.8379992  16.6864990  66.8489997  20.8629992  16.0224990  66.9609997
  21.7059992  15.8144990  67.6539997  21.2039992  16.7424990  66.1879997
  20.5859992  14.7694990  66.0199997  19.7199992  14.9124990  65.3399997
  20.3339992  13.8554990  66.5989997  21.7949992  14.5374990  65.0199997
  22.2419992  15.4974990  64.6859997  21.4549992  13.9704990  64.1269997
  22.9149992  13.6584990  65.5999997  22.5899992  12.6224990  65.8369997
  23.2209992  14.0864990  66.5789997  24.2069992  13.6844990  64.7219997
  25.0669992  13.1704990  65.2019997  24.5469992  14.7374990  64.6319997
  23.9719992  13.1374990  63.2609997  24.1089992  12.0494990  63.1769997
  23.7129992  13.8124990  62.0999997  23.6829992  13.1524990  61.2199997
  23.6419992  15.2884990  61.8879997  24.4069992  15.6544990  61.1699997
  23.8829992  15.8874990  62.7919997  22.2069992  15.6214990  61.4799997
  22.0169992  16.6894990  61.7189997  21.4329992  15.1894990  62.1499997
  21.8289992  15.3744990  60.0249997  20.8299992  15.8384990  59.8799997
  21.8189992  14.2964990  59.7549997  22.7749992  15.9734990  59.0179997
  23.8029992  15.5674990  59.1249997  22.8309992  17.0444990  59.3069997
  22.4999992  15.6734990  57.5479997  21.4839992  16.0714990  57.3409997
  22.4499992  14.5654990  57.4859997  23.6099992  16.3604990  56.7049997
  24.5139992  15.7784990  56.9859997  23.7389992  17.4054990  57.0609997
  23.4519992  16.2434990  55.1539997  24.3269992  16.6884990  54.6329997
  22.4939992  16.7034990  54.8299997  23.4269992  14.7414990  54.8419997
  24.1009992  14.2214990  55.5559997  23.9209992  14.5914990  53.8579997
  22.3999992  14.3194990  54.8269997  93.2939992   9.1994990  59.2099997
  94.0709992   8.9244990  58.4659997  93.6669992   9.2254990  60.2569997
  92.8759992  10.1954990  58.9479997  92.0659992   8.2754990  59.0629997
  91.4469992   8.6264990  58.2109997  92.4369992   7.2384990  58.9139997
  91.0059992   8.3244990  60.2659997  90.8579992   9.4014990  60.4959997
  90.0989992   7.7474990  59.9879997  91.6199992   7.6294990  61.5809997
  92.5799992   8.1384990  61.8159997  90.8859992   7.8434990  62.3869997
  91.8359992   6.1314990  61.4649997  91.0069992   5.5184990  61.0529997
  92.7129992   5.9144990  60.8169997  92.1539992   5.5444990  62.8079997
  92.6119992   4.5494990  62.6199997  93.0089992   5.9864990  63.3639997
  91.1339992   5.5514990  63.9569997  90.7399992   6.5854990  64.0569997
  90.4399992   4.7104990  63.7429997  91.8059992   5.2504990  65.3879997
  92.3299992   4.2794990  65.2569997  92.4869992   6.0924990  65.6379997
  90.7409992   5.1824990  66.4269997  90.5079992   6.2534990  66.6099997
  89.7559992   4.7884990  66.0999997  91.1159992   4.4054990  67.6259997
  91.1119992   3.3154990  67.4069997  92.1569992   4.6834990  67.8979997
  90.1849992   4.5954990  68.8519997  89.1549992   4.3914990  68.4909997
  90.5009992   3.8544990  69.6169997  90.2889992   5.9504990  69.5369997
  90.1689992   6.8324990  68.8719997  89.4359992   6.0224990  70.2459997
  91.6189992   6.2404990  70.2579997  91.5659992   5.7564990  71.2569997
  92.4679992   5.8654990  69.6459997  91.8239992   7.6914990  70.7059997
  92.1999992   8.3184990  69.8689997  90.7979992   7.9514990  71.0459997
  92.8419992   7.7144990  71.8759997  92.4109992   7.0244990  72.6319997
  93.8289992   7.2854990  71.5989997  93.0179992   9.0844990  72.5589997
  92.6509992  10.1334990  72.0929997  93.5119992   8.8874990  73.7909997
  93.7799992   9.9364990  74.5889997  94.7179992   9.7564990  75.1569997
  93.9699992  10.8744990  74.0249997  92.6629992  10.2364990  75.5869997
  93.0499992  11.1064990  76.1599997  92.0899992   9.1204990  76.5149997
  92.9129992   8.7554990  77.1659997  91.3829992   9.5324990  77.2659997
  91.5829992   8.0574990  75.7159997  90.4499992   7.1514990  76.3029997
  90.0999992   6.3074990  75.0309997  89.7699992   6.9654990  73.8419997
  90.4229992   7.8204990  73.5649997  89.9809992   6.1834990  73.0819997
  88.3129992   7.4354990  73.7579997  88.1199992   8.1714990  74.5239997
  88.1499992   7.9814990  72.8399997  87.1199992   6.5304990  73.9119997
  86.8379992   6.2234990  75.3609997  85.9269992   5.6454990  75.4069997
  87.7129992   5.7154990  75.7389997  86.8439992   7.0724990  76.0279997
  85.9709992   7.4064990  73.4769997  86.0139992   7.5544990  72.4079997
  85.1129992   6.8354990  73.7979997  86.0369992   8.3194990  74.0509997
  86.9779992   5.3344990  73.0409997  87.7519992   4.6274990  73.3009997
  86.9909992   5.4924990  71.9729997  85.9519992   5.0024990  73.1139997
  91.0009992   6.3364990  77.3709997  89.3829992   8.1294990  76.6599997
  91.5709992  10.6404990  74.7479997  90.6969992  11.5024990  75.3759997
  90.6649992  11.8294990  76.5319997  89.7489992  12.0274990  74.2809997
  90.2479992  12.6554990  73.5119997  89.1439992  12.7604990  74.8569997
  88.9039992  11.0034990  73.6369997  88.5409992  10.2864990  74.4029997
  89.4769992  10.4584990  72.8569997  87.6019992  11.5494990  72.9229997
  87.9439992  12.4274990  72.3329997  86.7669992  11.8604990  73.5859997
  86.9509992  10.4424990  72.0499997  85.8409992  10.4244990  72.0909997
  87.2609992   9.4124990  72.3259997  87.2459992  10.7894990  70.6299997
  86.9639992  11.8224990  70.3309997  86.6669992  10.1474990  69.9319997
  88.6889992  10.5944990  70.2689997  89.0569992   9.6144990  70.6419997
  89.4049992  11.3434990  70.6699997  89.0589992  10.6484990  68.6849997
  90.1369992  10.9084990  68.7599997  88.5649992  11.5444990  68.2529997
  88.7749992   9.4704990  67.7979997  88.2749992   8.5744990  68.1949997
  89.3509992   9.3574990  66.5699997  89.0709992   8.5274990  65.9049997
  90.2999992  10.2634990  65.8069997  91.3519992   9.9084990  65.8229997
  90.4179992  11.2284990  66.3449997  89.8959992  10.4504990  64.3819997
  90.2059992   9.5474990  63.8119997  90.4929992  11.1844990  63.7989997
  88.4279992  10.6264990  64.0559997  88.2989992  11.7254990  64.1569997
  87.7379992  10.0804990  64.7329997  88.1099992  10.2554990  62.5379997
  88.4469992   9.2064990  62.3929997  88.6859992  10.8514990  61.7979997
  86.5989992  10.3964990  62.0989997  86.3319992  11.3794990  62.5419997
  85.9549992   9.6004990  62.5289997  86.5499992  10.3394990  60.5309997
  86.8439992   9.3044990  60.2549997  87.3379992  10.9974990  60.1059997
  85.1529992  10.5554990  59.9789997  84.6129992  11.5124990  60.1439997
  84.4739992   9.7334990  60.2929997  85.2309992  10.5634990  58.4619997
  85.4889992   9.6104990  57.9529997  85.9619992  11.3474990  58.1699997
  84.1969992  10.7534990  58.1039997 107.4869992 127.9554990  56.2219997
 108.5459992 128.2914990  56.2109997 107.1129992 127.9624990  55.1759997
 107.4099992 126.9534990  56.6959997 106.5869992 128.8604990  57.1239997
 107.1059992 128.9224990  58.1049997 106.5049992 129.8704990  56.6689997
 105.1229992 128.4694990  57.1439997 104.5349992 129.3884990  57.3509997
 104.8059992 128.1544990  56.1259997 104.8059992 127.3674990  58.1809997
 103.7269992 127.1094990  58.1259997 105.4819992 126.5224990  57.9269997
 105.2689992 127.7854990  59.6429997 106.3779992 127.7444990  59.6879997
 105.0469992 128.8674990  59.7599997 104.6089992 126.8714990  60.7759997
 103.5869992 126.5934990  60.4409997 105.1829992 125.9394990  60.5819997
 104.5849992 127.3594990  62.2549997 104.5369992 128.4684990  62.3029997
 103.7179992 126.8954990  62.7729997 105.8349992 126.9974990  63.0129997
 106.7219992 127.3004990  62.4169997 105.9339992 127.5004990  63.9989997
 105.9119992 125.5224990  63.4169997 105.9709992 124.8764990  62.5149997
 106.8939992 125.3464990  63.9049997 104.8049992 125.1524990  64.3809997
 103.7929992 125.1634990  63.9219997 104.9329992 124.1234990  64.7799997
 104.6959992 126.0614990  65.6489997 104.3339992 127.0754990  65.3719997
 104.0089992 125.5914990  66.3849997 106.0039992 126.0104990  66.4689997
 106.2829992 125.0324990  66.9159997 106.8229992 126.2854990  65.7699997
 106.0709992 127.1044990  67.5329997 106.2049992 128.0044990  66.8939997
 105.0899992 127.1614990  68.0499997 107.3759992 126.9824990  68.4309997
 107.3269992 125.9284990  68.7799997 108.2579992 126.8834990  67.7629997
 107.1749992 128.1014990  69.5359997 107.3569992 129.0904990  69.0629997
 106.1619992 128.1464990  69.9889997 108.2179992 127.7574990  70.6509997
 108.5479992 126.5994990  71.0089997 108.7329992 128.8894990  71.0989997
 109.7359992 128.7594990  72.1609997 110.1779992 127.7414990  72.2059997
 110.5609992 129.4584990  71.9089997 109.3029992 129.1734990  73.5729997
 110.2479992 129.2874990  74.1449997 108.4789992 128.1044990  74.3139997
 109.2299992 127.2964990  74.4429997 108.2699992 128.4514990  75.3489997
 107.1459992 127.7464990  73.6929997 105.7759992 128.3024990  73.9709997
 106.0599992 129.8374990  74.4409997 105.9839992 130.1444990  75.8519997
 106.4219992 129.4094990  76.5609997 106.6629992 131.0044990  76.0349997
 104.5429992 130.3834990  76.4249997 103.8889992 129.5384990  76.2739997
 104.5159992 130.5174990  77.4959997 103.7639992 131.4634990  75.7449997
 104.6479992 132.6574990  75.9599997 105.5739992 132.2674990  75.5629997
 104.3039992 133.5314990  75.4259997 104.6689992 132.8874990  77.0149997
 103.5649992 131.2494990  74.2649997 102.9509992 130.3774990  74.0959997
 103.1649992 132.1204990  73.7669997 104.5449992 131.0534990  73.8559997
 102.4449992 131.7414990  76.4179997 102.0959992 132.5964990  75.8589997
 102.6239992 131.9254990  77.4669997 101.8009992 130.9024990  76.1999997
 105.1519992 128.2864990  72.6499997 105.1109992 127.5664990  75.0519997
 108.4709992 130.3864990  73.4699997 108.8259992 131.4994990  74.0679997
 109.6089992 131.5964990  75.0079997 108.1899992 132.7794990  73.4299997
 108.9389992 133.5704990  73.6449997 107.2769992 133.0694990  73.9939997
 108.0329992 132.6654990  71.9239997 108.7839992 131.9514990  71.5229997
 108.1209992 133.6694990  71.4559997 106.7949992 131.9124990  71.4809997
 106.0499992 132.4774990  72.0809997 106.7179992 130.8174990  71.6509997
 106.3719992 132.1744990  70.0329997 107.1399992 131.9574990  69.2609997
 106.4239992 133.2804990  69.9419997 105.0609992 131.5914990  69.7039997
 104.2489992 132.0604990  70.2999997 105.0909992 130.4864990  69.8129997
 104.4989992 131.8954990  68.2199997 103.7589992 131.1624990  67.8349997
 105.3579992 131.8904990  67.5149997 103.6899992 133.1834990  68.1679997
 104.1569992 133.9964990  68.7649997 102.7169992 132.9624990  68.6569997
 103.4159992 133.8184990  66.8389997 102.3959992 134.0664990  66.5109997
 104.2849992 134.1264990  65.8729997 103.9599992 134.4994990  64.8909997
 105.7669992 133.9114990  65.9029997 106.1269992 133.8444990  66.9529997
 106.2689992 134.8914990  65.7569997 106.5469992 132.9674990  64.9499997
 106.3609992 131.9604990  65.3789997 107.6489992 133.0174990  65.0869997
 106.1659992 133.0884990  63.5029997 106.2349992 134.1614990  63.2229997
 105.0859992 132.8554990  63.6209997 106.8979992 132.2404990  62.5529997
 106.3379992 131.5004990  61.9419997 107.5729992 131.5384990  63.0879997
 107.7919992 133.0674990  61.5449997 108.2649992 133.9354990  62.0519997
 107.1359992 133.4874990  60.7529997 108.9459992 132.1244990  61.0249997
 108.4559992 131.1934990  60.6679997 109.7369992 131.8684990  61.7619997
 109.8089992 132.6884990  59.8629997 110.5339992 131.8574990  59.7249997
 110.3819992 133.5794990  60.1959997 109.0499992 133.0854990  58.5619997
 109.8129992 132.9724990  57.7619997 108.5659992 134.0804990  58.6599997
 108.2199992 132.4294990  58.2239997 131.1559992  95.0024990  56.0109997
 132.1889992  95.4054990  55.9429997 130.6759992  94.9804990  55.0089997
 131.1419992  93.9594990  56.3959997 130.3639992  95.8834990  56.9339997
 130.3039992  96.9524990  56.6369997 129.3319992  95.4734990  56.8869997
 130.7279992  95.6114990  58.3909997 130.5469992  94.5274990  58.5569997
 131.8069992  95.6424990  58.6539997 129.8259992  96.2584990  59.4709997
 130.2879992  97.2214990  59.7769997 128.8119992  96.4944990  59.0819997
 129.6549992  95.4484990  60.8059997 129.0439992  96.1164990  61.4499997
 129.1119992  94.4914990  60.6539997 131.0209992  95.2324990  61.6379997
 131.6929992  96.1104990  61.7469997 130.7289992  95.0214990  62.6889997
 131.9489992  94.0154990  61.2529997 131.2829992  93.1284990  61.3169997
 132.3589992  93.9024990  60.2259997 133.1859992  93.8864990  62.1289997
 133.7759992  93.0194990  61.7629997 133.9379992  94.7014990  62.0569997
 132.7289992  93.7074990  63.6009997 132.4389992  94.6634990  64.0859997
 131.8009992  93.0984990  63.6529997 133.7929992  92.9294990  64.4169997
 133.8559992  91.8404990  64.2049997 134.8059992  93.3414990  64.2239997
 133.3939992  92.9504990  65.9089997 132.2839992  92.9794990  65.9199997
 133.8289992  92.0664990  66.4219997 133.9239992  94.2074990  66.6379997
 135.0299992  94.1624990  66.7259997 133.7699992  95.0954990  65.9889997
 133.2089992  94.3544990  67.9779997 132.1409992  94.3014990  67.6779997
 133.4729992  93.4694990  68.5959997 133.3599992  95.7344990  68.6759997
 132.8009992  96.4334990  68.0179997 132.7859992  95.8444990  69.6199997
 134.8189992  96.2644990  68.7759997 135.4589992  95.4724990  69.2199997
 135.3259992  96.4404990  67.8039997 134.6929992  97.5504990  69.5539997
 134.5699992  98.6184990  68.9829997 134.8059992  97.4084990  70.8599997
 135.0419992  98.5374990  71.7319997 135.8919992  98.2554990  72.3889997
 135.3559992  99.3604990  71.0549997 133.8069992  99.0064990  72.5319997
 134.1059992  99.7884990  73.2619997 133.1999992  97.9004990  73.4689997
 134.0929992  97.3684990  73.8609997 132.7019992  98.3064990  74.3759997
 132.3839992  97.0084990  72.6789997 132.5449992  95.4174990  72.6459997
 132.3079992  95.0624990  74.1779997 131.3259992  95.4394990  75.0349997
 130.4639992  95.8884990  74.4969997 130.9749992  94.5234990  75.5549997
 131.6839992  96.5294990  76.1039997 132.0629992  97.3684990  75.5389997
 130.7519992  96.6514990  76.6369997 132.7339992  96.1354990  77.1559997
 132.4139992  94.7704990  77.6769997 132.3229992  93.9874990  76.9389997
 133.0259992  94.4844990  78.5189997 131.3879992  94.8014990  78.0109997
 134.1549992  96.1764990  76.5639997 134.2539992  97.1384990  76.0839997
 134.7729992  96.0534990  77.4419997 134.1869992  95.4434990  75.7709997
 132.6689992  97.2364990  78.1819997 131.7499992  97.3554990  78.7379997
 132.9559992  98.1844990  77.7509997 133.4249992  97.0604990  78.9329997
 131.3919992  94.8944990  71.9269997 133.9159992  94.9044990  72.3239997
 132.8959992  99.4624990  71.5269997 131.7509992 100.0044990  71.9149997
 131.4639992 100.3564990  73.0169997 130.8589992 100.1264990  70.6849997
 131.5669992 100.4894990  69.9089997 130.0709992 100.9044990  70.7789997
 130.2339992  98.7434990  70.3499997 129.7369992  98.2024990  71.1829997
 131.1569992  98.1734990  70.1079997 129.2359992  98.9054990  69.1429997
 129.7759992  99.7154990  68.6079997 128.2409992  99.2054990  69.5359997
 129.2459992  97.6434990  68.2779997 128.7699992  96.7044990  68.6329997
 130.3219992  97.3764990  68.3379997 128.8779992  97.7964990  66.7679997
 127.7899992  97.9924990  66.6639997 128.9729992  96.7884990  66.3109997
 129.5599992  98.9024990  65.9369997 129.4629992  99.8444990  66.5179997
 128.8799992  99.1394990  65.0909997 131.0189992  98.4554990  65.6309997
 130.9749992  97.3654990  65.4179997 131.6449992  98.6324990  66.5309997
 131.5619992  99.1524990  64.4299997 130.8039992  99.4994990  63.7119997
 132.8759992  99.4004990  64.2079997 133.2359992  99.8764990  63.2839997
 133.9609992  98.9114990  65.1309997 133.6029992  98.8004990  66.1769997
 134.7839992  99.6564990  65.1799997 134.7469992  97.6774990  64.6539997
 134.0409992  96.8194990  64.6539997 135.5809992  97.3154990  65.2929997
 135.3569992  97.9044990  63.2169997 135.9729992  98.8094990  63.4049997
 134.5999992  98.0494990  62.4159997 136.2089992  96.7354990  62.6979997
 135.6289992  95.8994990  62.2519997 136.7479992  96.3754990  63.6009997
 137.1859992  97.1644990  61.6299997 137.9479992  96.3604990  61.5469997
 137.7609992  98.0494990  61.9759997 136.4919992  97.5164990  60.2969997
 135.7079992  98.2584990  60.5599997 135.9729992  96.6284990  59.8779997
 137.5419992  98.1174990  59.2869997 138.0599992  97.2114990  58.9059997
 138.1359992  98.8544990  59.8679997 136.8729992  98.7374990  58.0639997
 136.2589992  99.5844990  58.4369997 136.2779992  98.0384990  57.4379997
 137.6599992  98.9774990  57.3179997  51.0719992 137.5614990  53.3489997
  50.9299992 136.4624990  53.4279997  52.1399992 137.8674990  53.3249997
  50.6409992 137.7904990  52.3509997  50.2729992 138.4094990  54.3289997
  50.7849992 138.1654990  55.2839997  50.2399992 139.4884990  54.0659997
  48.7919992 138.0624990  54.3919997  48.1859992 138.5454990  53.5969997
  48.6769992 136.9654990  54.2569997  48.1119992 138.6034990  55.6739997
  48.4679992 139.6204990  55.9469997  47.0259992 138.6394990  55.4419997
  48.2329992 137.6004990  56.8279997  48.3529992 136.5164990  56.6129997
  49.1779992 137.9414990  57.3019997  47.0969992 137.8864990  57.8789997
  47.0949992 138.9894990  58.0089997  46.1719992 137.5884990  57.3379997
  47.1299992 137.1264990  59.1899997  47.8919992 137.6164990  59.8329997
  46.1589992 137.3774990  59.6679997  47.2359992 135.5944990  59.0819997
  46.5869992 135.1394990  58.3039997  48.2239992 135.3724990  58.6249997
  47.0499992 134.8154990  60.4169997  47.3309992 133.7614990  60.2049997
  47.7639992 135.1584990  61.1959997  45.6359992 134.8164990  60.9199997
  45.1029992 134.6894990  59.9539997  45.6179992 133.9314990  61.5919997
  45.2219992 135.9544990  61.8139997  45.0629992 136.9764990  61.4089997
  44.1629992 135.7314990  62.0639997  46.0549992 135.9874990  63.0659997
  46.1979992 134.9514990  63.4429997  47.0859992 136.3334990  62.8379997
  45.4629992 136.8304990  64.2269997  45.7679992 137.8834990  64.0459997
  44.3619992 136.8564990  64.3689997  46.0069992 136.3814990  65.5799997
  45.4859992 135.4424990  65.8609997  47.1089992 136.2424990  65.5659997
  45.6489992 137.4704990  66.6449997  46.3939992 138.2844990  66.5199997
  44.6119992 137.8454990  66.5109997  45.9199992 136.8924990  68.0659997
  45.9779992 135.7114990  68.3299997  46.0299992 137.8334990  68.9709997
  46.4909992 137.5424990  70.3539997  46.5559992 138.4704990  70.9629997
  45.8619992 136.7834990  70.8659997  47.9819992 137.0574990  70.4639997
  47.9969992 136.0334990  70.0349997  48.4859992 137.0014990  71.8849997
  48.8799992 137.9844990  72.2199997  47.6369992 136.9374990  72.5989997
  49.3669992 135.9634990  72.0039997  49.8169992 135.2054990  73.3919997
  49.6839992 136.4704990  74.2929997  49.0569992 136.3414990  75.5269997
  47.9559992 136.1964990  75.4959997  49.4999992 135.5284990  76.1409997
  49.2499992 137.5984990  76.4419997  48.3859992 138.2164990  76.2479997
  48.9979992 137.3084990  77.4519997  50.6819992 138.2984990  76.4359997
  50.7939992 138.9354990  75.0989997  51.7269992 139.4674990  74.9879997
  50.8229992 138.1494990  74.3589997  50.0199992 139.6554990  74.8809997
  50.7459992 139.3464990  77.5189997  50.6259992 138.8434990  78.4669997
  51.7249992 139.8014990  77.5179997  49.9679992 140.0544990  77.2749997
  51.6919992 137.1504990  76.6139997  51.5069992 136.5964990  77.5219997
  52.6819992 137.5304990  76.8179997  51.8729992 136.5284990  75.7499997
  48.9479992 134.0654990  73.8319997  51.2989992 134.9184990  73.3139997
  48.8059992 137.8884990  69.6379997  49.7769992 137.2994990  68.8849997
  49.9169992 136.0814990  68.7399997  50.6689992 138.3344990  68.2009997
  51.6599992 138.3644990  68.7029997  50.2729992 139.3674990  68.2909997
  51.0769992 138.0664990  66.7659997  51.4949992 137.0374990  66.8019997
  51.9299992 138.7194990  66.4839997  49.9939992 138.0824990  65.7379997
  49.3599992 137.2124990  66.0139997  50.4769992 137.7524990  64.7929997
  49.2939992 139.3884990  65.5539997  50.0699992 140.1804990  65.6259997
  48.4919992 139.4924990  66.3149997  48.7499992 139.5784990  64.1059997
  47.7649992 140.0334990  64.3439997  48.4529992 138.6084990  63.6529997
  49.3109992 140.5854990  62.9799997  50.4129992 140.5944990  63.1199997
  48.9709992 141.6264990  63.1669997  49.0369992 140.2504990  61.4429997
  47.9389992 140.3434990  61.2999997  49.2899992 139.1974990  61.1939997
  49.6049992 141.2364990  60.5119997  49.2889992 142.2864990  60.6029997
  50.5159992 140.9634990  59.5559997  50.8479992 141.7954990  58.9169997
  51.0619992 139.6134990  59.2119997  51.7259992 139.6964990  58.3249997
  50.2499992 138.9704990  58.8089997  51.9639992 138.8304990  60.2049997
  51.3259992 138.6044990  61.0849997  52.8899992 139.2534990  60.6489997
  52.4069992 137.3874990  59.8499997  53.0529992 137.0694990  60.6969997
  52.9549992 137.3514990  58.8849997  51.2979992 136.3544990  59.9179997
  50.6419992 136.5304990  59.0379997  50.8279992 136.5124990  60.9119997
  51.6779992 134.8614990  59.6149997  50.7379992 134.2904990  59.4619997
  52.2319992 134.3924990  60.4569997  52.4519992 134.6944990  58.2389997
  52.7689992 133.6334990  58.3309997  53.3969992 135.2704990  58.3319997
  51.4499992 134.8874990  57.0669997  51.1919992 135.9684990  57.0599997
  50.4899992 134.3304990  57.1099997  51.9269992 134.6354990  55.5929997
  52.3429992 133.6374990  55.3379997  52.6209992 135.4774990  55.3849997
  50.9969992 134.7004990  54.9889997 131.2409992  52.8354990  53.4079997
 130.6719992  53.6894990  52.9809997 130.5299992  51.9914990  53.5369997
 132.1619992  52.7014990  52.8019997 131.7069992  53.4544990  54.7249997
 132.3759992  54.3234990  54.5449997 130.8719992  53.7924990  55.3759997
 132.5159992  52.5424990  55.6169997 131.7549992  51.7514990  55.7899997
 133.4189992  52.0004990  55.2629997 132.9499992  53.3024990  56.9429997
 133.5289992  52.5544990  57.5259997 133.5519992  54.1684990  56.5949997
 131.8319992  53.6184990  57.9889997 131.4319992  54.5804990  57.6049997
 131.0649992  52.8154990  57.9659997 132.3649992  53.7884990  59.4429997
 132.6839992  52.7804990  59.7849997 133.2959992  54.3844990  59.3349997
 131.3609992  54.4314990  60.3939997 131.1599992  55.4524990  60.0049997
 130.5109992  53.7164990  60.3899997 132.0729992  54.4504990  61.7509997
 132.2789992  53.4244990  62.1239997 132.9849992  55.0544990  61.5579997
 131.3599992  55.1674990  62.8199997 131.0889992  56.0324990  62.1769997
 130.4689992  54.5484990  63.0609997 132.2279992  55.6304990  64.0259997
 132.5959992  54.6854990  64.4809997 133.1449992  56.1824990  63.7299997
 131.3439992  56.4554990  65.0249997 130.9459992  57.2744990  64.3889997
 130.4469992  55.8974990  65.3669997 132.1719992  56.9504990  66.1969997
 132.9729992  57.6054990  65.7919997 131.4199992  57.4884990  66.8129997
 132.9079992  55.8944990  67.0199997 133.8069992  55.4824990  66.5129997
 133.3379992  56.3634990  67.9309997 131.9929992  54.7164990  67.4369997
 131.0709992  55.1574990  67.8729997 131.7769992  54.1644990  66.4979997
 132.5909992  53.7984990  68.5049997 133.5059992  53.2504990  68.1939997
 132.9419992  54.4464990  69.3359997 131.5119992  52.7854990  68.9979997
 131.2019992  51.8414990  68.2659997 131.1639992  52.9714990  70.2769997
 130.1459992  52.1554990  70.8439997 129.2679992  52.7994990  71.0629997
 129.8239992  51.3344990  70.1679997 130.7189992  51.4844990  72.0759997
 129.9359992  50.7914990  72.4529997 130.9409992  52.5664990  73.2139997
 130.0019992  53.1084990  73.4539997 131.2259992  52.0594990  74.1599997
 131.8969992  53.6144990  72.8549997 133.4079992  53.6234990  73.2129997
 133.4469992  52.5404990  74.2989997 134.5779992  51.7804990  74.6389997
 134.3069992  50.7144990  74.4869997 135.4699992  52.0884990  74.0519997
 135.0229992  52.0294990  76.1529997 134.2759992  51.5904990  76.7979997
 136.0059992  51.5914990  76.2449997 135.2269992  53.4294990  76.6709997
 133.8949992  54.0914990  76.8759997 133.9959992  54.9804990  77.4799997
 133.4879992  54.4494990  75.9419997 133.1839992  53.4434990  77.3659997
 135.8989992  53.3944990  78.0639997 135.1949992  53.2004990  78.8599997
 136.7139992  52.6864990  78.0379997 136.4469992  54.3064990  78.2489997
 136.1709992  54.2254990  75.7179997 137.0099992  53.6164990  75.4159997
 136.5509992  55.1204990  76.1869997 135.7619992  54.5414990  74.7699997
 134.2659992  53.2124990  72.1419997 133.7539992  54.9134990  73.8429997
 131.9279992  50.9294990  71.7099997 131.8429992  49.6344990  71.3509997
 130.9389992  48.8814990  71.4429997 133.1209992  49.0624990  70.8009997
 133.1219992  48.6554990  69.7669997 133.4469992  48.2794990  71.5179997
 134.2589992  50.0934990  70.7669997 134.3019992  50.5854990  71.7619997
 134.0709992  50.8274990  69.9539997 135.6979992  49.4104990  70.7109997
 135.9499992  48.8194990  71.6169997 136.4569992  50.2074990  70.5619997
 135.9249992  48.4094990  69.5139997 135.3369992  47.4724990  69.6189997
 137.0069992  48.1774990  69.6069997 135.8149992  49.1294990  68.1259997
 134.9219992  49.7854990  68.0469997 135.7909992  48.2464990  67.4519997
 137.1359992  49.8734990  67.7089997 137.9619992  49.1304990  67.7049997
 137.4579992  50.6684990  68.4149997 137.1569992  50.3904990  66.2579997
 136.9649992  49.4594990  65.6819997 138.2039992  50.6074990  65.9559997
 136.1739992  51.4064990  65.8109997 136.1609992  52.3224990  66.4189997
 135.3689992  51.2514990  64.7499997 134.7319992  52.1304990  64.5719997
 135.1729992  50.0884990  63.7569997 134.2869992  49.4504990  63.9649997
 136.0859992  49.4624990  63.8439997 135.1409992  50.5304990  62.2609997
 134.3569992  51.3164990  62.2059997 134.7989992  49.7484990  61.5499997
 136.5459992  50.9974990  61.6919997 137.0969992  50.1514990  61.2289997
 137.1779992  51.5534990  62.4169997 136.5119992  52.0514990  60.5249997
 137.5269992  52.1974990  60.0989997 136.2169992  53.0704990  60.8559997
 135.6409992  51.7494990  59.3589997 135.5409992  52.6184990  58.6739997
 134.6699992  51.5234990  59.8489997 136.2049992  50.4924990  58.5419997
 136.0389992  49.6534990  59.2509997 137.2749992  50.7834990  58.4649997
 135.5189992  50.2304990  57.2179997 135.7979992  51.0654990  56.5399997
 134.4119992  50.2364990  57.3119997 135.8879992  48.8334990  56.6959997
 135.4249992  48.5974990  55.7129997 135.6749992  48.0424990  57.4469997
 136.9499992  48.8164990  56.3709997 114.1709992 119.3924990  56.0459997
 113.9899992 118.4244990  55.5319997 114.5619992 120.1224990  55.3059997
 113.2039992 119.6014990  56.5529997 115.3509992 119.1884990  57.0659997
 116.1659992 118.5844990  56.6139997 115.8069992 120.1444990  57.3999997
 114.9589992 118.3924990  58.3749997 114.2459992 119.0914990  58.8629997
 114.3859992 117.5014990  58.0399997 116.1699992 117.9974990  59.2589997
 116.7679992 117.2734990  58.6659997 116.6959992 118.9694990  59.3709997
 115.8699992 117.2974990  60.5789997 115.3309992 116.3304990  60.4789997
 116.8029992 117.0414990  61.1249997 115.1579992 118.1924990  61.5609997
 115.6789992 119.1664990  61.4439997 114.1259992 118.2624990  61.1569997
 115.2369992 117.7254990  63.0049997 116.3249992 117.5784990  63.1769997
 114.8069992 118.4654990  63.7119997 114.5309992 116.4204990  63.3639997
 114.9919992 115.7554990  62.6029997 114.6679992 116.0524990  64.4029997
 112.9829992 116.4904990  63.1399997 112.7559992 116.6094990  62.0589997
 112.4219992 115.6014990  63.4989997 112.3289992 117.6664990  63.9579997
 112.8769992 117.6824990  64.9239997 112.4559992 118.6184990  63.3999997
 110.8139992 117.4664990  64.1819997 110.2489992 117.6224990  63.2369997
 110.6849992 116.4304990  64.5599997 110.1479992 118.4514990  65.1089997
 110.9189992 118.7644990  65.8459997 110.0099992 119.4074990  64.5609997
 108.8849992 117.8784990  65.7019997 108.2939992 117.4684990  64.8549997
 109.1929992 116.9414990  66.2139997 108.0699992 118.7294990  66.6309997
 107.7579992 119.5444990  65.9429997 107.1829992 118.2574990  67.1049997
 108.7089992 119.4974990  67.8329997 109.6159992 120.0874990  67.5779997
 107.8619992 120.0254990  68.3199997 109.1469992 118.4944990  69.0139997
 108.9899992 117.2734990  68.9749997 109.6999992 119.2504990  69.8629997
 110.3129992 118.6704990  71.0429997 110.0949992 119.4204990  71.8319997
 110.1169992 117.6494990  71.4359997 111.8639992 118.7504990  70.8969997
 112.1399992 118.0124990  70.1129997 112.5579992 118.3934990  72.1799997
 111.9989992 117.5314990  72.6029997 113.5749992 118.0094990  71.9489997
 112.5839992 119.5154990  73.0159997 112.5269992 119.1544990  74.5519997
 113.8139992 118.2654990  74.7769997 114.1449992 117.8974990  76.1039997
 114.9469992 118.5664990  76.4839997 113.2859992 118.0564990  76.7909997
 114.4959992 116.4444990  76.1759997 114.9899992 116.3244990  77.1289997
 113.6209992 115.8144990  76.2239997 115.5209992 115.8294990  75.1419997
 116.7549992 116.6464990  75.1909997 116.6029992 117.6384990  74.7919997
 117.1269992 116.6824990  76.2049997 117.4989992 116.1674990  74.5729997
 115.8139992 114.4574990  75.5639997 115.0199992 113.7474990  75.3829997
 116.7019992 114.0994990  75.0649997 116.0119992 114.4374990  76.6249997
 114.9789992 115.8774990  73.7459997 113.9219992 115.6644990  73.6709997
 115.6769992 115.3944990  73.0779997 114.9579992 116.9144990  73.4449997
 112.6939992 120.3334990  75.4049997 111.4279992 118.1774990  74.7989997
 112.1949992 120.0964990  70.6079997 113.1039992 120.1694990  69.6209997
 113.6159992 119.2214990  69.0879997 113.4199992 121.5444990  69.3579997
 113.7879992 122.1074990  70.2429997 112.5239992 122.1074990  69.0199997
 114.5269992 121.6554990  68.2399997 115.2889992 120.8574990  68.3709997
 114.9109992 122.6924990  68.3459997 113.8859992 121.4484990  66.8899997
 113.0449992 122.1664990  66.7919997 113.3289992 120.4874990  66.8889997
 114.9559992 121.6404990  65.8679997 115.5949992 120.7534990  66.0659997
 115.3459992 122.6544990  66.1009997 114.5189992 121.6494990  64.4549997
 113.6119992 122.2894990  64.4069997 114.1529992 120.6424990  64.1599997
 115.6319992 122.1944990  63.6189997 116.5249992 121.5534990  63.7819997
 115.9659992 123.2034990  63.9409997 115.2439992 122.2804990  62.0999997
 114.7319992 121.3204990  61.8789997 116.1399992 122.4314990  61.4589997
 114.0669992 123.2604990  61.9379997 114.1109992 124.2454990  62.4269997
 112.9329992 123.0494990  61.2299997 112.1319992 123.8024990  61.1939997
 112.5919992 121.8144990  60.4239997 113.4669992 121.1924990  60.1359997
 112.0899992 122.1774990  59.5009997 111.5199992 121.0364990  61.0939997
 110.6089992 121.6454990  61.2759997 111.9199992 120.6204990  62.0439997
 111.2299992 119.7304990  60.2589997 110.3839992 119.1054990  60.6189997
 112.1729992 119.1444990  60.2979997 110.8559992 119.9844990  58.6999997
 111.7659992 120.3394990  58.1709997 110.1099992 120.7914990  58.5349997
 110.3639992 118.6944990  58.0279997 109.3699992 118.3984990  58.4259997
 111.1019992 117.8824990  58.2049997 110.2229992 118.9234990  56.4989997
 110.8479992 119.7334990  56.0649997 109.1819992 119.2184990  56.2469997
 110.5499992 117.6954990  55.5189997 109.8959992 116.8364990  55.7809997
 111.6069992 117.4134990  55.7129997 110.2849992 117.7534990  54.0239997
 109.4359992 118.4534990  53.8709997 109.9129992 116.7844990  53.6299997
 111.2099992 118.0854990  53.5049997  34.8529992 128.0124990  58.0489997
  35.7039992 128.4644990  57.4969997  33.8779992 127.9814990  57.5179997
  35.2649992 126.9874990  58.1639997  34.7449992 128.6374990  59.3869997
  35.7289992 128.6784990  59.9009997  34.5309992 129.7144990  59.2149997
  33.5889992 128.1634990  60.1809997  33.2779992 129.0134990  60.8259997
  32.7209992 128.0354990  59.4999997  33.8709992 126.9324990  61.1479997
  32.9369992 126.5774990  61.6329997  34.1949992 126.2194990  60.3599997
  35.0099992 127.1914990  62.1319997  35.9289992 127.2814990  61.5129997
  34.8989992 128.0194990  62.8639997  35.2759992 125.9174990  62.9939997
  34.4709992 125.9984990  63.7549997  35.1279992 125.0634990  62.2989997
  36.5789992 125.9594990  63.7259997  37.4059992 126.2504990  63.0429997
  36.7079992 126.7424990  64.5029997  36.8259992 124.6104990  64.4029997
  36.6789992 123.7654990  63.6979997  37.8829992 124.4994990  64.7269997
  36.0129992 124.4724990  65.6749997  34.9519992 124.1854990  65.5129997
  36.3679992 123.6404990  66.3199997  36.0589992 125.7454990  66.6499997
  35.3659992 126.6034990  66.5119997  35.6349992 125.3954990  67.6149997
  37.4589992 126.3514990  66.9189997  38.0939992 125.4884990  67.2119997
  37.9919992 126.8484990  66.0799997  37.3309992 127.3814990  68.0239997
  36.2979992 127.7914990  68.0139997  37.5299992 126.8354990  68.9709997
  38.4259992 128.4574990  67.8849997  39.4069992 127.9364990  67.9059997
  38.1639992 128.9584990  66.9289997  38.5109992 129.3564990  69.0479997
  38.9199992 128.9094990  69.9779997  39.1839992 130.1914990  68.7579997
  37.1359992 130.1444990  69.3819997  36.9409992 130.8504990  68.5469997
  36.3939992 129.3354990  69.5519997  37.3459992 130.8894990  70.6429997
  38.4009992 131.1834990  71.0879997  36.1179992 131.1464990  71.2289997
  36.0799992 131.9574990  72.3929997  37.0439992 131.8804990  72.9399997
  35.9299992 133.0344990  72.1679997  34.9819992 131.4874990  73.3419997
  34.9929992 132.2554990  74.1449997  35.3229992 130.1474990  74.0509997
  36.4279992 130.1704990  74.1619997  34.7529992 130.2144990  75.0019997
  34.8909992 129.0284990  73.2829997  35.8699992 127.8874990  72.7889997
  36.2789992 127.1114990  74.1169997  35.3769992 126.1234990  74.6499997
  34.2899992 126.3344990  74.5599997  35.4409992 125.1614990  74.0979997
  35.6729992 125.8004990  76.1519997  35.2579992 124.8384990  76.4139997
  36.7459992 125.6824990  76.1759997  35.2719992 126.9204990  77.0999997
  33.7849992 127.2704990  76.8509997  33.4979992 127.6424990  77.8229997
  33.6759992 127.9194990  75.9949997  33.1229992 126.4244990  76.7379997
  35.4799992 126.2814990  78.5139997  36.4719992 125.9884990  78.8259997
  35.2039992 126.9714990  79.2979997  34.8129992 125.4334990  78.5529997
  36.1569992 128.1274990  76.9629997  35.7699992 128.7414990  76.1629997
  37.1239992 127.7334990  76.6879997  36.2349992 128.6874990  77.8819997
  35.1529992 127.0804990  71.7829997  37.0839992 128.4484990  72.2709997
  33.7489992 131.4344990  72.5989997  32.5739992 130.9874990  73.1069997
  32.3569992 130.5904990  74.2229997  31.6049992 130.6424990  72.0169997
  30.6579992 131.2064990  72.1539997  31.2479992 129.6094990  72.2189997
  32.1579992 130.7694990  70.5409997  33.1889992 130.3584990  70.4759997
  32.2979992 131.8554990  70.3549997  31.2259992 130.2044990  69.4289997
  31.1039992 130.8894990  68.5629997  30.2829992 130.0034990  69.9809997
  31.6939992 128.8504990  68.7989997  30.7409992 128.4114990  68.4339997
  32.0769992 128.3774990  69.7289997  32.8419992 128.8334990  67.8139997
  32.8739992 127.8184990  67.3609997  33.7609992 128.8624990  68.4369997
  32.7909992 129.7904990  66.5559997  33.0179992 130.7584990  67.0509997
  31.8039992 129.7414990  66.0489997  33.8719992 129.6074990  65.4589997
  33.5199992 128.7044990  64.9159997  34.8839992 129.3974990  65.8649997
  33.8949992 130.6844990  64.4259997  32.9239992 130.7154990  63.9109997
  34.8409992 131.4854990  63.9339997  34.5349992 132.2154990  63.1709997
  36.2439992 131.4714990  64.4129997  36.1589992 131.2854990  65.5049997
  36.7139992 132.4734990  64.3089997  37.1619992 130.5114990  63.6729997
  36.8939992 129.4734990  63.9639997  38.2179992 130.6654990  63.9809997
  37.1059992 130.4654990  62.0929997  37.1919992 131.5174990  61.7439997
  36.1299992 130.0594990  61.7529997  38.3039992 129.6434990  61.5759997
  37.9469992 128.5984990  61.4579997  39.1479992 129.6954990  62.2959997
  38.9179992 130.1864990  60.2489997  39.9089992 129.7084990  60.0939997
  39.0899992 131.2834990  60.2819997  38.2849992 129.7404990  58.9499997
  37.3739992 130.3664990  58.8409997  38.0069992 128.6654990  58.9919997
  39.1319992 130.0144990  57.6469997  39.7459992 130.9344990  57.7449997
  38.3879992 130.1904990  56.8409997  40.1039992 128.9544990  57.1299997
  40.7129992 129.5544990  56.4199997  39.6169992 128.0954990  56.6219997
  40.6159992 128.5424990  58.0259997  11.2699992  24.9224990  57.3249997
  10.7729992  23.9644990  57.5879997  12.1169992  24.6514990  56.6589997
  10.5179992  25.5354990  56.7829997  11.9549992  25.4894990  58.5359997
  12.5899992  24.7184990  59.0219997  12.6979992  26.2114990  58.1349997
  11.0869992  26.0914990  59.5859997  11.7409992  26.6034990  60.3239997
  10.3909992  26.8234990  59.1219997  10.3659992  24.9364990  60.3779997
   9.5969992  24.4304990  59.7549997  11.1219992  24.2394990  60.7979997
   9.4769992  25.4284990  61.5919997   8.4619992  25.4774990  61.1419997
   9.3499992  24.6414990  62.3669997  10.0579992  26.6834990  62.2689997
  10.9629992  26.4384990  62.8629997  10.4209992  27.5254990  61.6409997
   9.1339992  27.1814990  63.3399997   8.0679992  27.1724990  63.0269997
   9.2389992  26.4704990  64.1869997   9.3319992  28.5484990  64.0069997
   9.2419992  29.2544990  63.1539997   8.4749992  28.7044990  64.6969997
  10.6749992  28.7694990  64.7009997  11.5279992  28.8364990  63.9919997
  10.7419992  29.7554990  65.2089997  10.9649992  27.7834990  65.8499997
  10.1439992  27.8234990  66.5969997  10.9999992  26.7224990  65.5239997
  12.2549992  28.0844990  66.5899997  13.1549992  27.9944990  65.9449997
  12.2739992  29.1154990  67.0019997  12.5199992  27.1844990  67.7479997
  11.6219992  26.8074990  68.2829997  13.1019992  26.3044990  67.3999997
  13.4849992  27.8044990  68.7919997  13.7519992  26.9044990  69.3849997
  14.3829992  28.1954990  68.2669997  12.9419992  28.8694990  69.7039997
  12.9599992  29.8434990  69.1699997  11.8749992  28.6434990  69.9149997
  13.5199992  28.8454990  71.1019997  13.5869992  27.8724990  71.6339997
  14.5849992  29.1014990  70.9159997  12.8749992  29.9014990  71.9659997
  13.3109992  30.2254990  73.0099997  11.7829992  30.4204990  71.3769997
  11.0849992  31.5094990  71.9989997  11.5379992  31.9904990  72.8909997
  10.9349992  32.3644990  71.3059997   9.7279992  31.0984990  72.6269997
   9.2719992  31.9644990  73.1519997   9.9469992  30.1064990  73.6839997
  10.4849992  29.2584990  73.2099997  10.4879992  30.5854990  74.5279997
   8.7369992  29.6254990  74.2039997   8.8699992  28.4544990  75.2919997
  10.4049992  28.3004990  75.6569997  10.9079992  27.1974990  76.3909997
  11.8439992  27.5704990  76.8589997  10.1509992  26.8094990  77.1059997
  11.2589992  25.9874990  75.4679997  11.5679992  25.1124990  76.0199997
  10.2869992  25.6944990  75.0979997  12.3329992  26.1194990  74.4039997
  11.6249992  26.6604990  73.1419997  10.5889992  26.3714990  73.2459997
  11.7269992  27.7264990  73.0059997  12.1189992  26.1814990  72.3099997
  13.4689992  27.0624990  74.8089997  14.0579992  27.3554990  73.9529997
  13.0059992  27.9814990  75.1359997  14.0189992  26.6094990  75.6199997
  12.9189992  24.7974990  74.0579997  12.3309992  24.3134990  73.2929997
  12.9109992  24.1604990  74.9309997  13.9189992  24.8984990  73.6629997
   8.1599992  28.9504990  76.5099997   8.3869992  27.2574990  74.5349997
   8.9199992  30.5494990  71.5509997   8.3469992  31.5524990  70.8229997
   8.0349992  32.6134990  71.2989997   8.1389992  31.2634990  69.3239997
   7.0349992  31.2174990  69.2039997   8.5209992  30.2494990  69.0819997
   8.8569992  32.2934990  68.4539997   9.1229992  33.2874990  68.8729997
   8.2889992  32.3394990  67.5009997  10.2119992  31.8674990  67.9909997
  10.3339992  30.8644990  67.5279997  10.8899992  31.8304990  68.8699997
  10.8869992  32.8604990  67.0229997  11.1299992  33.8284990  67.5129997
  10.1679992  32.9464990  66.1809997  12.1219992  32.2614990  66.2819997
  11.8249992  31.1974990  66.1659997  13.0089992  32.3284990  66.9479997
  12.3449992  32.8024990  64.8279997  12.3799992  33.9124990  64.8519997
  11.4399992  32.4874990  64.2649997  13.7349992  32.4314990  64.1829997
  14.4759992  33.0214990  64.7639997  13.7779992  32.8454990  63.1519997
  13.9029992  30.9374990  64.0919997  13.7509992  30.5214990  65.0979997
  14.2469992  30.1894990  63.1129997  14.3139992  29.1134990  63.3289997
  14.5569992  30.5574990  61.6909997  15.6179992  30.2734990  61.5279997
  14.4349992  31.5814990  61.2779997  13.6229992  29.6534990  60.7599997
  14.0509992  28.6284990  60.7339997  13.5719992  30.0214990  59.7129997
  12.1469992  29.5894990  61.1039997  12.0149992  29.1404990  62.1109997
  11.7199992  28.8434990  60.3989997  11.4479992  30.8974990  60.9699997
  11.9479992  31.6374990  61.6309997  10.4169992  30.7574990  61.3589997
  11.3869992  31.4464990  59.5769997  10.3399992  31.7334990  59.3369997
  11.6359992  30.6644990  58.8289997  12.3039992  32.7354990  59.3159997
  13.2689992  32.6754990  59.8629997  11.7709992  33.5974990  59.7719997
  12.4429992  33.0404990  57.7789997  13.1739992  32.3314990  57.3339997
  12.8489992  34.0544990  57.5759997  11.2279992  33.0574990  56.7579997
  11.4919992  33.3304990  55.7139997  10.5219992  33.8254990  57.1399997
  10.7099992  32.0744990  56.7179997   4.0899992  83.0264990  55.9259997
   3.3949992  83.6634990  55.3379997   3.8969992  82.0174990  55.5019997
   5.1609992  83.3184990  55.8949997   3.7039992  83.0294990  57.3859997
   2.7329992  82.4904990  57.4279997   4.3789992  82.3124990  57.9019997
   3.6349992  84.3764990  58.0869997   4.5899992  84.9254990  57.9469997
   2.8379992  85.0134990  57.6469997   3.3099992  84.1324990  59.5379997
   2.5219992  83.3674990  59.7069997   4.1149992  83.7124990  60.1779997
   2.8289992  85.4184990  60.2969997   3.6979992  86.1094990  60.2519997
   1.9869992  85.9584990  59.8119997   2.4909992  85.0734990  61.7449997
   3.4469992  84.8184990  62.2499997   2.0819992  85.9934990  62.2139997
   1.4269992  83.9594990  62.0019997   0.4699992  84.2054990  61.4959997
   1.8739992  83.0644990  61.5169997   1.2489992  83.5374990  63.4649997
   0.5799992  82.6564990  63.5669997   2.2729992  83.3394990  63.8459997
   0.6739992  84.5904990  64.3879997   1.2869992  85.5034990  64.2279997
  -0.3670008  84.7594990  64.0379997   0.6039992  84.2174990  65.8599997
   1.2779992  83.3654990  66.0919997   0.8889992  85.1354990  66.4169997
  -0.7630008  83.7704990  66.2539997  -1.4920008  84.6004990  66.1349997
  -1.0410008  82.9644990  65.5419997  -0.8120008  83.2654990  67.7199997
  -0.3280008  84.0634990  68.3239997  -1.8500008  83.1354990  68.0939997
  -0.0770008  81.9514990  68.0699997  -0.6120008  81.1694990  67.4899997
   0.9839992  81.9824990  67.7409997  -0.2670008  81.4844990  69.5199997
   0.2609992  82.1814990  70.2059997  -1.3110008  81.7054990  69.8269997
   0.0119992  80.0814990  69.8649997  -0.0420008  79.9914990  70.9709997
  -0.7860008  79.4104990  69.4809997   1.4669992  79.5724990  69.5229997
   1.9239992  79.5024990  68.4129997   2.1109992  79.2754990  70.7079997
   3.5509992  79.2484990  70.4949997   3.9929992  78.4614990  71.1439997
   3.8159992  78.9994990  69.4459997   4.2279992  80.5524990  70.9519997
   5.3139992  80.3294990  71.0229997   3.7559992  80.9434990  72.3619997
   3.7679992  80.0914990  73.0749997   4.4399992  81.6484990  72.8799997
   2.4799992  81.6024990  72.3529997   1.5199992  81.7454990  73.5999997
   2.0629992  82.9024990  74.4529997   3.1859992  83.7154990  74.2319997
   4.0819992  83.1014990  74.4649997   3.3199992  83.9004990  73.1449997
   3.1529992  84.9714990  75.0569997   4.1759992  85.3164990  75.0819997
   2.6399992  85.6714990  74.4149997   2.5509992  84.9434990  76.4559997
   3.1759992  83.9194990  77.2339997   3.0459992  82.9424990  76.7909997
   4.2349992  84.0534990  77.3959997   2.8029992  83.7844990  78.2379997
   2.9769992  86.2794990  77.1029997   2.5749992  86.3234990  78.1049997
   4.0549992  86.3524990  77.1129997   2.5609992  87.1684990  76.6519997
   1.0329992  84.8684990  76.4539997   0.7389992  85.7814990  75.9579997
   0.7709992  84.7554990  77.4959997   0.7869992  83.9654990  75.9139997
   0.2049992  82.2614990  73.1089997   1.5689992  80.5494990  74.4189997
   3.9159992  81.5384990  69.9159997   4.6159992  82.7134990  70.0879997
   5.4979992  82.8254990  70.9199997   4.1909992  83.6594990  69.0969997
   4.9409992  84.4744990  69.0069997   3.2429992  84.1584990  69.3939997
   3.9509992  83.0554990  67.6939997   3.7779992  83.8964990  66.9889997
   2.9899992  82.4994990  67.6739997   5.1479992  82.2644990  67.0789997
   5.3699992  81.4044990  67.7459997   5.9449992  83.0254990  66.9399997
   4.8189992  81.5584990  65.7349997   5.5919992  80.7824990  65.5439997
   4.9639992  82.3894990  65.0129997   3.4129992  80.9574990  65.5759997
   2.6899992  81.7994990  65.5289997   3.3099992  80.2244990  66.4049997
   3.4119992  80.1684990  64.2179997   4.4269992  79.7204990  64.1719997
   3.4029992  80.8604990  63.3489997   2.4849992  78.9774990  63.9739997
   2.5869992  78.1894990  64.7499997   2.7549992  78.5334990  62.9919997
   1.0629992  79.5464990  63.9949997   0.8899992  79.7584990  65.0609997
   0.1989992  79.8524990  63.0729997  -0.7670008  80.2504990  63.4169997
   0.4209992  79.6074990  61.6489997   0.0009992  78.6184990  61.3659997
   1.4799992  79.7784990  61.3599997  -0.3780008  80.7054990  60.8289997
  -0.0290008  81.7374990  61.0499997  -1.4590008  80.6394990  61.0779997
  -0.4080008  80.5394990  59.3429997  -0.9860008  79.6004990  59.2029997
   0.6519992  80.4394990  59.0279997  -1.0810008  81.6404990  58.4159997
  -1.7720008  82.2654990  59.0209997  -1.7640008  81.2824990  57.6159997
   0.0219992  82.4394990  57.7469997   0.6709992  81.8384990  57.0749997
   0.5659992  82.9454990  58.5729997  -0.5710008  83.6744990  57.0269997
   0.1449992  84.4444990  56.6679997  -1.1260008  84.2514990  57.7979997
  -1.3760008  83.3674990  55.7389997  -1.8520008  84.3084990  55.3879997
  -2.1490008  82.6324990  56.0479997  -0.3660008  82.8734990  54.6769997
   0.0089992  81.8974990  55.0549997   0.4789992  83.5774990  54.5219997
  -0.9650008  82.6404990  53.7709997 128.7099992  39.7234990  57.6069997
 129.6759992  39.3124990  57.2439997 127.9359992  38.9614990  57.3729997
 128.8899992  39.8604990  58.6939997 128.2959992  41.1754990  57.0879997
 128.8879992  41.8154990  57.7769997 128.5129992  41.3394990  56.0109997
 126.8139992  41.5604990  57.2849997 126.6959992  42.6264990  56.9939997
 126.2389992  40.8684990  56.6339997 126.3569992  41.5634990  58.6999997
 125.2729992  41.8054990  58.7179997 126.3919992  40.5474990  59.1479997
 126.8959992  42.6314990  59.7119997 127.9979992  42.5094990  59.6289997
 126.4289992  43.5404990  59.2759997 126.5439992  42.4894990  61.1569997
 127.0179992  41.5414990  61.4899997 127.0749992  43.2454990  61.7739997
 125.0659992  42.3794990  61.5309997 124.6169992  43.3664990  61.2909997
 124.5989992  41.6214990  60.8669997 124.8509992  42.0564990  62.9959997
 125.4059992  41.1294990  63.2569997 125.1959992  42.8114990  63.7339997
 123.3639992  41.7904990  63.3409997 122.7929992  42.7334990  63.2079997
 123.0519992  40.9194990  62.7249997 123.1749992  41.3544990  64.8239997
 123.2569992  42.2454990  65.4809997 122.1429992  40.9424990  64.7949997
 124.1369992  40.3064990  65.2509997 124.0309992  39.4324990  64.5719997
 125.0979992  40.8474990  65.3869997 123.8819992  39.9274990  66.7549997
 124.1369992  40.7614990  67.4429997 122.8249992  39.5864990  66.7869997
 124.8419992  38.7284990  67.2689997 124.6189992  37.8464990  66.6309997
 125.8099992  39.2464990  67.0999997 124.6399992  38.4274990  68.8189997
 125.0379992  39.2994990  69.3809997 123.5699992  38.2604990  69.0669997
 125.4299992  37.1754990  69.2999997 125.2039992  37.0344990  70.3779997
 125.0029992  36.3044990  68.7569997 126.9799992  37.3894990  69.1249997
 127.7369992  36.6654990  68.5599997 127.2279992  38.3424990  69.9539997
 128.6319992  38.2674990  70.3529997 129.1329992  37.2794990  70.4349997
 129.2489992  38.8734990  69.6559997 128.6789992  39.0874990  71.6769997
 129.7509992  39.1944990  71.9479997 127.9679992  38.4204990  72.9079997
 127.9929992  37.3434990  72.6379997 128.3659992  38.5084990  73.9409997
 126.5889992  38.6744990  72.9139997 125.6849992  38.2224990  74.1279997
 125.8239992  39.4154990  75.2189997 125.5119992  40.7294990  74.6619997
 125.8499992  40.9224990  73.6219997 124.4149992  40.8844990  74.7439997
 126.1289992  41.9784990  75.4579997 126.0549992  42.8894990  74.8819997
 125.5179992  42.2084990  76.3189997 127.5879992  41.9374990  75.8469997
 127.8429992  40.7914990  76.8609997 127.0499992  40.8844990  77.5889997
 127.7829992  39.8754990  76.2919997 128.8089992  40.9264990  77.3249997
 128.3749992  41.7024990  74.5509997 128.4539992  40.6504990  74.3189997
 128.0349992  42.2484990  73.6839997 129.4029992  41.9514990  74.7659997
 127.9929992  43.2634990  76.4579997 127.5069992  43.4744990  77.3979997
 127.9129992  44.0804990  75.7549997 128.9869992  43.0414990  76.8159997
 124.2549992  38.0044990  73.6609997 126.2949992  37.0474990  74.7119997
 128.0819992  40.3544990  71.4299997 128.8039992  41.3344990  70.8699997
 130.0029992  41.2524990  70.5159997 127.9939992  42.6724990  70.6689997
 128.5389992  43.4664990  70.1139997 127.5719992  43.1914990  71.5549997
 126.7359992  42.2914990  69.7139997 126.0059992  43.1284990  69.6969997
 126.1769992  41.3344990  69.7909997 127.0759992  42.4254990  68.1819997
 127.5069992  43.4414990  68.0549997 126.1649992  42.1394990  67.6139997
 128.1259992  41.4124990  67.5449997 127.9049992  40.3474990  67.7719997
 129.1059992  41.6274990  68.0219997 128.3659992  41.6184990  66.0229997
 128.6719992  42.6664990  65.8199997 127.3729992  41.4244990  65.5619997
 129.4849992  40.7014990  65.4039997 130.4089992  40.9134990  65.9839997
 129.5089992  40.9724990  64.3269997 129.3029992  39.1924990  65.6339997
 129.2019992  39.0794990  66.7349997 130.1339992  38.6524990  65.1319997
 128.0239992  38.5264990  65.1519997 127.5999992  37.9314990  65.9739997
 127.4849992  38.4364990  63.9289997 126.4819992  37.9874990  63.8769997
 128.0669992  38.9954990  62.6609997 129.0199992  39.5404990  62.8279997
 127.3609992  39.7284990  62.2129997 128.3359992  37.8994990  61.5909997
 129.1569992  37.2364990  61.9389997 128.8369992  38.3464990  60.7049997
 127.0329992  37.2484990  61.0289997 126.2069992  37.9724990  60.8659997
 126.5619992  36.5874990  61.7889997 127.2859992  36.3444990  59.8629997
 128.0689992  35.6404990  60.2169997 127.7739992  36.9614990  59.0789997
 126.1379992  35.4314990  59.4329997 125.4899992  35.3074990  60.3269997
 126.5879992  34.4464990  59.1839997 125.1879992  36.0054990  58.3429997
 124.6259992  36.8834990  58.7259997 124.4219992  35.2264990  58.1439997
 125.9299992  36.2514990  57.0429997 126.5169992  35.3404990  56.7999997
 126.4709992  37.2174990  57.1419997 125.1399992  36.5464990  55.7539997
 124.2689992  37.2044990  55.9609997 124.7069992  35.5744990  55.4369997
 125.7719992  36.9574990  54.9369997  15.6159992 103.2994990  54.8299997
  16.5119992 103.1754990  54.1849997  14.9069992 103.9974990  54.3359997
  15.0799992 102.3474990  55.0329997  16.0819992 103.9014990  56.2029997
  17.1089992 103.5134990  56.3759997  16.1059992 105.0094990  56.1219997
  15.0239992 103.7224990  57.3799997  14.1299992 104.3074990  57.0739997
  14.7909992 102.6364990  57.3629997  15.6759992 104.0524990  58.7669997
  15.7779992 105.1294990  59.0209997  14.9219992 103.7244990  59.5139997
  16.9669992 103.2194990  58.9619997  16.6959992 102.1424990  58.9629997
  17.7569992 103.5564990  58.2579997  17.6609992 103.5254990  60.3779997
  18.4739992 102.7674990  60.3649997  18.1529992 104.5214990  60.3719997
  16.6979992 103.5304990  61.5769997  15.9429992 104.3414990  61.6569997
  16.0279992 102.6564990  61.4289997  17.4389992 103.5624990  62.9249997
  16.6879992 103.1814990  63.6499997  18.3449992 102.9214990  62.8879997
  17.9299992 104.8824990  63.4149997  18.2419992 105.5024990  62.5469997
  17.0289992 105.4374990  63.7539997  19.0869992 104.7074990  64.3919997
  19.9079992 104.0974990  63.9589997  19.4109992 105.7634990  64.5149997
  18.6529992 104.0604990  65.7249997  18.5049992 102.9674990  65.5879997
  19.4979992 104.2894990  66.4089997  17.3479992 104.5504990  66.2819997
  16.9589992 105.5694990  66.0699997  16.5509992 103.9274990  65.8229997
  17.2079992 104.1884990  67.8269997  17.2599992 103.1054990  68.0709997
  17.9869992 104.7424990  68.3929997  15.8479992 104.6964990  68.3389997
  15.8409992 105.8064990  68.3699997  15.1189992 104.2864990  67.6079997
  15.5699992 104.3094990  69.7889997  15.9329992 103.2594990  69.7639997
  16.1989992 104.8824990  70.5029997  14.0329992 104.2384990  70.1869997
  13.1999992 105.0814990  69.8969997  13.8149992 103.0754990  70.8719997
  12.4689992 102.8734990  71.2989997  12.3479992 103.3604990  72.2899997
  11.7709992 103.3814990  70.5989997  12.2759992 101.3454990  71.4589997
  11.2119992 101.0554990  71.5899997  13.0679992 100.8424990  72.7779997
  12.7319992 101.4774990  73.6259997  12.9719992  99.7534990  72.9739997
  14.4399992 100.9754990  72.4879997  15.5069992 101.1284990  73.6539997
  14.9909992 102.3734990  74.4319997  15.1999992 103.7444990  74.0579997
  16.1379992 103.8654990  73.4739997  14.3969992 104.2294990  73.4629997
  15.3749992 104.5814990  75.3139997  15.6869992 105.5414990  74.9289997
  14.4199992 104.6194990  75.8169997  16.4379992 104.2504990  76.3969997
  17.7409992 103.9634990  75.7139997  18.1189992 104.9044990  75.3429997
  18.4209992 103.4224990  76.3549997  17.5499992 103.3094990  74.8759997
  16.6099992 105.3954990  77.3579997  15.7299992 105.5414990  77.9669997
  17.4419992 105.1854990  78.0139997  16.7499992 106.2964990  76.7799997
  15.9149992 103.1484990  77.3359997  15.5609992 102.2464990  76.8569997
  15.0649992 103.4804990  77.9139997  16.6419992 102.8074990  78.0579997
  15.3079992 100.0194990  74.5959997  16.8539992 101.4104990  73.1259997
  12.7539992 100.7024990  70.3189997  12.1609992 100.7494990  69.1689997
  11.0359992 101.0984990  68.8979997  13.0259992 100.0084990  68.0959997
  12.3549992  99.4954990  67.3739997  13.6199992  99.1964990  68.5659997
  13.9349992 100.9134990  67.2059997  14.5659992 100.2534990  66.5719997
  14.6369992 101.4944990  67.8429997  13.1799992 101.9404990  66.3559997
  12.8229992 102.8244990  66.9259997  12.2629992 101.3884990  66.0589997
  13.8799992 102.3694990  65.0869997  13.7759992 101.6334990  64.2609997
  14.9609992 102.4484990  65.3309997  13.4429992 103.7904990  64.5839997
  14.3189992 104.2184990  64.0509997  13.3519992 104.5594990  65.3809997
  12.2439992 103.6664990  63.7069997  11.4799992 103.0484990  64.2249997
  12.4809992 103.1704990  62.7409997  11.5569992 104.9504990  63.3159997
  12.1129992 105.2674990  62.4069997  11.7439992 105.7374990  64.0769997
  10.0799992 105.1044990  62.9819997   9.4019992 104.9334990  63.8319997
   9.5959992 105.3484990  61.7039997   8.5049992 105.2914990  61.5719997
  10.5579992 105.4604990  60.4919997  11.5889992 105.8584990  60.6119997
  10.0859992 106.1174990  59.7319997  10.8959992 104.0094990  59.9549997
  11.2859992 103.4594990  60.8379997  11.7639992 104.1744990  59.2819997
   9.7669992 103.2334990  59.2349997   9.9239992 103.4114990  58.1499997
   8.7429992 103.4884990  59.5829997  10.0599992 101.7084990  59.4729997
   9.3209992 101.0104990  59.0229997   9.8149992 101.5424990  60.5439997
  11.4909992 101.2784990  59.1119997  12.1849992 101.6304990  59.9049997
  11.7809992 101.7524990  58.1489997  11.4799992  99.7964990  58.8979997
  10.6829992  99.4804990  58.1919997  11.4119992  99.2074990  59.8369997
  12.7809992  99.4724990  58.1129997  13.6879992  99.7234990  58.7039997
  12.7139992 100.0134990  57.1449997  13.0119992  97.9494990  57.8889997
  12.0559992  97.3954990  57.7689997  13.5939992  97.5074990  58.7249997
  13.6529992  97.7274990  57.0099997   0.3359992  43.5044990  55.8939997
   0.5439992  42.5524990  55.3599997   0.5819992  44.3224990  55.1829997
  -0.7170008  43.5154990  56.2489997   1.2089992  43.4024990  57.1269997
   0.7919992  44.1674990  57.8169997   1.0229992  42.4664990  57.6959997
   2.6709992  43.4634990  56.7329997   2.9099992  42.5324990  56.1769997
   2.6879992  44.3774990  56.1009997   3.6189992  43.6294990  58.0029997
   4.3829992  44.3314990  57.6059997   2.9719992  44.1354990  58.7509997
   4.3129992  42.3584990  58.6379997   3.7009992  41.8594990  59.4189997
   4.6789992  41.6764990  57.8409997   5.6579992  42.6954990  59.3339997
   6.3859992  43.1134990  58.6059997   5.5979992  43.4474990  60.1489997
   6.2439992  41.3864990  59.9729997   6.5629992  40.6714990  59.1849997
   7.2159992  41.6954990  60.4129997   5.3329992  40.6904990  60.9669997
   4.9619992  41.4154990  61.7229997   4.4639992  40.2004990  60.4789997
   6.1929992  39.8204990  61.8359997   6.9299992  39.2884990  61.1969997
   6.7489992  40.5154990  62.5019997   5.3829992  38.7594990  62.6929997
   4.7069992  38.1654990  62.0399997   6.0639992  38.0234990  63.1709997
   4.6169992  39.2874990  63.8949997   4.0399992  40.2154990  63.6949997
   3.8889992  38.5294990  64.2549997   5.5999992  39.4204990  65.1079997
   6.1339992  38.5044990  65.4389997   6.3769992  40.1744990  64.8569997
   5.0399992  39.9544990  66.4209997   4.5919992  40.8464990  65.9339997
   4.4049992  39.1904990  66.9189997   6.1169992  40.4204990  67.3699997
   6.7899992  39.5594990  67.5719997   6.6949992  41.2694990  66.9469997
   5.4889992  40.8194990  68.7909997   4.7749992  40.0494990  69.1549997
   6.3009992  40.9294990  69.5419997   4.7589992  42.1264990  68.6199997
   5.3189992  43.1324990  68.1939997   3.5709992  42.0854990  69.1209997
   2.9289992  43.3494990  69.3309997   3.5829992  44.2464990  69.3729997
   2.3579992  43.4834990  68.3869997   1.9409992  43.4254990  70.5949997
   1.9069992  44.4924990  70.9009997   2.5159992  42.6934990  71.8139997
   3.5429992  43.1174990  71.8169997   1.8759992  43.0344990  72.6549997
   2.3099992  41.2834990  71.8289997   3.3989992  40.3804990  72.6119997
   3.0139992  40.6594990  74.0959997   3.3419992  41.7474990  74.8499997
   4.4199992  41.6994990  75.1149997   2.9909992  42.6484990  74.3019997
   2.6029992  41.6554990  76.2569997   2.7639992  42.6104990  76.7359997
   1.5369992  41.6494990  76.0859997   2.9969992  40.5324990  77.2689997
   4.4449992  40.6104990  77.6559997   4.6549992  41.6584990  77.8159997
   4.6119992  40.0544990  78.5669997   5.1319992  40.2114990  76.9249997
   2.2029992  40.8494990  78.5249997   1.1509992  40.9644990  78.3069997
   2.3659992  40.1074990  79.2919997   2.4969992  41.8344990  78.8549997
   2.6199992  39.2144990  76.7019997   3.0029992  39.0644990  75.7039997
   1.5729992  39.0264990  76.5149997   2.9669992  38.3874990  77.3029997
   3.1129992  38.9624990  72.2719997   4.7219992  40.9144990  72.4019997
   0.6789992  42.9544990  70.1489997  -0.3560008  43.2004990  70.9709997
  -0.3220008  43.9834990  71.8809997  -1.5460008  42.4114990  70.4649997
  -1.8840008  42.7974990  69.4789997  -2.3940008  42.6064990  71.1559997
  -1.2090008  40.9074990  70.5029997  -2.0850008  40.3774990  70.9349997
  -0.4540008  40.7084990  71.2929997  -0.7000008  40.3214990  69.1319997
   0.1199992  40.9764990  68.7659997  -1.5850008  40.3054990  68.4599997
  -0.1570008  38.8844990  69.3419997  -1.0330008  38.2104990  69.4529997
   0.4389992  39.0274990  70.2689997   0.7349992  38.3914990  68.2209997
   1.3989992  37.5294990  68.4449997   1.4589992  39.2114990  68.0289997
   0.0329992  38.0444990  66.9259997  -0.8780008  37.4594990  67.1779997
   0.6349992  37.4004990  66.2499997  -0.4240008  39.3394990  66.0319997
  -1.2080008  39.8254990  66.6519997  -0.9050008  38.9314990  65.1169997
   0.7049992  40.2994990  65.6509997   0.9279992  41.0384990  66.4339997
   1.3089992  40.4774990  64.5309997   2.0669992  41.2744990  64.5419997
   1.0799992  39.7884990  63.1799997   0.4299992  38.8924990  63.2809997
   2.0039992  39.5044990  62.6329997   0.2519992  40.6164990  62.2069997
   0.8779992  41.3294990  61.6289997  -0.4880008  41.2734990  62.7119997
  -0.5490008  39.8194990  61.1549997  -1.2040008  40.5024990  60.5719997
  -1.1950008  39.2654990  61.8689997   0.2409992  38.9464990  60.2379997
  -0.3340008  37.9994990  60.1499997   1.1459992  38.5824990  60.7689997
   0.5339992  39.4334990  58.7739997   0.9819992  40.4254990  58.9999997
  -0.3640008  39.6644990  58.1619997   1.3149992  38.3964990  57.9529997
   0.8739992  37.3814990  58.0529997   2.3629992  38.3034990  58.3079997
   1.2569992  38.7124990  56.4889997   1.7289992  39.7154990  56.4069997
   0.1699992  38.7434990  56.2589997   1.9949992  37.7054990  55.6999997
   2.4189992  38.0754990  54.7419997   1.3389992  36.8704990  55.3739997
   2.9099992  37.3824990  56.2419997 119.7009992  30.3124990  57.8079997
 120.4249992  31.0834990  57.4659997 118.7249992  30.7994990  58.0189997
 119.5849992  29.5694990  56.9899997 120.2089992  29.5404990  59.0029997
 119.7219992  28.5474990  59.0969997 121.3059992  29.4004990  58.8929997
 119.9619992  30.1744990  60.3789997 120.4099992  31.1484990  60.6699997
 118.8589992  30.2544990  60.4799997 120.4169992  29.2254990  61.4519997
 119.9509992  28.2164990  61.4239997 121.5049992  29.0194990  61.3599997
 120.1399992  29.8334990  62.8419997 120.4249992  30.8994990  62.9649997
 119.0569992  29.7974990  63.0879997 120.9009992  28.9224990  63.8949997
 121.9839992  29.1054990  63.7229997 120.6669992  29.3344990  64.8999997
 120.2899992  27.5374990  63.8589997 119.2019992  27.6384990  63.6579997
 120.8179992  26.9814990  63.0549997 120.4339992  26.7454990  65.1059997
 120.0849992  27.3574990  65.9649997 119.8029992  25.8314990  65.1219997
 121.8349992  26.2664990  65.4219997 122.1529992  25.4614990  64.7259997
 122.6309992  27.0384990  65.3429997 121.9209992  25.7314990  66.9079997
 121.4149992  26.4584990  67.5789997 121.4549992  24.7244990  66.9569997
 123.3989992  25.5324990  67.4019997 124.0069992  25.3964990  66.4819997
 123.8449992  26.3794990  67.9669997 123.4659992  24.2714990  68.2679997
 123.0199992  23.4604990  67.6539997 124.5079992  23.9304990  68.4479997
 122.8369992  24.1994990  69.6289997 121.7519992  24.2734990  69.4019997
 123.0529992  23.2094990  70.0839997 123.3559992  25.0884990  70.6749997
 123.6969992  24.4824990  71.5419997 124.3429992  25.3804990  70.2559997
 122.3839992  26.1814990  71.0069997 121.9249992  26.5604990  70.0689997
 121.5009992  25.7754990  71.5449997 123.0859992  27.3964990  71.6079997
 124.0189992  27.9094990  71.0579997 122.4219992  27.8834990  72.6249997
 122.9749992  29.1424990  73.1319997 123.9099992  28.9664990  73.7049997
 123.1599992  29.8464990  72.2919997 122.0359992  29.8574990  74.0809997
 122.5149992  30.6894990  74.6409997 121.5089992  28.9554990  75.2359997
 122.3649992  28.4504990  75.7329997 121.1809992  29.6394990  76.0479997
 120.4689992  28.1614990  74.8109997 120.4749992  26.6894990  75.3269997
 119.0109992  26.1494990  74.8169997 118.5609992  26.7514990  73.6009997
 119.3829992  26.8594990  72.8629997 117.8199992  26.0204990  73.2099997
 117.7299992  28.0784990  73.8959997 118.4799992  28.7504990  74.2849997
 117.2519992  28.4514990  73.0019997 116.5209992  27.9424990  74.8979997
 117.1099992  27.7814990  76.3039997 116.3899992  27.9114990  77.0979997
 117.5179992  26.7964990  76.4769997 117.9309992  28.4794990  76.3779997
 115.6389992  29.1274990  74.9189997 115.9489992  29.9454990  75.5519997
 115.6089992  29.5524990  73.9269997 114.6209992  28.9554990  75.2349997
 115.6519992  26.7724990  74.5769997 115.0309992  27.0804990  73.7489997
 114.9899992  26.6684990  75.4239997 116.3299992  25.9454990  74.4269997
 121.4749992  25.9634990  74.5139997 120.5199992  26.5844990  76.8079997
 120.9799992  30.3374990  73.2559997 120.2209992  31.3454990  73.6539997
 120.3319992  31.9634990  74.6749997 119.2209992  31.6354990  72.5549997
 118.7269992  32.5824990  72.8629997 118.5859992  30.7294990  72.4549997
 119.8499992  31.9384990  71.1229997 120.4669992  32.8594990  71.1979997
 119.0499992  32.3154990  70.4499997 120.6289992  30.8494990  70.4329997
 121.6069992  30.7424990  70.9479997 121.0449992  31.3134990  69.5129997
 119.7999992  29.5844990  70.1159997 119.3939992  29.0354990  70.9919997
 120.5659992  28.9054990  69.6839997 118.6289992  29.7364990  69.1319997
 117.8539992  30.3364990  69.6549997 118.2069992  28.7294990  68.9259997
 118.9899992  30.4994990  67.8499997 120.0619992  30.3134990  67.6239997
 118.9169992  31.5754990  68.1149997 118.2629992  30.2184990  66.4459997
 118.2949992  29.1074990  66.4559997 118.7779992  30.5874990  65.5339997
 116.7959992  30.8014990  66.2339997 116.6909992  31.8754990  66.4439997
 115.7369992  30.2184990  65.6929997 114.7719992  30.7234990  65.5399997
 115.7489992  28.7204990  65.2149997 115.2539992  28.0194990  65.9209997
 116.8089992  28.3894990  65.2059997 115.1369992  28.4164990  63.7799997
 114.0959992  28.7654990  63.6129997 115.1089992  27.3064990  63.7299997
 116.0329992  29.0974990  62.7179997 117.0939992  28.7734990  62.7769997
 116.0679992  30.1994990  62.8559997 115.7769992  28.7774990  61.2309997
 116.4839992  29.3384990  60.5839997 114.7159992  28.8254990  60.9049997
 116.2219992  27.3994990  60.8269997 115.5879992  26.7214990  61.4379997
 117.2749992  27.2624990  61.1539997 116.2169992  27.0004990  59.2849997
 116.8279992  27.8574990  58.9289997 115.2049992  27.0184990  58.8269997
 116.7509992  25.5364990  58.9289997 116.2259992  24.8024990  59.5779997
 117.7889992  25.5784990  59.3219997 116.9419992  25.0724990  57.4669997
 117.1069992  23.9744990  57.5159997 117.7859992  25.6444990  57.0269997
 116.1319992  25.2854990  56.7369997  28.3719992  -2.2055010  53.4629997
  28.1159992  -2.6385010  54.4529997  29.4309992  -2.3785010  53.1759997
  27.6959992  -2.5185010  52.6379997  28.3239992  -0.6935010  53.6619997
  28.7349992  -0.2945010  54.6139997  29.0569992  -0.2845010  52.9329997
  26.9279992  -0.0815010  53.4199997  27.0719992   1.0194990  53.4579997
  26.5149992  -0.3975010  52.4379997  25.8519992  -0.4045010  54.5639997
  24.9639992   0.0884990  54.1129997  25.7009992  -1.5045010  54.5639997
  26.2319992   0.1704990  55.8679997  27.2299992  -0.1295010  56.2549997
  26.3799992   1.2674990  55.7749997  25.1169992  -0.1295010  56.9559997
  25.4229992   0.4724990  57.8379997  24.1069992   0.2824990  56.7449997
  24.8529992  -1.6245010  57.1919997  24.0149992  -1.6445010  57.9219997
  24.4769992  -2.1855010  56.3099997  25.9919992  -2.4475010  57.8049997
  25.6329992  -3.4735010  58.0359997  26.7929992  -2.4695010  57.0359997
  26.7319992  -1.9435010  59.0599997  27.6329992  -2.5715010  59.2289997
  27.0549992  -0.8865010  58.9459997  25.8479992  -1.9125010  60.3649997
  24.9639992  -1.3435010  60.0059997  25.5619992  -2.9675010  60.5639997
  26.3729992  -1.3845010  61.6689997  26.6559992  -0.3365010  61.4309997
  25.5649992  -1.2725010  62.4219997  27.4839992  -1.9765010  62.5619997
  27.0059992  -2.7355010  63.2169997  28.1729992  -2.5405010  61.8979997
  28.3579992  -0.9695010  63.3259997  29.2479992  -1.3795010  63.8499997
  28.7339992  -0.2075010  62.6099997  27.5239992  -0.2185010  64.3339997
  26.8989992   0.5854990  63.8899997  26.7939992  -0.8425010  64.8919997
  28.3719992   0.5164990  65.3749997  29.3789992   0.7114990  64.9469997
  27.7609992   1.3624990  65.7569997  28.6079992  -0.4425010  66.5999997
  28.7169992  -1.6565010  66.5869997  28.8139992   0.3154990  67.6149997
  28.9589992  -0.4105010  68.8669997  28.8559992  -1.5095010  68.7459997
  30.0049992  -0.2595010  69.2089997  27.8029992  -0.1815010  70.0599997
  27.7509992   0.9254990  70.1329997  28.2509992  -0.8145010  71.4099997
  28.1829992  -1.9185010  71.3099997  29.2999992  -0.5355010  71.6479997
  27.3689992  -0.3725010  72.4209997  27.4349992   1.1874990  72.7879997
  27.1019992   1.1474990  74.3139997  26.3089992   2.1924990  74.9049997
  26.7189992   3.2134990  74.7479997  25.2639992   2.0814990  74.5429997
  26.3029992   1.9564990  76.4459997  27.2889992   2.2454990  76.7779997
  25.7259992   2.7694990  76.8609997  25.8409992   0.5954990  77.0419997
  27.0299992  -0.3755010  77.0589997  27.3889992  -0.6735010  76.0849997
  27.8679992   0.1174990  77.5299997  26.6569992  -1.2585010  77.5569997
  25.4749992   0.8224990  78.4649997  26.3899992   0.8184990  79.0389997
  24.8929992   1.7304990  78.5029997  24.9409992  -0.0005010  78.9179997
  24.6649992   0.0214990  76.3419997  24.9569992  -0.2845010  75.3479997
  23.8279992   0.7024990  76.2899997  24.3809992  -0.8785010  76.8679997
  28.8209992   1.6754990  72.6649997  26.3849992   1.9394990  72.0259997
  26.5689992  -0.7725010  69.6309997  25.7869992  -0.1265010  68.7609997
  25.9769992   0.9694990  68.2999997  24.6149992  -1.0065010  68.4409997
  23.9969992  -1.1765010  69.3479997  24.9059992  -2.0045010  68.0489997
  23.7369992  -0.5365010  67.2289997  22.8859992  -1.2065010  66.9849997
  24.3959992  -0.3395010  66.3559997  22.9669992   0.6844990  67.7009997
  23.6669992   1.3494990  68.2499997  22.2089992   0.4224990  68.4709997
  22.3849992   1.4634990  66.4839997  23.2229992   1.8614990  65.8709997
  21.7599992   2.2734990  66.9159997  21.5169992   0.6184990  65.5719997
  20.6949992   0.3454990  66.2679997  22.0699992  -0.2845010  65.2369997
  20.9539992   1.2844990  64.3119997  20.4529992   2.2154990  64.6519997
  20.1569992   0.6334990  63.8909997  22.0189992   1.7024990  63.2199997
  22.6219992   0.8034990  62.9699997  22.7339992   2.3494990  63.7709997
  21.4399992   2.1964990  61.8559997  20.4419992   1.8494990  61.5509997
  22.0269992   3.1124990  61.0329997  21.5829992   3.3184990  60.0479997
  23.3419992   3.7994990  61.2619997  23.7729992   3.3774990  62.1959997
  23.2849992   4.9074990  61.3049997  24.3299992   3.3344990  60.1839997
  23.9179992   3.5344990  59.1719997  24.2849992   2.2324990  60.3169997
  25.7369992   3.9424990  60.4449997  26.1389992   3.7634990  61.4649997
  25.5299992   5.0324990  60.3919997  26.9159992   3.5384990  59.5139997
  27.5149992   4.4734990  59.5069997  26.5779992   3.5484990  58.4559997
  27.7279992   2.3634990  60.0099997  26.9309992   1.7474990  60.4779997
  28.4429992   2.6664990  60.8049997  28.4369992   1.5534990  58.9749997
  27.7409992   1.2934990  58.1499997  28.7329992   0.5964990  59.4559997
  29.6559992   2.1154990  58.3569997  30.5379992   1.8444990  58.9759997
  29.5379992   3.2184990  58.4049997  30.0329992   1.7364990  56.8989997
  29.2049992   1.8264990  56.1639997  30.1929992   0.6394990  56.9729997
  30.9899992   2.2054990  56.5839997 131.9509992 104.5534990  55.1249997
 133.0329992 104.4234990  54.9079997 131.6879992 105.6254990  55.2569997
 131.3849992 104.0714990  54.2999997 131.4749992 103.8474990  56.3709997
 130.3699992 103.8984990  56.4809997 131.6299992 102.7654990  56.1739997
 132.2669992 104.3204990  57.6119997 133.2729992 103.8494990  57.6549997
 132.4169992 105.4144990  57.7279997 131.5639992 103.9484990  58.9619997
 130.6809992 104.6004990  59.1359997 131.1959992 102.9024990  58.8989997
 132.5189992 104.1034990  60.1169997 131.8919992 103.8454990  60.9959997
 133.1699992 103.2044990  60.0699997 133.0899992 105.4564990  60.1299997
 133.8339992 105.5304990  59.3079997 132.3609992 106.2904990  60.0549997
 133.8859992 105.6944990  61.4309997 134.5779992 104.8314990  61.5299997
 134.3919992 106.6794990  61.3389997 132.9599992 105.8414990  62.6039997
 132.2359992 106.6704990  62.4519997 132.3549992 104.9394990  62.8399997
 133.6359992 106.3474990  63.8999997 134.3619992 107.1764990  63.7559997
 132.8019992 106.7864990  64.4879997 134.2099992 105.1484990  64.8159997
 133.3429992 104.4764990  64.9889997 134.9289992 104.4774990  64.2999997
 134.7479992 105.7284990  66.1359997 135.6449992 106.3744990  66.0189997
 133.9649992 106.4054990  66.5389997 135.0869992 104.7444990  67.3079997
 134.2409992 104.0264990  67.3739997 136.0029992 104.1854990  67.0189997
 135.2579992 105.5014990  68.6179997 135.5369992 104.6544990  69.2809997
 136.0799992 106.2494990  68.6359997 133.9839992 106.2874990  68.9459997
 133.9329992 107.2014990  68.3169997 133.0419992 105.7234990  68.7739997
 134.0049992 106.7964990  70.3959997 134.0849992 105.8844990  71.0249997
 134.9799992 107.3284990  70.4179997 133.0099992 107.7904990  70.8569997
 131.9899992 108.2044990  70.3309997 133.5689992 108.2254990  72.0109997
 132.7889992 109.0604990  72.8379997 133.5239992 109.6694990  73.4059997
 132.2429992 109.8014990  72.2149997 131.7639992 108.3994990  73.8119997
 131.2619992 109.1904990  74.4089997 132.4779992 107.3314990  74.7039997
 133.3589992 107.8854990  75.0939997 131.8829992 106.9214990  75.5469997
 132.7839992 106.2914990  73.8549997 133.1759992 104.8404990  74.3329997
 131.8189992 104.1304990  73.9899997 131.7539992 102.7104990  73.9389997
 131.0799992 102.4404990  73.0979997 132.6979992 102.1924990  73.6649997
 131.0809992 102.2024990  75.2479997 130.8129992 101.1714990  75.0679997
 131.8339992 102.3644990  76.0059997 129.8449992 102.8584990  75.7969997
 128.9119992 103.2264990  74.6879997 129.3659992 104.0014990  74.0879997
 128.7459992 102.3364990  74.0989997 127.9749992 103.6194990  75.0549997
 129.1239992 101.9074990  76.7629997 129.7909992 101.6314990  77.5669997
 128.3309992 102.4624990  77.2429997 128.6509992 101.0704990  76.2709997
 130.1889992 104.0064990  76.6269997 130.5639992 104.8044990  76.0039997
 131.0289992 103.5694990  77.1469997 129.2809992 104.2474990  77.1609997
 134.2339992 104.3544990  73.4399997 133.4439992 104.8764990  75.7939997
 130.6929992 107.7714990  73.0159997 129.6929992 107.2024990  73.6859997
 129.3729992 107.4394990  74.8599997 128.9119992 106.2964990  72.6699997
 128.0179992 106.8544990  72.3179997 128.5379992 105.4494990  73.2839997
 129.6859992 105.7104990  71.4349997 130.7459992 105.5114990  71.7019997
 129.6539992 106.3864990  70.5539997 129.1719992 104.3344990  70.9879997
 128.0639992 104.3974990  71.0459997 129.4639992 103.5804990  71.7499997
 129.5659992 103.8104990  69.5789997 130.6389992 104.0374990  69.4029997
 128.9749992 104.3804990  68.8299997 129.2909992 102.2564990  69.4809997
 128.1829992 102.1824990  69.5119997 129.6589992 101.7304990  70.3879997
 129.9329992 101.6754990  68.2229997 130.0809992 100.5744990  68.2389997
 130.9239992 102.1584990  68.0879997 129.1879992 102.1724990  66.9059997
 128.7779992 103.1924990  67.0699997 128.2619992 101.5714990  66.7809997
 130.0419992 102.1864990  65.6089997 130.3859992 101.2064990  65.2449997
 130.3659992 103.3534990  65.0199997 130.8869992 103.2324990  64.0589997
 129.9999992 104.7604990  65.3639997 130.8289992 105.3854990  64.9689997
 130.0609992 104.9334990  66.4599997 128.6999992 105.1664990  64.7139997
 128.5779992 106.2394990  64.9739997 127.9409992 104.5714990  65.2649997
 128.5169992 104.9894990  63.2589997 127.5329992 105.2894990  62.8409997
 128.7019992 103.9354990  62.9609997 129.4239992 105.8524990  62.3069997
 130.1869992 105.2074990  61.8219997 129.9939992 106.5804990  62.9219997
 128.6039992 106.6014990  61.2849997 127.9339992 107.3384990  61.7779997
 128.0099992 105.7884990  60.8169997 129.4489992 107.4144990  60.2749997
 130.2919992 106.8434990  59.8299997 129.9189992 108.2784990  60.7919997
 128.6839992 107.9244990  59.1089997 127.9219992 108.6254990  59.5119997
 128.1429992 107.0784990  58.6329997 129.4219992 108.6084990  58.0209997
 129.4189992 109.7124990  58.1439997 129.0489992 108.5424990  56.9759997
 130.4859992 108.2954990  57.9669997  30.3029992 122.8264990  54.5329997
  30.5019992 123.5794990  53.7409997  31.2819992 122.8974990  55.0519997
  29.4319992 123.0354990  55.1909997  30.0279992 121.5104990  53.8409997
  29.0169992 121.5674990  53.3849997  30.6869992 121.4154990  52.9509997
  30.3289992 120.3474990  54.8579997  30.1229992 119.3644990  54.3829997
  31.3899992 120.5164990  55.1379997  29.5029992 120.3824990  56.1509997
  29.5759992 121.3354990  56.7169997  28.4759992 120.1604990  55.7879997
  30.0289992 119.3344990  57.2079997  29.5859992 118.4104990  56.7779997
  31.1159992 119.1304990  57.1059997  29.6659992 119.6304990  58.6879997
  29.7689992 118.7144990  59.3079997  30.1939992 120.5044990  59.1259997
  28.1409992 119.9914990  58.8779997  28.1179992 121.0104990  58.4369997
  27.5729992 119.2534990  58.2729997  27.6289992 119.9014990  60.3369997
  27.8759992 118.8674990  60.6599997  28.1449992 120.7534990  60.8289997
  26.1309992 120.2524990  60.4429997  25.9779992 121.2494990  59.9779997
  25.5359992 119.5534990  59.8159997  25.5469992 120.1884990  61.8679997
  24.4519992 120.3464990  61.7669997  25.6879992 119.2044990  62.3629997
  26.1219992 121.2794990  62.8199997  27.2259992 121.2914990  62.9449997
  25.8529992 122.1744990  62.2189997  25.4729992 121.3224990  64.1849997
  25.3859992 122.3654990  64.5579997  24.4199992 120.9814990  64.0879997
  26.2059992 120.3504990  65.1939997  26.2669992 119.3224990  64.7779997
  27.2599992 120.5864990  65.4579997  25.4249992 120.1044990  66.5179997
  25.5629992 121.0644990  67.0589997  24.3659992 119.8024990  66.3689997
  26.1089992 118.9574990  67.3389997  25.3669992 118.7124990  68.1289997
  26.2099992 118.0254990  66.7429997  27.4039992 119.4144990  67.9259997
  28.4749992 119.6134990  67.3519997  27.2439992 119.7684990  69.2439997
  28.4329992 120.1674990  70.0069997  28.3919992 119.6144990  70.9699997
  29.3799992 119.8554990  69.5179997  28.5699992 121.6964990  70.3699997
  29.5749992 121.9134990  70.7919997  27.5079992 122.0924990  71.4809997
  26.4899992 122.1414990  71.0399997  27.5819992 121.2804990  72.2369997
  27.7629992 123.4394990  71.9589997  27.3899992 123.9204990  73.3939997
  27.7869992 122.8454990  74.4359997  29.1009992 122.2704990  74.5099997
  29.4759992 122.1914990  73.4669997  29.7689992 122.9234990  75.1099997
  29.0969992 120.9164990  75.2079997  28.7079992 120.0984990  74.6199997
  30.1359992 120.6444990  75.3249997  28.5069992 120.8024990  76.5889997
  29.1709992 121.7834990  77.5579997  28.8479992 122.7654990  77.2429997
  28.8289992 121.6314990  78.5709997  30.2439992 121.7614990  77.4379997
  27.0249992 121.0464990  76.5109997  26.6589992 121.1194990  77.5239997
  26.8099992 121.8904990  75.8729997  26.6259992 120.2234990  75.9369997
  28.7429992 119.4414990  77.1709997  29.7739992 119.2414990  77.4229997
  28.5729992 118.7074990  76.3979997  28.0149992 119.1884990  77.9279997
  28.1489992 125.2004990  73.7249997  25.9359992 123.9014990  73.4099997
  28.4369992 122.4934990  69.1859997  29.5089992 122.4914990  68.3369997
  30.5569992 121.9364990  68.6199997  29.1129992 123.0914990  67.0159997
  29.0339992 124.1934990  67.1409997  28.0769992 122.7954990  66.7439997
  30.0259992 122.5474990  65.9069997  30.0739992 121.4404990  65.9919997
  31.0689992 122.8814990  66.0919997  29.4639992 123.0524990  64.5269997
  29.6569992 124.1464990  64.5229997  28.3729992 122.8564990  64.4609997
  30.1659992 122.3804990  63.3149997  29.9549992 121.2944990  63.2139997
  31.2699992 122.3964990  63.4439997  29.8189992 122.9394990  61.8899997
  28.7179992 123.0854990  61.8749997  29.9029992 122.2164990  61.0499997
  30.5439992 124.1824990  61.3869997  31.6099992 123.8974990  61.2549997
  30.5949992 124.8124990  62.2999997  29.8839992 124.8554990  60.2059997
  28.8069992 124.9434990  60.4609997  29.9389992 124.1714990  59.3319997
  30.6869992 126.0524990  59.8009997  31.7539992 125.8284990  59.6559997
  30.2689992 127.3324990  59.7539997  31.0129992 128.0954990  59.4809997
  28.8239992 127.8444990  60.0359997  28.7879992 128.8864990  60.4189997
  28.2979992 127.2054990  60.7769997  27.9409992 128.0314990  58.8219997
  28.3699992 128.6604990  58.0129997  27.0969992 128.7404990  58.9599997
  27.3379992 126.7554990  58.2089997  26.4109992 126.9314990  57.6209997
  27.0579992 126.0214990  58.9939997  28.1859992 126.0944990  57.1259997
  29.0849992 125.6294990  57.5839997  28.5789992 126.9184990  56.4939997
  27.3759992 125.1544990  56.1699997  28.0159992 124.8634990  55.3099997
  26.4989992 125.7784990  55.8969997  26.8469992 123.8534990  56.7979997
  26.2509992 124.1994990  57.6699997  27.7819992 123.4044990  57.1949997
  26.1649992 122.7584990  55.9849997  26.1669992 121.7994990  56.5449997
  26.7879992 122.6304990  55.0739997  24.6599992 123.0644990  55.6119997
  24.3339992 122.1404990  55.0879997  24.6459992 123.9184990  54.9019997
  24.1069992 123.1444990  56.5719997   8.6379992  98.2634990  52.9989997
   8.5549992  98.5164990  51.9199997   9.7019992  98.0164990  53.1999997
   8.4179992  99.1864990  53.5759997   7.7669992  97.0604990  53.3019997
   6.7679992  97.1014990  52.8179997   8.3019992  96.2024990  52.8409997
   7.6559992  96.9694990  54.7799997   7.1549992  96.0014990  54.9949997
   8.6649992  96.9844990  55.2459997   6.6319992  97.9784990  55.3939997
   7.1459992  98.9624990  55.3689997   5.7349992  98.0964990  54.7489997
   6.3359992  97.6124990  56.8759997   6.2979992  96.5024990  56.8839997
   7.2349992  97.8594990  57.4819997   5.2489992  98.4264990  57.4429997
   5.7269992  99.3514990  57.8309997   4.6269992  98.7874990  56.5969997
   4.3409992  97.6404990  58.4529997   3.6409992  97.0264990  57.8459997
   4.9649992  97.0204990  59.1319997   3.4459992  98.5834990  59.2589997
   2.7539992  99.1074990  58.5649997   2.7069992  97.9654990  59.8109997
   4.2139992  99.6114990  60.1869997   4.7739992 100.2524990  59.4729997
   3.4779992 100.2264990  60.7489997   5.3189992  99.1314990  61.0789997
   4.9619992  98.2154990  61.5949997   6.2569992  99.0824990  60.4849997
   5.8379992 100.0714990  62.2149997   6.6139992 100.7414990  61.7869997
   4.9479992 100.6454990  62.5499997   6.6959992  99.4844990  63.3079997
   6.0779992  98.8724990  63.9999997   7.4739992  98.8204990  62.8739997
   7.4139992 100.6184990  64.1819997   7.9939992 101.1984990  63.4319997
   6.6319992 101.3354990  64.5119997   8.2549992 100.2674990  65.3799997
   9.1539992  99.7414990  64.9949997   8.6699992 101.1954990  65.8289997
   7.5509992  99.3984990  66.3829997   6.5409992  99.7554990  66.6759997
   7.3749992  98.3674990  66.0069997   8.5009992  99.3324990  67.5759997
   9.3549992 100.1124990  67.9009997   8.1679992  98.2284990  68.3249997
   9.2579992  97.8364990  69.2649997   9.3669992  96.7434990  69.0959997
  10.1769992  98.4604990  69.2619997   8.7249992  97.9724990  70.7329997
   8.8729992  99.0074990  71.1079997   9.5859992  97.0954990  71.6309997
   9.2509992  96.0564990  71.4249997  10.6229992  97.2764990  71.2739997
   9.3419992  97.5004990  73.0189997  10.4959992  97.6364990  74.0439997
   9.7459992  97.2054990  75.3419997   8.8999992  96.0874990  75.3399997
   9.1779992  95.2324990  74.6889997   8.9369992  95.7954990  76.4109997
   7.3699992  96.3114990  74.9619997   7.2699992  96.5874990  73.9229997
   6.8719992  95.3604990  75.0779997   6.6899992  97.3964990  75.7759997
   6.9329992  97.1634990  77.2069997   7.9399992  96.8434990  77.4299997
   6.6829992  98.0594990  77.7569997   6.2049992  96.4844990  77.6259997
   7.2939992  98.7414990  75.3419997   6.6869992  99.5504990  75.7199997
   8.3509992  98.8744990  75.5219997   7.1909992  98.8734990  74.2749997
   5.1739992  97.4074990  75.4519997   4.8339992  96.3844990  75.5239997
   5.0779992  97.7994990  74.4509997   4.6929992  98.1794990  76.0339997
  11.5479992  96.5904990  73.8029997  10.8669992  99.0624990  74.1839997
   7.4049992  97.4284990  70.9329997   6.3889992  98.2904990  70.7679997
   6.4969992  99.4664990  70.3939997   5.0289992  97.6244990  71.1129997
   4.4069992  98.4324990  71.5539997   5.1119992  96.8324990  71.8869997
   4.4379992  96.9464990  69.8099997   4.6889992  97.5164990  68.8899997
   3.3279992  96.9584990  69.8599997   4.9369992  95.5234990  69.8399997
   4.3439992  95.0714990  70.6629997   6.0089992  95.5234990  70.1319997
   4.8159992  94.6854990  68.5459997   3.8429992  94.7844990  68.0179997
   4.9969992  93.6594990  68.9299997   5.9329992  95.0984990  67.6099997
   6.8909992  95.0184990  68.1669997   5.8969992  96.1774990  67.3469997
   5.8369992  94.3524990  66.3109997   4.8049992  94.5694990  65.9599997
   5.8319992  93.2714990  66.5659997   6.9279992  94.5814990  65.3329997
   6.7999992  95.5694990  64.8399997   6.9909992  93.8514990  64.4989997
   8.2709992  94.5144990  65.9989997   8.2729992  93.6654990  66.6999997
   9.3269992  95.2964990  65.8269997  10.2369992  95.1224990  66.4209997
   9.4249992  96.4934990  64.8499997   9.6569992  97.3764990  65.4839997
   8.5139992  96.7494990  64.2689997  10.5599992  96.3914990  63.7679997
  11.4519992  95.9544990  64.2639997  10.8999992  97.4214990  63.5269997
  10.1859992  95.5924990  62.5089997   9.5669992  94.6984990  62.7409997
  11.0869992  95.1884990  61.9999997   9.4469992  96.3514990  61.3539997
   8.5689992  96.8194990  61.8479997   9.1629992  95.6484990  60.5419997
  10.2559992  97.5294990  60.8219997  11.3289992  97.2624990  60.7189997
  10.0689992  98.3674990  61.5269997   9.7689992  98.0714990  59.4769997
   8.8379992  98.5894990  59.7939997   9.5929992  97.3404990  58.6589997
  10.4659992  99.2444990  58.8699997  11.5189992  98.9644990  58.6519997
  10.4919992 100.0564990  59.6279997   9.8369992  99.6704990  57.5489997
   9.6509992  98.8084990  56.8729997  10.6139992 100.2254990  56.9819997
   8.9799992 100.3724990  57.6299997 111.4139992 128.8174990  57.1789997
 111.2329992 128.5284990  56.1209997 112.5009992 129.0464990  57.2089997
 110.8449992 129.7694990  57.2419997 110.9309992 127.6384990  58.0579997
 109.8309992 127.7704990  58.1439997 111.1639992 126.6884990  57.5309997
 111.4309992 127.6644990  59.4839997 112.4659992 127.2814990  59.6199997
 111.6029992 128.7034990  59.8389997 110.4429992 127.0144990  60.4579997
 109.4739992 127.4924990  60.1979997 110.2769992 125.9264990  60.3079997
 110.7339992 127.3304990  61.9559997 111.7639992 126.9164990  62.0089997
 110.9399992 128.4054990  62.1439997 109.7749992 126.6974990  62.9179997
 108.8199992 127.2564990  62.8199997 109.7249992 125.6384990  62.5869997
 110.4469992 126.7364990  64.3029997 110.8259992 127.7704990  64.4519997
 109.6329992 126.6134990  65.0489997 111.4989992 125.7324990  64.4399997
 111.1869992 124.6854990  64.2399997 112.3829992 125.9494990  63.8029997
 112.0339992 125.8754990  65.8129997 112.5689992 126.8414990  65.9359997
 111.2449992 125.8574990  66.5949997 113.1029992 124.8664990  66.1939997
 112.6929992 123.8644990  65.9449997 113.9949992 125.0224990  65.5509997
 113.4719992 124.9184990  67.6589997 112.5699992 124.7014990  68.2699997
 114.1389992 124.0784990  67.9479997 114.1139992 126.2074990  68.1499997
 114.9119992 126.4434990  67.4139997 113.4169992 127.0594990  67.9999997
 114.8439992 126.2374990  69.4939997 114.1249992 125.8914990  70.2669997
 115.6699992 125.4954990  69.4549997 115.3799992 127.5334990  69.9379997
 116.1209992 127.9344990  69.2139997 114.4579992 128.1534990  69.9129997
 116.0449992 127.4614990  71.3419997 115.3519992 127.0124990  72.0849997
 116.8729992 126.7204990  71.3709997 116.6159992 128.8584990  71.7939997
 117.3429992 129.5984990  71.1939997 116.2359992 129.0334990  73.0409997
 116.3169992 130.3954990  73.5419997 117.2669992 130.3254990  74.1139997
 116.4569992 131.1964990  72.7849997 115.1649992 130.7464990  74.5149997
 115.4129992 131.7034990  75.0229997 115.0619992 129.6284990  75.6859997
 116.1499992 129.4224990  75.7659997 114.6639992 130.0694990  76.6249997
 114.2739992 128.5164990  75.2839997 114.7589992 127.0494990  75.4959997
 113.5499992 126.1574990  75.1339997 112.4559992 126.0074990  76.0589997
 112.8159992 125.2134990  76.7479997 112.2049992 126.9474990  76.5959997
 111.2149992 125.5094990  75.1639997 111.5429992 124.6184990  74.6489997
 110.4489992 125.2944990  75.8949997 110.6009992 126.4784990  74.1939997
 111.4489992 126.5794990  73.0019997 111.8149992 125.6784990  72.5319997
 110.9079992 127.0644990  72.2029997 112.3399992 127.1674990  73.1599997
 109.2279992 125.8274990  73.7859997 108.5569992 125.8864990  74.6299997
 108.7849992 126.3724990  72.9659997 109.2839992 124.7854990  73.5089997
 110.4889992 127.8214990  74.8959997 111.4679992 128.2384990  75.0779997
 109.9629992 127.7134990  75.8329997 109.7869992 128.3784990  74.2919997
 115.8349992 126.7724990  74.5149997 115.0609992 126.9164990  76.9409997
 113.9219992 130.7764990  73.7449997 112.9059992 131.3164990  74.4429997
 113.0389992 131.8404990  75.5429997 111.5989992 131.2614990  73.6169997
 111.3559992 132.3124990  73.3499997 110.8259992 130.7904990  74.2609997
 111.8789992 130.4764990  72.2749997 112.3019992 129.4714990  72.4869997
 112.5439992 131.0924990  71.6319997 110.5569992 130.2414990  71.5419997
 109.7769992 131.0314990  71.5749997 110.1609992 129.5094990  72.2779997
 110.7679992 129.5154990  70.2159997 109.7669992 129.1444990  69.9079997
 111.4389992 128.6584990  70.4389997 111.2619992 130.3474990  69.0019997
 111.9429992 131.1294990  69.3999997 110.4939992 130.9284990  68.4479997
 112.2049992 129.6224990  68.1049997 111.5549992 129.0574990  67.4019997
 112.8199992 128.9814990  68.7729997 113.0539992 130.6664990  67.2229997
 114.0679992 130.6654990  67.6789997 112.6829992 131.6934990  67.4289997
 113.0489992 130.4774990  65.7419997 112.3619992 131.1954990  65.2719997
 113.8209992 129.5774990  65.0639997 113.7679992 129.7194990  63.9749997
 114.8659992 128.6074990  65.5639997 114.5199992 127.5884990  65.2869997
 114.9339992 128.6964990  66.6699997 116.2939992 128.7484990  64.9799997
 117.0679992 128.1564990  65.5139997 116.5369992 129.8074990  65.2139997
 116.4679992 128.5344990  63.4449997 117.5269992 128.7964990  63.2359997
 115.7349992 129.2364990  62.9919997 116.2299992 127.0284990  63.0169997
 115.5619992 126.5024990  63.7319997 117.1529992 126.4354990  62.8399997
 115.5839992 126.9544990  61.6249997 116.1849992 127.6214990  60.9699997
 114.5259992 127.2904990  61.5799997 115.5719992 125.4804990  61.0749997
 114.7839992 125.0014990  61.6939997 116.5299992 125.0004990  61.3709997
 115.4199992 125.4494990  59.6279997 114.3949992 125.8154990  59.4029997
 115.4219992 124.3644990  59.3919997 116.3999992 126.0634990  58.6139997
 116.3689992 127.1744990  58.6159997 116.1029992 125.7444990  57.5919997
 117.4549992 125.7314990  58.7159997 139.1169992  43.7494990  55.5919997
 139.7229992  44.1144990  56.4479997 139.6919992  44.0184990  54.6799997
 139.1139992  42.6384990  55.5979997 137.6719992  44.3094990  55.6249997
 137.7499992  45.4134990  55.7209997 137.2129992  44.0784990  54.6399997
 136.7319992  43.6844990  56.7029997 137.1049992  44.0214990  57.6929997
 135.6909992  44.0474990  56.5659997 136.6849992  42.1434990  56.6199997
 136.6989992  41.8154990  55.5579997 137.5629992  41.6744990  57.1129997
 135.4769992  41.4704990  57.2359997 134.6329992  41.6854990  56.5469997
 135.6719992  40.3764990  57.2429997 135.2139992  41.9754990  58.6459997
 136.1769992  41.9144990  59.1969997 134.8789992  43.0314990  58.5539997
 134.0339992  41.3604990  59.4739997 133.1899992  41.5114990  58.7669997
 134.3119992  40.3064990  59.6919997 133.7979992  42.1024990  60.7479997
 134.5579992  41.6414990  61.4129997 133.9649992  43.1864990  60.5689997
 132.3429992  41.9634990  61.3829997 131.6459992  42.4634990  60.6769997
 132.0709992  40.8924990  61.5049997 132.1919992  42.4304990  62.8249997
 131.1489992  42.0834990  62.9879997 132.8819992  41.8264990  63.4519997
 132.4759992  43.9014990  63.0979997 133.5329992  44.1344990  63.3529997
 132.1129992  44.4494990  62.2029997 131.6879992  44.2404990  64.3739997
 131.5849992  45.3434990  64.4479997 130.6499992  43.8924990  64.1819997
 132.3769992  43.8354990  65.6529997 132.5979992  42.7494990  65.5829997
 133.3149992  44.4224990  65.7529997 131.5169992  44.0974990  66.8909997
 131.2029992  45.1504990  66.7259997 130.5269992  43.5944990  66.9259997
 132.2239992  43.9824990  68.2479997 133.1389992  44.6124990  68.2529997
 131.6679992  44.3964990  69.1169997 132.5499992  42.5964990  68.7029997
 131.9039992  41.6324990  68.4459997 133.4619992  42.6754990  69.7029997
 133.7029992  41.4144990  70.3139997 132.7879992  41.1194990  70.8699997
 134.0769992  40.7044990  69.5449997 134.9689992  41.5094990  71.3689997
 135.2549992  40.4524990  71.5539997 134.4939992  42.1044990  72.7329997
 133.5679992  41.6034990  73.0889997 135.2249992  41.8914990  73.5409997
 134.1289992  43.4254990  72.5249997 135.0699992  44.6674990  72.9509997
 135.5669992  44.3274990  74.5059997 135.6999992  45.4124990  75.3659997
 136.4249992  45.0874990  76.1429997 136.0719992  46.3294990  74.8619997
 134.3169992  45.6774990  76.1619997 134.2409992  46.4654990  76.8959997
 133.6169992  46.0654990  75.4369997 133.6649992  44.4504990  76.7949997
 132.8099992  44.9444990  77.9329997 132.0069992  45.5394990  77.5239997
 132.4349992  44.1114990  78.5089997 133.3569992  45.5204990  78.6639997
 132.9039992  43.5944990  75.7449997 132.4819992  42.7114990  76.2029997
 132.1579992  44.2434990  75.3099997 133.6529992  43.2204990  75.0629997
 134.8519992  43.6354990  77.3469997 135.4649992  44.3144990  77.9209997
 135.3939992  43.0874990  76.5899997 134.4049992  42.9664990  78.0679997
 136.2609992  44.7484990  72.1329997 134.2769992  45.9304990  73.0089997
 136.0759992  42.2314990  70.8049997 136.7669992  41.6624990  69.8119997
 136.3399992  40.7654990  69.0809997 138.1599992  42.2844990  69.7519997
 138.7869992  41.4874990  69.2999997 138.3979992  42.4654990  70.8219997
 137.9819992  43.4884990  68.8489997 138.9889992  43.9554990  68.8179997
 137.3579992  44.3464990  69.1779997 137.6559992  43.1694990  67.4109997
 136.6299992  42.8134990  67.1749997 138.3459992  42.3244990  67.2039997
 138.0009992  44.2074990  66.3349997 138.3579992  43.6574990  65.4379997
 138.9109992  44.8094990  66.5479997 136.8099992  45.1794990  66.0139997
 136.3409992  45.3284990  67.0109997 136.1439992  44.6014990  65.3389997
 137.0749992  46.4774990  65.2629997 137.6889992  47.1464990  65.9039997
 136.1079992  46.9744990  65.0339997 137.9699992  46.3644990  64.0679997
 138.9669992  45.9364990  64.3079997 138.0589992  47.3814990  63.6309997
 137.3779992  45.4764990  63.0069997 137.6019992  44.4014990  63.0769997
 136.6089992  45.9224990  61.9919997 136.4099992  45.2594990  61.1369997
 136.1709992  47.3224990  61.6979997 137.0329992  47.9194990  61.3299997
 135.6959992  47.8804990  62.5329997 135.2319992  47.3394990  60.4339997
 135.9119992  47.0934990  59.5909997 134.8699992  48.3784990  60.2809997
 133.9249992  46.5334990  60.4649997 133.4439992  46.7054990  61.4519997
 134.0109992  45.4274990  60.5259997 132.8919992  46.7654990  59.3909997
 133.3309992  46.5464990  58.3939997 132.4669992  47.7894990  59.4609997
 131.6539992  45.7824990  59.4449997 131.0359992  45.8874990  60.3619997
 132.1359992  44.7824990  59.4939997 130.6419992  46.0544990  58.2469997
 130.7099992  47.1104990  57.9069997 129.6099992  45.8034990  58.5719997
 130.8459992  45.1684990  56.9909997 129.9679992  45.3594990  56.3389997
 130.7039992  44.1134990  57.3099997 132.1839992  45.3134990  56.3349997
 133.0349992  44.9644990  56.9589997 132.4319992  46.3544990  56.0349997
 132.3019992  44.6374990  55.4619997  12.0739992  21.3024990  54.7589997
  12.7719992  22.0074990  55.2579997  11.0709992  21.7734990  54.8409997
  12.3699992  21.3054990  53.6879997  12.2049992  19.8894990  55.3919997
  11.8149992  19.9564990  56.4299997  11.6239992  19.1454990  54.8049997
  13.7719992  19.5734990  55.5649997  14.1589992  19.7694990  54.5419997
  14.0709992  20.2984990  56.3519997  14.0309992  18.1654990  56.0809997
  13.8649992  17.4054990  55.2869997  15.1279992  18.1674990  56.2569997
  13.2799992  17.6354990  57.3109997  13.4079992  18.3934990  58.1129997
  12.1839992  17.6094990  57.1299997  13.7799992  16.2534990  57.8149997
  13.7249992  15.5894990  56.9259997  14.8459992  16.3414990  58.1179997
  12.9199992  15.5314990  58.8579997  11.9069992  15.5604990  58.4009997
  13.2969992  14.4944990  58.9909997  12.7459992  16.1484990  60.3099997
  13.6869992  16.2894990  60.8839997  12.1069992  17.0214990  60.0559997
  11.9209992  15.2674990  61.2659997  11.2939992  14.5854990  60.6529997
  12.6419992  14.6234990  61.8129997  11.0069992  15.9814990  62.3209997
  11.6619992  16.7344990  62.8089997  10.2819992  16.5334990  61.6859997
  10.3919992  15.0664990  63.3869997   9.6599992  15.6374990  63.9979997
   9.7609992  14.2574990  62.9629997  11.4109992  14.3804990  64.2989997
  10.8669992  13.6314990  64.9129997  12.1119992  13.7894990  63.6719997
  12.1749992  15.2194990  65.3639997  12.8939992  14.5174990  65.8369997
  12.9089992  15.7404990  64.7129997  11.3199992  16.0464990  66.3639997
  10.7689992  16.7764990  65.7329997  10.5299992  15.3484990  66.7149997
  12.2529992  16.6584990  67.5299997  13.1769992  17.0994990  67.0999997
  11.6489992  17.4534990  68.0179997  12.6329992  15.6324990  68.6059997
  12.3289992  14.4834990  68.6959997  13.4009992  16.2314990  69.4399997
  13.5349992  15.5564990  70.7219997  13.4819992  14.4474990  70.7709997
  14.5039992  15.8984990  71.1439997  12.4359992  16.0844990  71.7389997
  12.5639992  17.1874990  71.7369997  12.6069992  15.6304990  73.1969997
  12.1399992  14.6334990  73.3479997  13.6659992  15.4634990  73.4869997
  11.8649992  16.3594990  74.1299997  12.5249992  17.6554990  74.8799997
  11.4169992  18.2304990  75.8879997  10.1029992  17.7304990  75.9399997
  10.0629992  16.6324990  75.7729997   9.8239992  17.8604990  77.0079997
   9.0709992  18.4434990  75.0239997   9.0979992  17.9314990  74.0729997
   8.1309992  18.1774990  75.4829997   9.0969992  19.9524990  74.8349997
  10.4899992  20.4184990  74.5249997  11.1139992  20.1324990  75.3589997
  10.7929992  19.9404990  73.6049997  10.4759992  21.4924990  74.4089997
   8.1299992  20.3674990  73.7169997   7.1539992  20.0274990  74.0309997
   8.0919992  21.4344990  73.5489997   8.5239992  19.9284990  72.8129997
   8.6519992  20.5794990  76.0689997   7.5919992  20.4404990  76.2169997
   8.7569992  21.6494990  75.9649997   9.2599992  20.2014990  76.8769997
  13.6789992  17.1924990  75.6499997  12.8009992  18.6994990  73.8139997
  11.1439992  15.6024990  71.2899997  10.1059992  16.5274990  71.2839997
  10.2579992  17.7404990  71.3479997   8.7709992  15.9004990  71.0099997
   8.2939992  15.9274990  72.0129997   8.9659992  14.8554990  70.6889997
   7.9059992  16.5624990  69.9119997   7.9899992  17.6594990  70.0649997
   6.8319992  16.3374990  70.0879997   8.1419992  16.0974990  68.4359997
   7.9459992  15.0064990  68.5099997   9.1959992  16.3704990  68.2139997
   7.2319992  16.7884990  67.4029997   6.3629992  17.2804990  67.8889997
   6.8619992  16.0324990  66.6769997   7.8799992  18.0864990  66.7089997
   8.8429992  17.7844990  66.2439997   7.9529992  18.8614990  67.5029997
   6.9989992  18.6554990  65.5779997   6.1669992  19.1434990  66.1299997
   6.5709992  17.8574990  64.9339997   7.6949992  19.8834990  64.7459997
   8.2729992  20.5194990  65.4489997   6.8479992  20.4534990  64.3069997
   8.6929992  19.5234990  63.6959997   9.6459992  19.0364990  63.9509997
   8.6119992  19.8044990  62.4029997   9.4479992  19.4904990  61.7599997
   7.6139992  20.5574990  61.5349997   7.6849992  21.6534990  61.7029997
   6.5819992  20.3634990  61.8999997   7.7399992  20.2294990  60.0359997
   8.8099992  20.1084990  59.7619997   7.3499992  21.0304990  59.3719997
   7.0769992  18.9334990  59.5699997   6.0839992  18.6694990  59.9939997
   7.5989992  18.1044990  60.0939997   7.1039992  18.6324990  58.1079997
   7.9459992  19.1984990  57.6549997   6.1359992  18.9484990  57.6639997
   7.2219992  17.1404990  57.8109997   6.4009992  16.5344990  58.2489997
   8.2919992  16.9464990  58.0399997   6.9279992  16.8884990  56.2829997
   5.9149992  17.1724990  55.9249997   6.9079992  15.7814990  56.1929997
   7.9929992  17.4564990  55.2599997   8.6669992  18.0704990  55.8949997
   7.4619992  18.1354990  54.5589997   8.8379992  16.4294990  54.5619997
   9.6089992  16.8984990  53.9129997   8.1699992  15.7614990  53.9779997
   9.3649992  15.7214990  55.2369997 120.2859992 116.2274990  56.1449997
 119.4359992 116.5694990  55.5169997 120.4349992 115.1664990  55.8529997
 121.0979992 116.9244990  55.8469997 119.9489992 116.4134990  57.6519997
 119.5149992 117.4154990  57.8579997 119.1499992 115.6434990  57.6989997
 120.9909992 116.0184990  58.7779997 121.2859992 114.9614990  58.6059997
 121.8159992 116.7394990  58.5929997 120.3299992 116.3144990  60.1889997
 120.1409992 117.3994990  60.3299997 119.3189992 115.8534990  60.2129997
 121.2449992 115.9344990  61.3249997 122.1479992 116.5584990  61.1559997
 120.8489992 116.3414990  62.2799997 121.4379992 114.3784990  61.2949997
 120.4299992 113.9114990  61.2979997 122.2259992 114.2094990  60.5299997
 122.0829992 113.9804990  62.6159997 121.4919992 114.3024990  63.4989997
 122.0429992 112.8724990  62.5409997 123.5569992 114.4894990  62.7769997
 124.1039992 113.9664990  61.9629997 123.7909992 115.5754990  62.7809997
 124.1739992 113.9264990  64.0659997 124.0039992 112.8354990  63.9469997
 125.2579992 114.1554990  63.9899997 123.4339992 114.3004990  65.3289997
 122.4069992 113.8844990  65.2469997 123.8209992 113.9604990  66.3129997
 123.2479992 115.8454990  65.6529997 124.1859992 116.4004990  65.4369997
 122.4869992 116.1784990  64.9159997 122.7759992 116.1734990  67.0709997
 123.2919992 115.6364990  67.8949997 123.0169992 117.2284990  67.3209997
 121.2609992 116.0614990  67.2609997 121.0019992 115.2044990  66.6029997
 121.0339992 115.9344990  68.3409997 120.3859992 117.1824990  66.6079997
 120.5829992 118.2234990  66.9409997 120.7869992 117.1964990  65.5719997
 118.8289992 117.0144990  66.6129997 118.3469992 117.9104990  66.1679997
 118.6159992 116.1884990  65.8999997 118.2129992 116.6694990  67.9269997
 117.1049992 116.1524990  67.9999997 118.9409992 117.1024990  68.8819997
 118.3789992 116.7394990  70.2739997 118.3869992 117.6684990  70.8839997
 117.3309992 116.3714990  70.2779997 119.2309992 115.6904990  71.0359997
 118.6169992 115.1374990  71.7779997 120.4079992 116.3674990  71.6779997
 120.8579992 117.0934990  70.9669997 120.0179992 116.9514990  72.5389997
 121.4199992 115.5054990  72.0699997 121.1909992 114.4704990  73.3359997
 122.7119992 114.1814990  73.7159997 123.3159992 114.8834990  74.7729997
 124.3909992 114.8964990  74.4939997 123.1089992 115.9704990  74.6839997
 123.0669992 114.3544990  76.2869997 123.4189992 115.0864990  76.9999997
 121.9909992 114.3354990  76.1949997 123.5299992 112.9904990  76.6489997
 123.0239992 112.0204990  75.5729997 123.4079992 112.3204990  74.6099997
 123.3569992 111.0264990  75.8339997 121.9459992 111.9664990  75.5309997
 124.9879992 112.9684990  76.7539997 125.3359992 111.9474990  76.7069997
 125.4779992 113.3264990  75.8609997 125.2779992 113.3914990  77.7049997
 122.9459992 112.5664990  77.9839997 123.4669992 111.6884990  78.3359997
 121.8949992 112.3774990  77.8259997 123.0729992 113.3774990  78.6869997
 120.4739992 115.2634990  74.4159997 120.5829992 113.2154990  72.9129997
 119.7569992 114.7004990  70.1509997 118.9079992 113.8284990  69.5649997
 117.7029992 113.7304990  69.6299997 119.7069992 112.9594990  68.6649997
 120.7469992 113.0234990  69.0509997 119.6619992 113.5044990  67.6979997
 119.1919992 111.5074990  68.3819997 118.0899992 111.3914990  68.3059997
 119.6169992 110.8204990  69.1449997 119.8249992 110.9894990  67.0449997
 119.8209992 109.8784990  67.0669997 120.8679992 111.3584990  66.9469997
 119.0009992 111.5154990  65.8049997 118.7109992 112.5784990  65.9409997
 118.0659992 110.9154990  65.8159997 119.7079992 111.2784990  64.5239997
 119.6619992 110.1854990  64.3289997 120.7779992 111.5294990  64.6849997
 119.2079992 112.0854990  63.2979997 120.0119992 111.8934990  62.5559997
 119.2969992 113.1624990  63.5539997 117.8219992 111.6384990  62.8079997
 117.6389992 112.3264990  61.9549997 116.9899992 111.7564990  63.5339997
 117.7629992 110.1284990  62.3709997 117.1779992 109.4524990  63.0119997
 118.4929992 109.5374990  61.4079997 118.2419992 108.4734990  61.2829997
 119.5359992 110.1614990  60.4519997 120.5879992 109.8894990  60.6819997
 119.4969992 111.2714990  60.4559997 119.3639992 109.7514990  58.9349997
 119.4429992 108.6624990  58.7299997 120.1869992 110.2864990  58.4139997
 118.0339992 110.2274990  58.1739997 117.9279992 111.3294990  58.2689997
 117.1279992 109.7514990  58.6059997 118.2139992 109.7684990  56.6749997
 117.3619992 110.1684990  56.0849997 118.2609992 108.6594990  56.6369997
 119.4599992 110.3334990  55.9379997 119.4079992 109.9954990  54.8809997
 120.3769992 109.9244990  56.4139997 119.7079992 111.8834990  55.9599997
 120.5569992 112.1264990  55.2849997 119.9889992 112.1784990  56.9929997
 118.4109992 112.6344990  55.5089997 118.7069992 113.6534990  55.8399997
 117.5779992 112.1964990  56.0989997 118.0419992 112.5644990  54.0169997
 118.3849992 111.6224990  53.5379997 118.5699992 113.3494990  53.4349997
 116.9549992 112.7194990  53.8499997  22.9989992 118.4714990  56.1109997
  22.6579992 119.2694990  55.4179997  22.4909992 117.4984990  55.9389997
  24.0619992 118.3194990  55.8229997  22.8459992 119.0034990  57.5289997
  23.4039992 118.3094990  58.1929997  23.1899992 120.0574990  57.4619997
  21.4259992 119.1744990  58.0549997  20.8249992 119.6804990  57.2689997
  21.0909992 118.1214990  58.1769997  21.3129992 119.9344990  59.3709997
  21.5379992 121.0184990  59.2799997  20.3079992 119.6084990  59.7149997
  22.2649992 119.4594990  60.4869997  22.0159992 118.3934990  60.6749997
  23.3209992 119.5144990  60.1449997  22.3089992 120.1924990  61.8499997
  23.1689992 119.8874990  62.4849997  22.3559992 121.2604990  61.5479997
  20.9219992 119.9924990  62.6749997  20.6829992 120.7674990  63.4339997
  20.0579992 119.9974990  61.9759997  20.6379992 118.6104990  63.3129997
  19.5859992 118.5774990  63.6689997  20.7389992 117.8424990  62.5159997
  21.4539992 118.3754990  64.6079997  22.4289992 118.7854990  64.2689997
  20.9609992 118.9714990  65.4059997  21.6049992 116.9434990  65.0479997
  20.8309992 116.7574990  65.8229997  21.4599992 116.2794990  64.1699997
  22.9939992 116.6154990  65.5199997  23.6889992 116.9784990  64.7329997
  23.1279992 117.2544990  66.4189997  23.2209992 115.1254990  65.6179997
  23.1549992 114.6784990  64.6029997  24.3249992 114.9964990  65.6359997
  22.5139992 114.3474990  66.7569997  21.4359992 114.5184990  66.5479997
  22.6059992 113.2414990  66.7149997  22.6689992 114.8344990  68.2709997
  22.2239992 115.8504990  68.2149997  22.0619992 114.1714990  68.9239997
  24.0879992 114.9934990  68.7199997  24.5039992 113.9694990  68.6069997
  24.5629992 115.7494990  68.0579997  24.3209992 115.1794990  70.1939997
  23.8289992 114.4804990  71.0409997  25.0509992 116.2144990  70.4059997
  25.3159992 116.6704990  71.7269997  25.0969992 115.9764990  72.5669997
  26.3009992 117.1474990  71.9139997  24.4749992 117.9974990  71.8489997
  24.8589992 118.8644990  71.2689997  24.6469992 118.4884990  73.2689997
  25.7319992 118.6184990  73.4739997  24.1789992 119.4824990  73.4309997
  24.1509992 117.5684990  74.1539997  23.0359992 117.7034990  75.2539997
  21.6709992 117.4674990  74.4449997  21.1419992 116.1044990  74.1889997
  21.7919992 115.6284990  73.4229997  21.2039992 115.5554990  75.1529997
  19.6589992 116.1484990  73.8649997  19.3819992 116.6224990  72.9349997
  19.3019992 115.1294990  73.8629997  18.8079992 116.8584990  74.8599997
  18.9639992 118.3524990  74.9449997  18.3129992 118.8264990  75.6649997
  19.9929992 118.5664990  75.1949997  18.7449992 118.8254990  73.9989997
  17.3409992 116.5604990  74.5679997  17.1039992 116.9564990  73.5919997
  17.3079992 115.4844990  74.4809997  16.7309992 117.0804990  75.2919997
  19.0189992 116.2014990  76.2169997  18.9809992 115.1574990  75.9459997
  18.1909992 116.5194990  76.8329997  19.9849992 116.5054990  76.5929997
  23.3359992 116.6404990  76.2639997  22.9679992 119.1064990  75.7099997
  23.0699992 117.6854990  71.6239997  22.3719992 118.6294990  71.0099997
  22.7779992 119.7164990  70.6539997  20.9569992 118.1594990  70.7939997
  20.4119992 118.5984990  71.6569997  20.7479992 117.0924990  71.0219997
  20.2989992 118.7594990  69.5919997  20.7429992 118.2414990  68.7149997
  20.5699992 119.8304990  69.4719997  18.7849992 118.4194990  69.4689997
  18.2799992 118.9864990  70.2799997  18.5599992 117.3334990  69.5429997
  18.1849992 118.9254990  68.2139997  18.8979992 118.8304990  67.3669997
  18.0919992 120.0174990  68.4009997  16.7999992 118.3214990  67.9059997
  16.3229992 118.9324990  67.1109997  16.3099992 118.2944990  68.9029997
  16.8439992 116.8764990  67.5409997  15.7789992 116.5854990  67.4229997
  17.2889992 116.2214990  68.3199997  17.6629992 116.7084990  66.2029997
  18.6819992 117.1124990  66.3839997  17.0549992 117.3434990  65.5239997
  17.8289992 115.2664990  65.8149997  17.9919992 114.4894990  66.5779997
  17.6819992 114.8034990  64.5269997  17.9179992 113.7574990  64.2809997
  17.4409992 115.6714990  63.3089997  18.1909992 116.4904990  63.2519997
  16.4369992 116.1454990  63.3399997  17.5369992 114.8454990  61.9639997
  16.9149992 115.4734990  61.2909997  16.9819992 113.9014990  62.1479997
  18.9339992 114.4104990  61.5519997  19.0119992 113.3024990  61.6019997
  19.6649992 114.8034990  62.2909997  19.2239992 114.7784990  60.0809997
  19.1749992 115.8814990  59.9569997  18.4269992 114.2854990  59.4829997
  20.5779992 114.3674990  59.5319997  20.5319992 114.5234990  58.4329997
  20.6859992 113.2714990  59.6759997  21.8509992 115.0844990  60.0429997
  21.9459992 114.8834990  61.1319997  21.7039992 116.1724990  59.8759997
  23.0919992 114.5784990  59.2149997  23.9669992 115.2234990  59.4459997
  22.9309992 114.7414990  58.1279997  23.5569992 113.1344990  59.4459997
  24.1259992 112.9994990  60.3909997  24.3089992 112.8284990  58.6879997
  22.6639992 112.4794990  59.5389997   3.7889992  87.5764990  58.3969997
   4.3469992  86.6674990  58.7089997   4.3279992  87.8484990  57.4649997
   2.7209992  87.2844990  58.3019997   3.8399992  88.6984990  59.3989997
   3.2489992  88.3624990  60.2779997   4.9199992  88.7244990  59.6589997
   3.6379992  90.1334990  58.9419997   4.2259992  90.3794990  58.0309997
   2.5649992  90.1394990  58.6539997   4.0209992  91.0354990  60.1449997
   5.1289992  90.9494990  60.1369997   3.6629992  92.0514990  59.8709997
   3.5209992  90.6474990  61.5579997   4.1249992  89.7584990  61.8369997
   3.7859992  91.4284990  62.3029997   1.9389992  90.4144990  61.6039997
   1.4919992  91.3024990  61.1069997   1.6419992  89.5514990  60.9709997
   1.4149992  90.0924990  63.0409997   1.9079992  89.2444990  63.5619997
   1.4829992  90.9674990  63.7229997  -0.1090008  89.7624990  63.2229997
  -0.6570008  90.6124990  62.7629997  -0.4190008  88.9374990  62.5469997
  -0.5800008  89.5014990  64.6289997  -0.5380008  90.4114990  65.2649997
  -1.6530008  89.2344990  64.5169997   0.1479992  88.3214990  65.4919997
   0.1749992  87.4734990  64.7739997   1.1879992  88.5864990  65.7779997
  -0.5020008  87.8034990  66.7709997  -0.5650008  88.6554990  67.4809997
  -1.5440008  87.4334990  66.6609997   0.3539992  86.6964990  67.5449997
  -0.4700008  86.1704990  68.0729997   0.6419992  85.8614990  66.8709997
   1.4079992  87.3054990  68.4179997   2.3109992  87.5084990  67.8039997
   1.1419992  88.3474990  68.6979997   1.9579992  86.5364990  69.5899997
   1.1479992  86.2764990  70.3049997   2.3289992  85.6224990  69.0789997
   3.1959992  87.2664990  70.2079997   4.1109992  86.6394990  70.2819997
   3.4189992  88.0464990  69.4489997   2.9189992  87.7984990  71.5689997
   1.8639992  88.2314990  71.9729997   4.0439992  88.0524990  72.2679997
   4.0589992  88.8754990  73.3889997   3.0519992  89.1494990  73.7699997
   4.7229992  88.5224990  74.2069997   4.6549992  90.2584990  72.9079997
   5.5519992  89.9694990  72.3189997   5.1569992  91.1604990  74.0579997
   6.0409992  90.6684990  74.5169997   5.4829992  92.1204990  73.6039997
   4.2239992  91.4084990  75.0969997   3.2799992  92.6234990  75.0229997
   2.0889992  91.9514990  74.1629997   0.9859992  92.7264990  73.9189997
   1.2049992  93.8154990  73.9419997   0.5349992  92.4674990  72.9369997
  -0.1280008  92.5024990  74.9319997   0.3939992  92.8664990  75.8039997
  -1.0040008  93.1174990  74.7819997  -0.7190008  91.1504990  75.1599997
   0.4199992  90.3194990  75.7209997   0.8169992  90.8974990  76.5429997
   0.1039992  89.3204990  75.9789997   1.2659992  90.1134990  75.0819997
  -1.8630008  91.4144990  76.0779997  -2.2750008  90.4234990  76.1949997
  -1.3820008  91.7584990  76.9809997  -2.5680008  92.1834990  75.7969997
  -1.2230008  90.6244990  73.8659997  -0.3860008  90.6084990  73.1829997
  -1.8890008  91.3364990  73.4019997  -1.7030008  89.6564990  73.8619997
   2.7679992  93.0944990  76.3139997   3.9749992  93.6504990  74.1999997
   3.7029992  90.9924990  72.1029997   4.2459992  91.8284990  71.2069997
   5.4229992  92.0514990  71.1209997   3.1459992  92.3604990  70.2629997
   3.4379992  93.4294990  70.1829997   2.1249992  92.3454990  70.7009997
   3.1799992  91.6104990  68.8789997   3.3309992  90.5314990  69.0929997
   4.1519992  91.9384990  68.4529997   2.0419992  91.7794990  67.8859997
   1.1379992  91.2554990  68.2639997   2.4429992  91.4154990  66.9159997
   1.8009992  93.2804990  67.5479997   2.8149992  93.7104990  67.4039997
   1.2239992  93.6344990  68.4289997   0.9239992  93.4724990  66.2979997
  -0.0560008  92.9994990  66.5189997   1.3079992  93.0304990  65.3539997
   0.9649992  94.9424990  65.9739997   0.5489992  95.6004990  66.7669997
   0.2469992  95.0184990  65.1289997   2.3799992  95.3294990  65.4049997
   2.7379992  94.4944990  64.7659997   3.0759992  95.4654990  66.2599997
   2.3839992  96.6504990  64.6319997   2.1359992  97.4974990  65.2889997
   2.8219992  96.8434990  63.3529997   2.9589992  97.8624990  62.9629997
   3.4669992  95.8374990  62.3699997   4.3169992  95.3674990  62.9079997
   3.9799992  96.2324990  61.4669997   2.5639992  94.6694990  61.8169997
   1.8049992  94.2314990  62.4999997   3.1339992  93.8254990  61.3729997
   1.8719992  95.1394990  60.5009997   1.4399992  96.1224990  60.7879997
   0.9409992  94.6034990  60.2189997   2.8069992  95.1794990  59.2399997
   3.1729992  94.1444990  59.0679997   3.5569992  95.9564990  59.4999997
   2.0629992  95.5534990  57.9579997   2.1259992  96.6624990  57.9459997
   1.0179992  95.1814990  58.0159997   2.7389992  94.8734990  56.7239997
   2.5299992  93.7894990  56.8499997   3.7969992  95.1984990  56.6269997
   2.0499992  95.0664990  55.3909997   0.9679992  94.8434990  55.5159997
   2.3949992  94.2154990  54.7669997   2.2449992  96.4264990  54.6609997
   1.7029992  96.3354990  53.6949997   3.3299992  96.5904990  54.4899997
   1.8609992  97.2524990  55.2979997  16.2359992   4.1634990  54.6109997
  15.1949992   3.8014990  54.7469997  16.8179992   3.2914990  54.2419997
  16.3639992   5.0074990  53.8999997  16.7269992   4.5584990  56.0059997
  16.0289992   5.3684990  56.3069997  16.6339992   3.7084990  56.7149997
  18.1209992   5.2344990  56.0159997  18.7839992   4.4384990  55.6149997
  18.0569992   6.0464990  55.2609997  18.7089992   5.8174990  57.3809997
  19.8009992   5.9874990  57.2649997  18.2989992   6.8314990  57.5759997
  18.5339992   4.7784990  58.5279997  17.4539992   4.5284990  58.6049997
  18.9239992   3.7744990  58.2519997  19.1979992   5.1454990  59.8689997
  20.2899992   5.2174990  59.6789997  18.7429992   6.0244990  60.3749997
  19.0309992   4.1274990  61.0339997  17.9799992   3.7734990  60.9629997
  19.5989992   3.1754990  60.9639997  19.2529992   4.6944990  62.4519997
  20.3009992   5.0604990  62.4929997  18.6909992   5.6004990  62.7629997
  18.9599992   3.6934990  63.6479997  19.7749992   2.9394990  63.6159997
  19.1199992   4.2724990  64.5819997  17.6169992   2.9804990  63.4149997
  16.8699992   3.7604990  63.1549997  17.7119992   2.3354990  62.5149997
  17.0909992   2.1214990  64.5599997  16.4419992   1.3944990  64.0259997
  17.8679992   1.5624990  65.1249997  16.0939992   2.7794990  65.5599997
  16.6659992   3.3694990  66.3069997  15.3339992   3.4364990  65.0849997
  15.4139992   1.8414990  66.5669997  14.7689992   2.4014990  67.2769997
  14.7109992   1.1884990  66.0069997  16.3169992   0.9264990  67.4299997
  15.7659992   0.0244990  67.7749997  17.2489992   0.6304990  66.9039997
  16.6799992   1.7074990  68.7279997  17.2609992   2.6334990  68.5279997
  15.7549992   2.0714990  69.2249997  17.3509992   0.8104990  69.6559997
  16.9719992  -0.3025010  69.9179997  18.3829992   1.4134990  70.2579997
  19.0689992   0.6514990  71.2859997  18.4029992   0.3074990  72.1059997
  19.6229992  -0.2415010  70.9259997  20.2549992   1.4604990  71.9689997
  20.6939992   0.8964990  72.8199997  19.6669992   2.7404990  72.6519997
  19.1139992   3.3474990  71.9039997  18.9639992   2.4394990  73.4569997
  20.7619992   3.4864990  73.1819997  20.6079992   5.0694990  73.3959997
  19.1409992   5.1814990  74.1379997  19.1189992   5.5504990  75.5639997
  19.7619992   4.8384990  76.1229997  19.6029992   6.5404990  75.7059997
  17.7059992   5.5724990  76.1849997  17.7549992   6.0244990  77.1639997
  17.1369992   6.2314990  75.5449997  16.9889992   4.2174990  76.3239997
  16.7409992   3.6884990  74.9599997  16.3159992   2.6994990  75.0459997
  16.0229992   4.3134990  74.4499997  17.6529992   3.6614990  74.3829997
  17.9409992   3.2264990  77.0909997  17.9899992   3.6754990  78.0709997
  17.4169992   2.2954990  77.2479997  18.8549992   3.0444990  76.5449997
  15.7469992   4.3494990  77.2169997  15.2489992   3.3954990  77.3079997
  15.1009992   5.1214990  76.8269997  16.0759992   4.7394990  78.1689997
  21.7179992   5.4954990  74.3469997  20.5379992   5.7204990  72.0679997
  21.2349992   1.8484990  71.0039997  22.0759992   0.8814990  70.5859997
  22.0889992  -0.2025010  71.0739997  23.0199992   1.5454990  69.5929997
  24.0439992   1.2794990  69.9329997  23.0639992   2.6554990  69.5969997
  22.7939992   0.9144990  68.2319997  22.7769992  -0.1765010  68.4419997
  23.6079992   1.1264990  67.5069997  21.4789992   1.5074990  67.7099997
  21.4169992   2.6174990  67.7149997  20.6809992   1.1734990  68.4059997
  21.0099992   1.0504990  66.3259997  21.4979992   1.5184990  65.4449997
  19.9389992   1.3454990  66.3289997  20.9449992  -0.5055010  66.1469997
  20.8009992  -1.1025010  67.0729997  21.8569992  -0.8685010  65.6259997
  19.8369992  -0.9255010  65.2079997  18.8949992  -0.4375010  65.5389997
  19.6109992  -2.0085010  65.3099997  20.0369992  -0.5045010  63.7779997
  20.4259992   0.5354990  63.8159997  18.9979992  -0.3955010  63.4009997
  20.8519992  -1.4015010  62.7969997  21.6329992  -1.9535010  63.3409997
  20.6969992  -1.5685010  61.5089997  21.3869992  -2.3205010  61.0979997
  19.6619992  -0.9495010  60.6239997  18.7739992  -0.5805010  61.1799997
  19.2669992  -1.7085010  59.9149997  20.2569992   0.2884990  59.8799997
  21.1569992  -0.0305010  59.3109997  20.5039992   1.0834990  60.6159997
  19.1929992   0.8524990  58.8849997  19.5969992   1.7154990  58.3139997
  18.3149992   1.1994990  59.4709997  18.4949992  -0.1275010  57.9019997
  17.7469992   0.5624990  57.4569997  17.8389992  -0.7855010  58.5109997
  19.4549992  -0.8285010  56.9799997  18.8549992  -1.5345010  56.3669997
  20.1239992  -1.5015010  57.5589997  20.3059992   0.0594990  56.1459997
  20.9899992  -0.5385010  55.5069997  20.9409992   0.6674990  56.8249997
  19.6599992   1.0664990  55.1769997  19.0709992   1.8494990  55.7009997
  18.9329992   0.4594990  54.5969997  20.6239992   1.7624990  54.2639997
  21.0319992   1.0494990  53.5169997  21.4609992   2.1854990  54.8609997
  20.1409992   2.5814990  53.6909997  -1.4290008  32.4544990  57.6579997
  -1.7490008  33.2234990  56.9229997  -2.2520008  32.0344990  58.2749997
  -1.0330008  31.6504990  57.0019997  -0.2690008  33.0464990  58.5389997
   0.6849992  32.7354990  58.0629997  -0.3780008  34.1294990  58.7629997
  -0.1940008  32.3964990  59.8869997  -1.1800008  32.3684990  60.3979997
   0.0139992  31.3094990  59.7829997   0.7569992  33.0084990  60.8609997
   0.2869992  34.0044990  61.0049997   0.7899992  32.5714990  61.8829997
   2.1979992  33.0924990  60.3799997   2.3339992  33.8044990  59.5369997
   2.7769992  33.3104990  61.3029997   2.7699992  31.7424990  59.7719997
   2.1779992  31.5174990  58.8589997   3.7569992  32.0224990  59.3459997
   2.9019992  30.6484990  60.8289997   2.8159992  31.0144990  61.8749997
   2.1549992  29.8634990  60.5849997   4.2629992  29.9364990  60.8169997
   4.5939992  29.7174990  59.7789997   5.0869992  30.5104990  61.2929997
   4.1759992  28.5604990  61.5519997   3.4189992  27.9204990  61.0499997
   5.1939992  28.1344990  61.4249997   3.8799992  28.5464990  63.0469997
   4.6869992  29.1974990  63.4469997   2.8299992  28.8504990  63.2459997
   3.8549992  27.0954990  63.6049997   2.9979992  26.5074990  63.2099997
   4.8079992  26.6164990  63.2959997   3.9819992  26.9124990  65.1349997
   4.1639992  25.8614990  65.4479997   4.9559992  27.3874990  65.3779997
   2.9149992  27.6114990  65.9139997   2.7249992  28.6524990  65.5759997
   2.0029992  27.0564990  65.6099997   3.1289992  27.5284990  67.4399997
   2.2039992  27.2964990  68.0089997   3.7969992  26.6514990  67.5759997
   3.7939992  28.8624990  67.9129997   4.3609992  28.6294990  68.8399997
   4.4879992  29.2304990  67.1269997   2.8069992  30.0024990  68.3119997
   1.7179992  30.1434990  67.7809997   3.4289992  30.8664990  69.0099997
   2.8599992  32.1754990  69.1099997   3.7299992  32.7634990  69.4739997
   2.4349992  32.6184990  68.1839997   1.8349992  32.3764990  70.2569997
   1.4749992  33.4274990  70.2759997   2.5959992  31.9984990  71.5909997
   3.7049992  32.0094990  71.5209997   2.2459992  32.6974990  72.3809997
   2.3619992  30.5884990  71.9299997   1.3859992  30.3844990  73.2069997
   2.3419992  31.1124990  74.2279997   3.5789992  30.5454990  74.8219997
   3.5679992  29.4344990  74.8399997   4.3889992  30.8614990  74.1299997
   3.8549992  30.9354990  76.3229997   3.0429992  30.4054990  76.7979997
   4.8809992  30.6234990  76.4529997   3.8009992  32.3774990  76.7609997
   4.6839992  33.1564990  75.7709997   4.7829992  34.2114990  75.9779997
   5.6649992  32.7104990  75.8489997   4.2989992  33.0454990  74.7679997
   2.4199992  32.9064990  76.6759997   1.8409992  32.5354990  77.5089997
   2.4719992  33.9654990  76.8799997   1.8489992  32.6864990  75.7859997
   4.3429992  32.5954990  78.1209997   5.3979992  32.3974990  78.2319997
   3.8419992  31.9424990  78.8209997   4.2909992  33.6034990  78.5029997
   0.1509992  31.1134990  73.0999997   1.3239992  28.9864990  73.5329997
   0.7109992  31.5104990  70.0959997  -0.1750008  31.8644990  69.2739997
  -0.1800008  32.8624990  68.5289997  -1.2950008  30.8464990  69.2749997
  -1.9790008  31.1584990  70.0929997  -0.9300008  29.8144990  69.4639997
  -2.1530008  30.9824990  67.9759997  -2.3710008  32.0584990  67.8049997
  -3.1830008  30.5734990  68.0599997  -1.3430008  30.3974990  66.8489997
  -0.7060008  29.5504990  67.1819997  -0.6180008  31.1014990  66.3879997
  -2.2900008  29.7324990  65.8199997  -2.9240008  30.5454990  65.4049997
  -2.9310008  29.0354990  66.4009997  -1.5370008  29.0344990  64.6999997
  -2.2160008  28.3504990  64.1479997  -0.6660008  28.4854990  65.1169997
  -0.9160008  29.9894990  63.6139997  -0.0020008  30.5044990  63.9779997
  -1.7190008  30.7494990  63.5039997  -0.6470008  29.3154990  62.3489997
  -0.1190008  29.9894990  61.6409997  -1.6170008  29.1254990  61.8409997
   0.1369992  28.0424990  62.5769997   0.6469992  27.8944990  63.5399997
   0.2569992  27.1364990  61.6459997   0.7359992  26.1664990  61.8429997
  -0.3640008  27.1454990  60.2539997  -1.3520008  27.6534990  60.2589997
  -0.5910008  26.1184990  59.8969997   0.2289992  27.8544990  59.0219997
   0.2869992  28.8604990  59.4919997  -0.5010008  27.8424990  58.1839997
   1.6179992  27.3454990  58.4879997   1.3709992  26.6424990  57.6639997
   2.3359992  26.9284990  59.2259997   2.4099992  28.5784990  57.8309997
   3.3949992  28.2804990  57.4129997   2.6789992  29.3394990  58.5949997
   1.7699992  29.3244990  56.6429997   1.0129992  29.9544990  57.1579997
   1.2489992  28.6074990  55.9729997   2.6459992  30.2514990  55.8459997
   3.1869992  29.6234990  55.1059997   3.2689992  30.6534990  56.6729997
   1.9239992  31.4054990  55.1309997   1.3529992  31.9914990  55.8829997
   1.3049992  31.1104990  54.2569997   2.9429992  32.3904990  54.5219997
   2.5239992  33.0014990  53.6939997   3.7259992  31.8194990  53.9789997
   3.2819992  33.0944990  55.3119997 101.2499992 139.1704990  56.3109997
 101.1199992 138.0734990  56.1939997 102.2369992 139.4234990  55.8669997
 100.5589992 139.7134990  55.6309997 100.8909992 139.4134990  57.7809997
 100.9409992 140.5094990  57.9549997  99.9429992 138.8794990  58.0069997
 101.9489992 138.8204990  58.7309997 102.0019992 137.7304990  58.5219997
 102.9449992 139.2484990  58.4879997 101.8019992 139.0194990  60.2089997
 102.0109992 140.0694990  60.5059997 100.7759992 138.7274990  60.5169997
 102.7609992 138.1554990  60.9919997 102.8649992 137.1364990  60.5619997
 103.7689992 138.6204990  61.0369997 102.3059992 138.1154990  62.4229997
 103.0669992 137.5284990  62.9799997 102.3469992 139.1324990  62.8699997
 100.9339992 137.4844990  62.7059997 100.6759992 137.6794990  63.7689997
 100.1259992 138.1094990  62.2689997 100.7559992 136.0314990  62.0729997
  99.7309992 135.7304990  62.3749997 100.7119992 136.1404990  60.9679997
 101.8089992 135.0214990  62.5829997 101.7709992 134.1034990  61.9579997
 102.8219992 135.2944990  62.2179997 101.8059992 134.8954990  64.1229997
 102.3909992 135.7914990  64.4209997 100.8429992 134.9874990  64.6689997
 102.7229992 133.7844990  64.6309997 102.4399992 132.7964990  64.2089997
 103.7339992 134.0394990  64.2479997 102.8079992 133.6564990  66.1889997
 103.6999992 133.0864990  66.5289997 102.9499992 134.6684990  66.6249997
 101.5409992 132.9544990  66.6729997 100.6239992 133.0234990  66.0499997
 101.8059992 131.8774990  66.7329997 101.0419992 133.4754990  67.9969997
 101.0689992 134.5734990  67.8309997 100.0229992 133.0594990  68.1499997
 101.9159992 133.2014990  69.2359997 101.9189992 132.1144990  69.4659997
 102.9799992 133.5044990  69.1289997 101.4919992 134.0384990  70.4249997
 101.1279992 135.2124990  70.3709997 101.7779992 133.3904990  71.5269997
 101.9029992 134.1434990  72.7459997 101.1839992 134.9854990  72.8329997
 101.6209992 133.5314990  73.6299997 103.4209992 134.5544990  72.9629997
 104.0739992 133.6754990  72.7739997 103.5549992 135.1264990  74.3639997
 102.6179992 135.6794990  74.5879997 103.6779992 134.1944990  74.9559997
 104.6829992 135.8914990  74.6429997 104.5999992 136.8024990  75.9849997
 104.4209992 138.2394990  75.4749997 103.5129992 138.4324990  74.3649997
 103.9519992 138.0304990  73.4269997 102.5259992 137.9624990  74.5649997
 103.1809992 140.0154990  74.1429997 102.5639992 140.1054990  73.2609997
 102.5689992 140.3364990  74.9729997 104.3779992 140.9524990  74.1309997
 105.3719992 140.4144990  73.1509997 106.3239992 140.7064990  73.5699997
 105.3829992 139.3374990  73.0699997 105.2379992 140.8954990  72.1929997
 103.9549992 142.3484990  73.6299997 103.2209992 142.3084990  72.8399997
 103.3329992 142.8034990  74.3869997 104.7209992 143.0624990  73.3639997
 104.9299992 141.1624990  75.5299997 104.1309992 141.4264990  76.2069997
 105.6239992 141.9884990  75.4729997 105.5339992 140.3034990  75.7819997
 103.4079992 136.2954990  76.7209997 105.9039992 136.7774990  76.6979997
 103.7799992 135.6494990  72.0159997 104.5459992 135.3494990  70.9839997
 104.8889992 134.2584990  70.6469997 104.9709992 136.6054990  70.2109997
 106.0609992 136.7014990  70.4029997 104.4049992 137.4984990  70.5529997
 104.8229992 136.2504990  68.7109997 103.7429992 136.2134990  68.4539997
 105.2229992 135.2654990  68.3869997 105.4329992 137.3394990  67.8429997
 106.5299992 137.1994990  67.9439997 105.1469992 138.3634990  68.1659997
 105.0089992 137.1594990  66.3869997 103.9089992 137.3154990  66.3779997
 105.1689992 136.1084990  66.0629997 105.5059992 138.2184990  65.3719997
 105.3579992 139.2064990  65.8569997 104.7819992 138.1404990  64.5329997
 106.9399992 138.1114990  64.8229997 107.6659992 138.4004990  65.6139997
 107.0939992 138.8884990  64.0439997 107.3059992 136.6874990  64.2699997
 107.1689992 135.9284990  65.0699997 108.3989992 136.5334990  64.1429997
 106.4699992 136.1374990  63.2109997 105.6559992 135.4974990  63.5809997
 106.8059992 136.1304990  61.9099997 106.2989992 135.6344990  61.0689997
 108.0239992 136.7574990  61.3329997 108.7419992 135.9134990  61.4149997
 108.3429992 137.5274990  62.0669997 107.7879992 137.2444990  59.9199997
 107.8979992 136.3204990  59.3139997 108.6299992 137.9114990  59.6389997
 106.4249992 137.9804990  59.6159997 106.4029992 138.8404990  60.3179997
 105.6429992 137.2624990  59.9419997 106.1709992 138.4764990  58.2349997
 106.9119992 139.2574990  57.9589997 105.1699992 138.9304990  58.0689997
 106.4299992 137.3644990  57.0929997 107.4809992 137.2034990  56.7719997
 105.9999992 137.8664990  56.1999997 105.6759992 135.9694990  57.2509997
 106.2629992 135.4864990  58.0609997 105.5739992 135.4334990  56.2829997
 104.2069992 136.1154990  57.7909997 103.5499992 136.6144990  57.0469997
 104.1949992 136.6624990  58.7579997 103.5319992 134.6794990  57.9439997
 104.1499992 134.0754990  58.6419997 103.4169992 134.2124990  56.9419997
 102.5059992 134.7634990  58.3629997 110.5839992  17.1324990  58.1969997
 110.8009992  17.7074990  57.2709997 110.8359992  17.8544990  59.0029997
 109.4969992  16.9174990  58.2749997 111.5409992  15.9274990  58.1629997
 111.1429992  15.0854990  57.5589997 112.4519992  16.2084990  57.5909997
 111.7959992  15.4134990  59.6289997 112.4449992  16.1904990  60.0859997
 110.7719992  15.4274990  60.0589997 112.4539992  14.0184990  59.7519997
 112.1949992  13.4564990  58.8289997 113.5439992  14.1834990  59.6129997
 112.0699992  13.2754990  61.0149997 112.2609992  14.0244990  61.8129997
 110.9809992  13.0774990  61.1109997 112.9519992  12.0184990  61.0919997
 112.8369992  11.4034990  60.1739997 114.0329992  12.2544990  61.1949997
 112.6579992  11.0574990  62.3149997 111.5849992  10.7694990  62.3329997
 113.1779992  10.0964990  62.1109997 112.9519992  11.5554990  63.7609997
 114.0279992  11.8104990  63.8739997 112.3919992  12.5074990  63.8829997
 112.4679992  10.5414990  64.7479997 112.6199992   9.5284990  64.3179997
 113.0639992  10.7984990  65.6499997 110.9109992  10.6994990  64.9839997
 110.8649992  11.7674990  65.2869997 110.3839992  10.5064990  64.0259997
 110.2999992   9.7394990  66.0329997 110.4129992   8.6814990  65.7129997
 110.8389992   9.8354990  66.9999997 108.8079992   9.9994990  66.3029997
 108.2879992   9.4424990  65.4949997 108.4409992   9.6264990  67.2839997
 108.3459992  11.4644990  66.1659997 108.8409992  12.1534990  66.8829997
 108.4839992  11.8764990  65.1429997 106.8069992  11.6764990  66.5529997
 106.2139992  11.1194990  65.7949997 106.6479992  11.1154990  67.4979997
 106.5009992  13.1804990  66.4639997 106.9849992  13.7454990  65.6389997
 105.4049992  13.3584990  66.4609997 106.9689992  13.9064990  67.7299997
 107.2319992  15.0904990  67.7509997 107.1849992  13.0654990  68.7779997
 107.3499992  13.6344990  70.0569997 107.8289992  14.6344990  69.9859997
 106.3399992  13.5864990  70.5179997 108.2829992  12.8604990  71.0479997
 107.8759992  11.8434990  71.2359997 108.2909992  13.4984990  72.4739997
 108.0539992  14.5794990  72.3759997 107.4329992  12.9794990  72.9529997
 109.5279992  13.3914990  73.1659997 109.7809992  12.3154990  74.2909997
 111.1189992  12.7904990  75.0299997 112.1029992  13.4564990  74.2539997
 113.0739992  13.0354990  74.5909997 112.0399992  13.1804990  73.1789997
 112.1909992  14.9424990  74.3849997 112.9749992  15.3744990  73.7799997
 111.2659992  15.4074990  74.0739997 112.4279992  15.5954990  75.7649997
 113.8009992  15.1694990  76.3139997 113.9309992  15.4614990  77.3449997
 113.7449992  14.0914990  76.2699997 114.6069992  15.4334990  75.6449997
 112.5419992  17.1074990  75.6849997 111.7519992  17.5444990  75.0919997
 112.6109992  17.4664990  76.7009997 113.4539992  17.2994990  75.1399997
 111.3509992  15.1634990  76.6789997 110.3779992  15.4644990  76.3209997
 111.5459992  15.4734990  77.6949997 111.4399992  14.0944990  76.8069997
 108.7069992  12.4384990  75.2809997 110.1119992  11.0404990  73.6229997
 109.5349992  12.9234990  70.4719997 109.8799992  11.8644990  69.7279997
 109.2489992  10.8064990  69.6179997 111.2289992  12.1144990  69.0499997
 110.9979992  12.1834990  67.9649997 111.8549992  11.2214990  69.2609997
 111.9709992  13.3284990  69.6829997 111.9009992  13.2004990  70.7839997
 111.3529992  14.2134990  69.4209997 113.3999992  13.4934990  69.1219997
 113.9659992  12.6614990  69.5939997 113.9079992  14.4324990  69.4309997
 113.5559992  13.4164990  67.5799997 113.3509992  12.4124990  67.1509997
 114.6349992  13.5314990  67.3419997 112.8549992  14.4764990  66.6259997
 111.8559992  14.6454990  67.0809997 112.7149992  13.9884990  65.6379997
 113.6129992  15.7824990  66.5659997 114.6179992  15.6224990  66.1179997
 113.8169992  16.1934990  67.5779997 112.9289992  16.8834990  65.7219997
 113.1659992  16.6524990  64.6609997 113.6059992  17.7264990  65.9739997
 111.4669992  17.2884990  65.9019997 111.2799992  17.8244990  66.8439997
 110.3809992  16.9604990  65.1799997 109.4149992  17.4114990  65.4489997
 110.2219992  16.1074990  63.9729997 111.1679992  15.5724990  63.7459997
 110.0889992  16.7704990  63.0909997 109.1159992  15.0784990  63.9379997
 108.2609992  15.2034990  64.6369997 109.5939992  14.1154990  64.2189997
 108.6099992  14.7814990  62.4909997 109.4499992  14.6574990  61.7739997
 108.0509992  15.6854990  62.1659997 107.8609992  13.4724990  62.4609997
 106.8779992  13.4854990  62.9789997 108.5309992  12.7524990  62.9779997
 107.6979992  12.9684990  60.9969997 107.6369992  11.8624990  61.0819997
 108.5799992  13.1994990  60.3619997 106.3259992  13.4224990  60.4219997
 105.6529992  13.8444990  61.1979997 105.9129992  12.4534990  60.0699997
 106.3899992  14.3514990  59.1969997 107.2149992  15.0564990  59.4339997
 105.3849992  14.8244990  59.2059997 106.6459992  13.7894990  57.7449997
 107.4179992  12.9954990  57.6589997 107.0039992  14.5854990  57.0579997
 105.7139992  13.3834990  57.2959997 131.1519992  30.0814990  58.8619997
 131.5839992  30.9204990  59.4489997 131.1369992  30.3804990  57.7919997
 131.8049992  29.1934990  58.9999997 129.7969992  29.7054990  59.4489997
 129.4959992  28.6834990  59.1329997 130.0739992  29.6644990  60.5239997
 128.7019992  30.7814990  59.4479997 129.2899992  31.7054990  59.6379997
 128.2549992  30.9524990  58.4459997 127.6779992  30.4824990  60.5159997
 126.7339992  30.9984990  60.2389997 127.3299992  29.4324990  60.4129997
 128.1009992  30.7144990  62.0889997 128.7249992  29.8564990  62.4179997
 128.7289992  31.6284990  62.1509997 126.8329992  30.9414990  63.0439997
 126.2349992  31.8274990  62.7399997 126.2999992  29.9674990  63.0149997
 127.2699992  30.9404990  64.5019997 127.8769992  30.0384990  64.7299997
 127.8649992  31.8454990  64.7499997 126.0929992  30.8014990  65.5389997
 125.3799992  31.6524990  65.5219997 125.5439992  29.8644990  65.3019997
 126.4359992  30.8454990  67.0449997 127.0929992  31.7284990  67.2009997
 125.5199992  30.9934990  67.6559997 127.0109992  29.5324990  67.4289997
 126.2779992  28.7064990  67.3029997 127.7909992  29.2434990  66.6929997
 127.7979992  29.4554990  68.8249997 128.5429992  30.2774990  68.8739997
 127.0759992  29.5694990  69.6619997 128.5389992  28.1914990  69.0249997
 127.7999992  27.3684990  68.9239997 129.4769992  27.8024990  68.5729997
 128.7339992  27.9904990  70.5249997 127.8209992  28.3784990  71.0269997
 128.7879992  26.8974990  70.7159997 130.0669992  28.5534990  70.9919997
 130.8819992  28.0204990  70.4569997 130.0329992  29.6134990  70.6599997
 130.2279992  28.5794990  72.5349997 129.2229992  28.7154990  72.9909997
 130.6199992  27.6064990  72.9039997 131.2829992  29.6724990  72.8139997
 132.4779992  29.4144990  72.9509997 130.6999992  30.8904990  73.1619997
 131.6929992  31.8294990  73.5179997 131.9129992  31.5434990  74.5689997
 132.6779992  31.6974990  73.0219997 131.0959992  33.2574990  73.3389997
 131.7059992  33.8984990  74.0099997 129.5669992  33.2164990  73.8519997
 129.5249992  32.5344990  74.7279997 129.1699992  34.2054990  74.1679997
 128.6849992  32.7974990  72.8209997 127.2669992  32.1994990  72.9859997
 127.0009992  32.5124990  74.5029997 125.6909992  32.3104990  75.0439997
 125.5989992  33.0954990  75.8249997 124.9579992  32.4724990  74.2249997
 125.4789992  30.8254990  75.5469997 124.4409992  30.5694990  75.6979997
 125.8749992  30.2184990  74.7459997 126.1309992  30.5614990  76.8479997
 126.0009992  29.0844990  77.1879997 124.9979992  28.6854990  77.1619997
 126.5379992  28.4964990  76.4589997 126.5469992  28.8454990  78.0889997
 127.5629992  31.0044990  76.9239997 127.6569992  32.0364990  76.6209997
 127.8459992  31.0964990  77.9619997 128.1459992  30.3334990  76.3109997
 125.2169992  31.3924990  77.7999997 125.4939992  32.4194990  77.6079997
 125.5569992  31.2214990  78.8109997 124.1579992  31.2814990  77.6249997
 126.2529992  32.8294990  72.0689997 127.3359992  30.7524990  72.7419997
 131.2399992  33.6204990  71.8989997 130.9729992  34.8794990  71.7079997
 130.7949992  35.6804990  72.6059997 130.9349992  35.2904990  70.2419997
 131.7239992  34.8634990  69.5869997 130.9359992  36.4004990  70.2099997
 129.5709992  34.8054990  69.7879997 129.1939992  35.2424990  68.8379997
 128.7889992  34.9564990  70.5619997 129.4699992  33.2844990  69.5329997
 128.4509992  33.0564990  69.1539997 129.4749992  32.8344990  70.5489997
 130.4849992  32.5794990  68.7139997 130.3719992  31.4874990  68.8849997
 131.5509992  32.7324990  68.9869997 130.1749992  32.8574990  67.1789997
 130.0139992  33.9474990  67.0339997 129.2209992  32.4004990  66.8419997
 131.2499992  32.4524990  66.1629997 131.5029992  31.3744990  66.2549997
 132.2239992  32.9794990  66.2519997 130.8189992  32.9514990  64.7929997
 129.8579992  32.4544990  64.5429997 131.5299992  32.4864990  64.0769997
 130.8699992  34.4464990  64.7169997 131.8079992  34.9104990  65.0569997
 129.8919992  35.2844990  64.3809997 129.9969992  36.3744990  64.2829997
 128.5029992  34.8194990  64.0469997 127.8089992  35.4844990  64.6029997
 128.2769992  33.7804990  64.3689997 128.2479992  34.9294990  62.5649997
 127.2229992  34.6084990  62.2819997 128.9929992  34.2944990  62.0399997
 128.1629992  36.4254990  62.2319997 129.1609992  36.9104990  62.2919997
 127.5619992  37.0334990  62.9429997 127.5969992  36.5594990  60.7969997
 127.3699992  37.6424990  60.6989997 126.6299992  36.0134990  60.7529997
 128.3999992  35.8904990  59.6629997 127.8019992  36.0424990  58.7389997
 128.4209992  34.7964990  59.8539997 129.8029992  36.5834990  59.3039997
 130.2979992  36.9024990  60.2459997 129.6619992  37.4824990  58.6659997
 130.6579992  35.5644990  58.5389997 131.3489992  36.1144990  57.8649997
 129.9729992  35.0434990  57.8349997 131.5149992  34.6084990  59.3279997
 132.2899992  35.1794990  59.8839997 132.0469992  33.8674990  58.6939997
 130.9119992  34.0424990  60.0689997 103.4119992  12.0894990  57.5169997
 103.5869992  12.8394990  56.7159997 103.6719992  12.4654990  58.5299997
 102.3019992  12.0614990  57.5529997 104.0829992  10.6234990  57.4339997
 103.9999992  10.1934990  56.4129997 105.1879992  10.7044990  57.5119997
 103.5579992   9.7234990  58.5089997 102.4609992   9.6244990  58.3629997
 103.8549992   8.6534990  58.4719997 103.8989992  10.2494990  59.9769997
 104.7809992  10.9234990  60.0229997 102.9829992  10.8574990  60.1319997
 104.1889992   9.1754990  61.0269997 104.3019992   9.6614990  62.0199997
 103.2209992   8.7074990  61.3059997 105.4889992   8.3184990  60.7449997
 105.4259992   7.9404990  59.7019997 106.3809992   8.9774990  60.8129997
 105.7309992   7.1514990  61.6729997 105.0139992   6.3164990  61.5269997
 106.7499992   6.7854990  61.4259997 105.8129992   7.4854990  63.1789997
 106.7059992   8.1304990  63.3199997 104.8619992   7.9614990  63.5039997
 106.1329992   6.2164990  63.9329997 105.2059992   5.6544990  64.1749997
 106.9419992   5.5874990  63.5029997 106.8439992   6.4874990  65.2549997
 107.8019992   6.9984990  65.0169997 106.2569992   7.2644990  65.7899997
 107.1319992   5.2544990  66.1029997 107.9589992   4.7824990  65.5319997
 107.5999992   5.4954990  67.0809997 105.8939992   4.3264990  66.3719997
 105.2059992   5.0014990  66.9249997 105.4699992   3.9814990  65.4049997
 106.3299992   3.0374990  67.2489997 107.1009992   2.5864990  66.5879997
 106.7859992   3.3764990  68.2029997 105.0999992   2.1324990  67.5429997
 104.7279992   1.8394990  66.5379997 105.4479992   1.2244990  68.0809997
 104.0439992   2.8404990  68.3109997 103.6149992   3.7574990  67.8549997
 103.1579992   2.1734990  68.3749997 104.4649992   3.0884990  69.8159997
 105.4019992   2.4704990  70.3219997 103.7619992   4.0904990  70.4919997
 103.9099992   4.0984990  71.9129997 102.9609992   4.3774990  72.4189997
 104.2069992   3.1114990  72.3279997 104.9769992   5.1464990  72.3889997
 106.0289992   4.8514990  72.1869997 104.8399992   5.2614990  73.9889997
 103.7619992   5.0744990  74.1789997 105.5049992   4.4464990  74.3459997
 105.2839992   6.5584990  74.4469997 105.0569992   6.9274990  75.9469997
 104.1619992   8.2224990  76.0149997 104.1739992   9.1194990  74.9179997
 103.8939992  10.1294990  75.2849997 105.2189992   9.1644990  74.5449997
 103.3189992   8.6594990  73.7049997 103.3499992   9.3744990  72.8959997
 103.8239992   7.7834990  73.3259997 101.8479992   8.3654990  74.0189997
 101.0979992   9.4484990  74.7269997 101.7249992   9.6624990  75.5799997
 100.7789992  10.2934990  74.1349997 100.1839992   9.0034990  75.0929997
 101.1159992   8.1014990  72.6579997 101.7039992   7.4004990  72.0849997
 100.1319992   7.7894990  72.9759997 101.0659992   9.0264990  72.1019997
 101.7239992   7.1054990  74.8989997 102.4619992   6.4064990  74.5339997
 100.7619992   6.6374990  74.7559997 101.8849992   7.3564990  75.9369997
 104.2559992   5.8604990  76.5799997 106.4059992   7.3244990  76.5569997
 104.7289992   6.4814990  71.8459997 105.3429992   6.8764990  70.7959997
 106.2229992   6.2474990  70.2329997 104.8539992   8.2804990  70.4289997
 105.4639992   9.0694990  70.9179997 103.7989992   8.5004990  70.6989997
 105.0379992   8.5084990  68.9169997 104.6009992   7.6244990  68.4059997
 106.1309992   8.6244990  68.7579997 104.3049992   9.8684990  68.5749997
 104.8499992  10.6464990  69.1509997 103.3499992   9.7174990  69.1229997
 104.0389992  10.2284990  67.0959997 105.0169992  10.4004990  66.5979997
 103.6089992  11.2474990  67.1979997 103.1989992   9.3514990  66.3139997
 103.3179992   8.2614990  66.4889997 103.3829992   9.5634990  65.2389997
 101.6779992   9.8284990  66.3779997 101.7619992  10.8724990  66.0059997
 101.2459992   9.8934990  67.3989997 100.6609992   9.0554990  65.4679997
 101.0539992   9.0744990  64.4289997  99.7009992   9.6104990  65.5189997
 100.4449992   7.6704990  65.9989997 100.3909992   7.6184990  67.0959997
 100.6289992   6.4474990  65.4379997 100.4489992   5.5654990  66.0709997
 101.1759992   6.2164990  64.0799997 101.9769992   5.4584990  64.2139997
 101.6999992   7.1614990  63.8209997 100.0379992   5.8424990  63.0579997
  99.2009992   6.5674990  63.1509997  99.6619992   4.8124990  63.2359997
 100.4219992   5.8034990  61.5579997 100.6029992   6.8594990  61.2659997
  99.5199992   5.4354990  61.0229997 101.7169992   4.9594990  61.2779997
 101.6069992   4.0624990  61.9239997 102.5319992   5.6904990  61.4679997
 101.9979992   4.4844990  59.9059997 101.8289992   5.3504990  59.2319997
 101.1669992   3.7704990  59.7229997 103.4029992   3.8944990  59.6029997
 103.5049992   3.0834990  60.3559997 104.2039992   4.6434990  59.7799997
 103.6859992   3.4584990  58.1199997 104.7129992   3.0354990  58.0869997
 103.5829992   4.4214990  57.5769997 102.6639992   2.5074990  57.4899997
 102.7049992   1.4594990  57.8569997 102.8669992   2.2894990  56.4189997
 101.6269992   2.9034990  57.5399997  13.8119992 112.4504990  54.5549997
  13.7299992 111.3614990  54.7599997  14.2709992 112.4294990  53.5439997
  12.8449992 112.9964990  54.6039997  14.7839992 113.0364990  55.5739997
  15.8099992 112.6904990  55.3259997  14.8039992 114.0854990  55.2099997
  14.3789992 112.8034990  57.0249997  13.4879992 113.3954990  57.3229997
  14.1119992 111.7414990  57.2149997  15.4369992 113.1754990  58.0609997
  16.3779992 112.7254990  57.6779997  15.6229992 114.2614990  57.9189997
  15.0389992 113.0244990  59.5509997  14.1599992 113.6654990  59.7799997
  14.7769992 111.9524990  59.6789997  16.1839992 113.2684990  60.5059997
  17.1319992 112.7694990  60.2119997  16.5069992 114.3134990  60.3119997
  15.7989992 113.0714990  62.0149997  15.1409992 113.9364990  62.2409997
  15.2189992 112.1514990  62.2429997  16.9579992 113.1234990  63.0089997
  17.6969992 112.3434990  62.7239997  17.3089992 114.1514990  63.2409997
  16.4949992 112.7034990  64.4399997  15.6829992 113.4004990  64.7389997
  16.1649992 111.6444990  64.3749997  17.6689992 112.6734990  65.4129997
  18.5649992 112.1254990  65.0499997  17.9279992 113.7504990  65.5049997
  17.3269992 112.2524990  66.9169997  16.3339992 112.6644990  67.1999997
  17.2619992 111.1524990  67.0589997  18.2179992 112.6714990  68.0419997
  19.2619992 112.3044990  67.9399997  18.3989992 113.7634990  67.9499997
  17.7459992 112.4054990  69.4549997  17.1689992 111.4844990  69.6849997
  18.6959992 112.3714990  70.0309997  16.7789992 113.5584990  69.9199997
  17.2759992 114.4944990  69.5859997  15.9459992 113.3754990  69.2079997
  16.4159992 113.7304990  71.4219997  16.1549992 112.6954990  71.7289997
  17.3529992 113.9704990  71.9679997  15.3489992 114.8274990  71.6869997
  14.9309992 115.6894990  70.9089997  15.0339992 114.6954990  72.9219997
  14.0889992 115.6794990  73.4899997  14.3969992 115.7864990  74.5519997
  14.1689992 116.6744990  73.0019997  12.6849992 115.1124990  73.6499997
  12.0749992 115.8414990  74.2269997  12.6399992 113.8214990  74.4909997
  13.3039992 113.9254990  75.3749997  11.6129992 113.7734990  74.9119997
  12.9639992 112.6024990  73.8149997  12.4759992 111.1564990  74.3359997
  13.8049992 110.3724990  74.4789997  14.9139992 110.8484990  73.7329997
  15.5809992 109.9784990  73.5549997  14.6389992 111.1004990  72.6859997
  15.6129992 112.0414990  74.4459997  16.4099992 112.4334990  73.8309997
  14.9339992 112.8804990  74.4739997  16.2869992 111.8134990  75.8199997
  17.1159992 113.0114990  76.1309997  17.9329992 113.1044990  75.4299997
  16.5249992 113.9124990  76.0669997  17.6509992 112.9644990  77.0689997
  15.2569992 111.7294990  76.9519997  14.6329992 110.8854990  76.6979997
  15.6059992 111.4804990  77.9429997  14.7269992 112.6694990  77.0029997
  17.0649992 110.4624990  75.7899997  16.4019992 109.7094990  75.3919997
  17.4749992 110.2584990  76.7689997  17.8549992 110.5664990  75.0609997
  11.8439992 111.1804990  75.7079997  11.6209992 110.5994990  73.2629997
  12.1869992 114.8734990  72.3399997  10.9109992 114.5674990  72.2519997
  10.1139992 114.6504990  73.1409997  10.5339992 114.5414990  70.7539997
  11.2209992 115.1104990  70.0929997   9.5229992 114.9954990  70.6669997
  10.2989992 113.0684990  70.2239997   9.7959992 113.0684990  69.2339997
   9.6139992 112.4534990  70.8459997  11.6119992 112.2024990  70.0199997
  11.3669992 111.1894990  69.6339997  12.0899992 112.2014990  71.0229997
  12.6869992 112.8054990  69.0619997  13.6199992 112.2234990  69.2229997
  13.0389992 113.8364990  69.2779997  12.1049992 112.8394990  67.6189997
  12.8789992 113.2634990  66.9449997  11.1649992 113.4314990  67.5899997
  11.8379992 111.4384990  67.0479997  10.8169992 111.1174990  67.3489997
  12.5189992 110.6504990  67.4329997  11.8909992 111.3764990  65.5169997
  11.5869992 110.3684990  65.1599997  12.9039992 111.6234990  65.1339997
  11.0879992 112.3624990  64.7879997  10.8919992 113.3254990  65.2829997
  10.4149992 112.1804990  63.6569997   9.9459992 113.0844990  63.2419997
  10.2509992 110.9184990  62.6999997   9.1599992 110.7794990  62.5409997
  10.7819992 110.0204990  63.0809997  10.8069992 111.2244990  61.2669997
  10.4809992 110.3774990  60.6259997  11.9099992 111.1094990  61.3219997
  10.3369992 112.5374990  60.6149997  10.7339992 113.3254990  61.2909997
   9.2319992 112.5264990  60.4999997  10.8669992 112.9314990  59.2289997
  11.8359992 112.4304990  59.0209997  10.9709992 114.0374990  59.2259997
   9.9319992 112.5514990  58.0119997   8.8779992 112.8404990  58.2129997
   9.8879992 111.4414990  58.0359997  10.4559992 113.0024990  56.6499997
  10.0949992 112.3024990  55.8659997  11.5559992 112.8474990  56.6509997
  10.1529992 114.4984990  56.1829997   9.0639992 114.6144990  55.9959997
  10.6719992 114.5994990  55.2059997  10.6489992 115.5344990  57.0879997
  10.0299992 115.5814990  58.0099997  10.6149992 116.5684990  56.6809997
  11.6849992 115.2354990  57.3559997  99.8529992   5.0864990  56.1589997
 100.2439992   5.8124990  55.4139997 100.5549992   4.2714990  56.4339997
  99.5449992   5.7164990  57.0199997  98.6909992   4.3334990  55.4749997
  97.8409992   5.0184990  55.2689997  99.0819992   4.0224990  54.4819997
  98.1529992   3.0964990  56.3399997  97.0889992   3.2024990  56.0389997
  98.6979992   2.1734990  56.0479997  98.2209992   3.3044990  57.9129997
  99.2709992   3.2324990  58.2679997  97.8389992   4.3154990  58.1679997
  97.4269992   2.2434990  58.6989997  96.3619992   2.1554990  58.3959997
  97.7769992   1.2074990  58.4979997  97.4349992   2.4104990  60.2039997
  96.7459992   3.2344990  60.4879997  97.1439992   1.4304990  60.6389997
  98.8469992   2.7054990  60.7129997  99.5229992   1.9324990  60.2889997
  99.2079992   3.6934990  60.3569997  98.9799992   2.5714990  62.1909997
 100.0219992   2.8594990  62.4489997  98.2249992   3.2434990  62.6499997
  98.8059992   1.0864990  62.6689997  98.9509992   0.4214990  61.7909997
  99.6479992   0.9344990  63.3769997  97.4409992   0.8264990  63.4009997
  96.6099992   1.1364990  62.7329997  97.2779992  -0.2505010  63.6219997
  97.2819992   1.5754990  64.7539997  97.8579992   2.5234990  64.6869997
  96.1989992   1.7624990  64.9149997  97.8009992   0.7664990  65.8899997
  97.3099992  -0.2295010  65.8499997  98.8479992   0.4364990  65.7189997
  97.6199992   1.5324990  67.2349997  96.5629992   1.8234990  67.4149997
  97.7909992   0.6884990  67.9359997  98.6189992   2.6894990  67.4759997
  99.5429992   2.4394990  66.9119997  98.2249992   3.6314990  67.0399997
  98.9709992   2.8204990  68.9399997  98.0779992   2.8994990  69.5969997
  99.5169992   1.9414990  69.3439997  99.7679992   4.0854990  69.1289997
 100.9389992   4.2114990  68.8549997  99.0269992   5.0054990  69.7639997
  99.5389992   6.2654990  70.3139997 100.6449992   6.2354990  70.4209997
  99.1889992   7.0094990  69.5679997  98.7909992   6.5694990  71.6389997
  99.1179992   7.4944990  72.1599997  99.2429992   5.4174990  72.6849997
 100.3449992   5.4424990  72.8249997  98.8189992   5.7474990  73.6579997
  98.6939992   4.1634990  72.3429997  97.5079992   3.4844990  73.0709997
  97.0129992   4.3844990  74.2379997  97.5929992   4.4424990  75.5489997
  98.2409992   3.5474990  75.6599997  98.2899992   5.3084990  75.5249997
  96.5289992   4.3914990  76.6539997  97.0299992   4.3244990  77.6079997
  96.1009992   5.3824990  76.6329997  95.5009992   3.2804990  76.6749997
  96.1159992   1.9004990  76.6889997  96.7999992   1.7864990  77.5179997
  95.3729992   1.1354990  76.8559997  96.5439992   1.7784990  75.7049997
  94.6309992   3.4354990  77.9549997  94.5349992   4.4484990  78.3179997
  93.6599992   2.9734990  77.8539997  95.2659992   2.9484990  78.6799997
  94.6199992   3.3454990  75.4799997  95.1969992   3.1484990  74.5889997
  94.0429992   4.2394990  75.2929997  93.9279992   2.5214990  75.5689997
  96.3519992   3.3504990  72.1409997  98.0469992   2.2394990  73.6789997
  97.3009992   6.5184990  71.4049997  96.6519992   7.2904990  70.5799997
  97.1679992   8.1694990  69.8889997  95.2309992   6.7974990  70.4939997
  94.6209992   7.6194990  70.0599997  95.0209992   6.6954990  71.5799997
  95.1479992   5.5234990  69.6459997  94.1819992   4.9794990  69.7179997
  95.8819992   4.7464990  69.9489997  95.3259992   5.7144990  68.1479997
  96.3739992   6.0554990  68.0109997  94.6429992   6.4954990  67.7499997
  94.9879992   4.4224990  67.3789997  93.9859992   4.0654990  67.6979997
  95.7839992   3.7254990  67.7179997  95.0579992   4.6194990  65.8149997
  94.9859992   3.6324990  65.3099997  96.0939992   4.9624990  65.6029997
  94.0569992   5.5894990  65.2479997  94.2499992   6.5944990  65.6819997
  93.0329992   5.2414990  65.5019997  94.0959992   5.6634990  63.6459997
  93.7119992   4.6904990  63.2699997  95.1839992   5.7094990  63.4289997
  93.3429992   6.8414990  63.1289997  92.2589992   6.9434990  63.2899997
  93.8629992   7.9154990  62.5519997  93.2249992   8.7234990  62.1679997
  95.2779992   8.2944990  62.2399997  95.8999992   7.9274990  63.0839997
  95.3409992   9.4034990  62.2049997  95.9429992   7.7594990  60.9349997
  96.1929992   6.7024990  61.1699997  96.8489992   8.3704990  60.7349997
  95.1159992   7.9004990  59.7299997  94.1509992   8.4324990  59.8719997
  94.7479992   6.8804990  59.4859997  95.7409992   8.6584990  58.4819997
  96.7379992   8.2454990  58.2169997  95.8989992   9.7194990  58.7719997
  94.9419992   8.4164990  57.2169997  95.3869992   9.1944990  56.5609997
  93.8449992   8.4524990  57.3929997  95.1889992   6.9434990  56.6009997
  94.6449992   6.2314990  57.2579997  96.2939992   6.8744990  56.6909997
  94.6229992   6.8104990  55.1769997  93.6469992   6.2784990  55.1679997
  95.4779992   6.2314990  54.7649997  94.3919992   8.0834990  54.4139997
  95.2939992   8.7044990  54.6009997  93.6239992   8.8034990  54.7699997
  94.3599992   7.9384990  53.3129997  31.3879992 137.2434990  57.4609997
  32.2329992 137.9644990  57.4359997  30.3979992 137.6894990  57.2269997
  31.6529992 136.4734990  56.7039997  31.3089992 136.5224990  58.8269997
  30.8359992 137.1984990  59.5709997  30.6109992 135.6694990  58.6869997
  32.6199992 136.1354990  59.4989997  32.4359992 135.5074990  60.3969997
  33.2659992 135.5384990  58.8199997  33.5739992 137.3104990  59.8889997
  34.5889992 136.8844990  60.0409997  33.6909992 137.9804990  59.0099997
  33.2289992 138.0024990  61.2049997  33.8699992 138.9094990  61.2389997
  32.1429992 138.2334990  61.1569997  33.5389992 137.4184990  62.6059997
  34.6389992 137.2814990  62.6729997  33.3649992 138.2124990  63.3629997
  32.6899992 136.2034990  63.1499997  31.6489992 136.5694990  63.0239997
  32.8569992 135.2654990  62.5779997  32.9429992 135.8704990  64.6319997
  33.2529992 136.7314990  65.2629997  32.0369992 135.4094990  65.0789997
  34.1269992 134.8814990  64.7039997  33.8279992 134.0694990  64.0069997
  35.0979992 135.3254990  64.3959997  34.4139992 134.3334990  66.1009997
  33.5219992 133.9294990  66.6239997  34.9609992 133.3824990  65.9219997
  35.3629992 135.2324990  67.0039997  36.3939992 134.8604990  66.8199997
  35.2399992 136.2904990  66.6869997  35.2679992 135.1784990  68.4829997
  34.5019992 135.8834990  68.8709997  35.1389992 134.1524990  68.8879997
  36.5319992 135.6774990  69.2609997  37.2919992 134.8874990  69.0859997
  36.6509992 136.6364990  68.7119997  36.4509992 135.9344990  70.7619997
  35.7449992 136.7924990  70.7289997  36.0469992 135.1474990  71.4339997
  37.7389992 136.5324990  71.4129997  37.6139992 136.5904990  72.5159997
  38.6139992 135.8484990  71.4219997  38.0109992 137.9024990  70.8749997
  38.3219992 138.1684990  69.7099997  37.9839992 138.8094990  71.8679997
  37.6299992 140.1854990  71.4869997  38.3119992 140.8834990  72.0179997
  37.7189992 140.3814990  70.3969997  36.2429992 140.5144990  72.0449997
  36.1279992 141.6184990  72.0939997  36.0989992 140.0754990  73.6159997
  37.0069992 140.2094990  74.2409997  35.3799992 140.8594990  73.9359997
  35.7349992 138.7554990  73.7259997  35.6089992 138.1154990  75.1929997
  35.0669992 136.5984990  74.8829997  33.8119992 136.5414990  74.1699997
  33.0679992 137.0574990  74.8119997  33.8109992 137.0324990  73.1729997
  33.3209992 135.1074990  73.8049997  32.3519992 135.1804990  73.3349997
  33.9199992 134.6664990  73.0219997  33.2119992 134.1614990  74.9549997
  34.5389992 133.6634990  75.3489997  34.3749992 132.9574990  76.1489997
  34.9969992 133.2434990  74.4649997  35.1019992 134.5054990  75.7229997
  32.5729992 134.7844990  76.2379997  33.0869992 135.7274990  76.3589997
  31.5039992 134.8704990  76.1159997  32.7779992 134.1114990  77.0569997
  32.4849992 132.9414990  74.4329997  33.0809992 132.5774990  73.6089997
  31.4319992 133.1084990  74.2619997  32.4319992 132.2104990  75.2259997
  37.0559992 137.9964990  75.6229997  34.6599992 138.7654990  76.0979997
  35.2989992 139.7224990  71.2839997  34.0179992 139.9704990  71.3649997
  33.5349992 140.7984990  72.0779997  33.1549992 138.9734990  70.5279997
  32.3429992 138.6044990  71.1909997  33.7639992 138.1294990  70.1399997
  32.4669992 139.6154990  69.2879997  31.7229992 140.3334990  69.6959997
  31.9789992 138.8364990  68.6649997  33.4429992 140.2744990  68.3279997
  33.8279992 141.2734990  68.6229997  32.7419992 140.5054990  67.4979997
  34.6039992 139.3764990  67.7429997  34.2379992 138.4114990  67.3309997
  35.3689992 139.2534990  68.5389997  35.4339992 140.2344990  66.6469997
  35.6309992 141.1714990  67.2109997  34.8839992 140.4674990  65.7099997
  36.7489992 139.4964990  66.3679997  36.8649992 138.7274990  67.1619997
  37.6589992 140.1054990  66.1789997  36.6509992 138.5494990  65.1179997
  35.6769992 138.0464990  65.2979997  37.3969992 137.7284990  65.1889997
  36.7399992 139.2004990  63.8099997  36.1249992 140.1014990  63.6679997
  37.3349992 138.8574990  62.6029997  37.0359992 139.4284990  61.7109997
  38.2049992 137.5934990  62.3519997  37.6529992 136.6554990  62.1279997
  38.7379992 137.4434990  63.3149997  39.2319992 137.9124990  61.2839997
  39.6559992 138.9374990  61.3379997  38.8379992 137.9424990  60.2449997
  40.2679992 136.8054990  61.1659997  40.7639992 136.5424990  62.1239997
  41.0139992 137.0964990  60.3959997  39.7049992 135.4724990  60.5779997
  38.9789992 135.0744990  61.3179997  40.5589992 134.7804990  60.4189997
  38.8669992 135.7144990  59.2809997  39.5119992 136.1794990  58.5059997
  37.9659992 136.2754990  59.6089997  38.5659992 134.3194990  58.5419997
  38.1839992 133.6964990  59.3799997  39.5569992 133.8504990  58.3589997
  37.6339992 134.2914990  57.3529997  36.7159992 134.9114990  57.4329997
  37.3769992 133.2214990  57.2019997  38.4309992 134.6844990  55.9939997
  37.6259992 134.8334990  55.2419997  39.1919992 133.9434990  55.6719997
  38.9359992 135.6714990  56.0659997 127.3509992 108.6114990  59.1379997
 127.8019992 108.6374990  58.1229997 126.2619992 108.5104990  58.9409997
 127.8479992 107.7924990  59.6999997 127.5859992 109.8444990  60.0239997
 127.1789992 109.5144990  61.0039997 128.6679992 110.0934990  60.0639997
 126.8289992 111.1484990  59.6049997 126.9009992 111.2424990  58.4999997
 125.7769992 111.0484990  59.9479997 127.5409992 112.4024990  60.2269997
 128.5179992 112.5154990  59.7089997 126.8509992 113.2194990  59.9259997
 127.6269992 112.3834990  61.7109997 126.5969992 112.2164990  62.0939997
 128.2259992 111.5764990  62.1839997 127.9879992 113.6994990  62.3609997
 128.5119992 114.2684990  61.5639997 127.0089992 114.1654990  62.6009997
 128.8149992 113.5714990  63.6729997 129.7389992 112.9554990  63.6489997
 129.0729992 114.5664990  64.0939997 127.9789992 112.8844990  64.7849997
 126.9299992 113.2314990  64.8999997 127.9189992 111.8194990  64.4729997
 128.6509992 112.9484990  66.1279997 128.5199992 114.0074990  66.4389997
 127.9909992 112.3974990  66.8309997 130.1699992 112.6974990  66.2009997
 130.3089992 111.5954990  66.2189997 130.7169992 113.2824990  65.4309997
 130.7029992 113.1174990  67.5989997 131.7999992 112.9974990  67.7299997
 130.5389992 114.2134990  67.6699997 130.0289992 112.4014990  68.8399997
 129.3659992 111.5584990  68.5509997 130.7949992 111.8554990  69.4299997
 129.3319992 113.4404990  69.7129997 129.9889992 113.8624990  70.5029997
 128.9389992 114.2994990  69.1279997 128.1219992 112.8174990  70.4859997
 127.3079992 112.5954990  69.7639997 128.3819992 111.7584990  70.6969997
 127.7339992 113.6374990  71.7309997 128.4669992 113.6454990  72.5659997
 127.6579992 114.6534990  71.2869997 126.3309992 113.0604990  72.3059997
 125.3449992 112.8804990  71.5819997 126.3439992 112.7584990  73.6099997
 125.2079992 111.9844990  74.0929997 125.0019992 112.2504990  75.1519997
 124.2759992 112.1564990  73.5119997 125.5359992 110.4704990  73.9019997
 124.6449992 109.8754990  74.1979997 126.7229992 110.1124990  74.8289997
 126.2689992 110.1154990  75.8429997 127.0019992 109.1004990  74.4639997
 127.6969992 111.0844990  74.8309997 129.0839992 110.8664990  75.6809997
 129.7139992 112.3134990  75.5319997 130.8989992 112.6884990  76.2489997
 130.7649992 113.7274990  76.6179997 131.0219992 111.9974990  77.1099997
 132.0239992 112.4234990  75.3059997 133.0009992 112.4354990  75.7649997
 131.9629992 111.3934990  74.9869997 131.9979992 113.3654990  74.0899997
 131.7659992 114.7804990  74.3289997 131.9219992 115.4604990  73.5059997
 130.7759992 114.9544990  74.7249997 132.3839992 115.0264990  75.1799997
 133.2689992 113.1374990  73.2559997 133.4549992 112.0814990  73.1279997
 133.1569992 113.6474990  72.3099997 134.1499992 113.5944990  73.6799997
 130.8719992 113.0074990  73.1229997 129.9159992 113.1654990  73.5989997
 131.0479992 111.9714990  72.8729997 130.9469992 113.6764990  72.2779997
 128.7319992 110.5174990  77.0719997 129.9739992 109.8894990  75.0019997
 125.8619992 110.3514990  72.5349997 125.9159992 109.1754990  71.9089997
 125.6529992 108.0504990  72.3659997 126.2409992 109.3294990  70.3939997
 126.0949992 110.3554990  69.9939997 125.4979992 108.7074990  69.8509997
 127.6609992 108.8324990  70.1619997 127.7269992 107.7554990  70.4269997
 128.3899992 109.4164990  70.7639997 128.1159992 108.7334990  68.6709997
 127.6829992 109.6384990  68.1959997 127.5959992 107.8494990  68.2439997
 129.5559992 108.5544990  68.3709997 129.9189992 107.6334990  68.8739997
 130.1569992 109.4654990  68.5829997 129.7699992 108.3794990  66.9129997
 129.5549992 109.3454990  66.4079997 129.0279992 107.6464990  66.5309997
 131.2309992 107.9984990  66.5529997 131.4809992 107.0114990  66.9999997
 131.8979992 108.7554990  67.0189997 131.4869992 107.9684990  64.9999997
 132.5229992 107.5684990  64.9649997 131.3959992 109.0374990  64.7099997
 130.5009992 107.0984990  64.2849997 130.1079992 106.1634990  64.7099997
 129.9939992 107.3494990  63.1039997 129.3229992 106.5524990  62.7519997
 130.1759992 108.4994990  62.2049997 129.7089992 109.3484990  62.7479997
 129.4749992 108.3464990  61.3569997 131.6079992 108.6864990  61.6019997
 131.9119992 107.7214990  61.1439997 132.3479992 109.0324990  62.3559997
 131.5589992 109.7204990  60.4589997 132.4659992 110.3404990  60.6249997
 130.7149992 110.4424990  60.4349997 131.6739992 109.0374990  59.1229997
 130.8809992 108.2644990  59.0299997 132.6529992 108.5614990  58.8989997
 131.5149992 109.9694990  57.9609997 132.0429992 110.8954990  58.2759997
 130.4419992 110.2304990  57.8359997 132.0539992 109.5214990  56.6289997
 132.0009992 108.4154990  56.5319997 133.1289992 109.7564990  56.4789997
 131.2719992 109.9994990  55.3579997 130.2339992 109.6044990  55.3249997
 131.7669992 109.5154990  54.4889997 131.1619992 111.5134990  55.0889997
 132.1039992 112.0794990  55.2469997 130.4479992 111.9664990  55.8099997
 130.9169992 111.8224990  54.0509997 118.4619992  16.6064990  55.1019997
 117.6879992  17.3834990  54.9249997 118.3499992  15.8124990  54.3329997
 119.3959992  17.1924990  54.9639997 118.3399992  16.1474990  56.5029997
 117.3699992  15.6164990  56.6109997 119.0569992  15.3384990  56.7579997
 118.4379992  17.3354990  57.4489997 117.4879992  17.9084990  57.4969997
 118.5169992  16.8314990  58.4369997 119.5669992  18.2524990  57.3619997
 120.4869992  17.7114990  57.0539997 119.3689992  19.0904990  56.6589997
 119.9549992  18.7654990  58.6989997 119.2229992  19.5234990  59.0509997
 120.2819992  18.0124990  59.4479997 121.2869992  19.5654990  58.5119997
 121.9189992  18.9394990  57.8459997 121.1329992  20.5104990  57.9499997
 122.1699992  19.7414990  59.7759997 122.3149992  18.7424990  60.2399997
 123.2049992  19.9294990  59.4189997 121.6729992  20.8244990  60.6879997
 121.5849992  21.7874990  60.1399997 120.6859992  20.5914990  61.1399997
 122.8059992  21.0874990  61.7559997 123.7639992  21.3754990  61.2709997
 122.4959992  21.9534990  62.3789997 123.1209992  19.8974990  62.6609997
 122.1579992  19.3604990  62.7969997 123.8489992  19.2104990  62.1789997
 123.5059992  20.3754990  64.1309997 123.8409992  19.4644990  64.6709997
 124.2509992  21.1964990  64.1959997 122.2379992  20.8474990  64.8439997
 121.8299992  21.8234990  64.5039997 121.5019992  20.0154990  64.8649997
 122.5709992  21.2534990  66.3199997 123.4059992  20.5724990  66.5919997
 122.9109992  22.3084990  66.3899997 121.3739992  21.3084990  67.2209997
 120.7179992  22.0394990  66.7009997 120.7489992  20.3934990  67.2959997
 121.7139992  21.6884990  68.7049997 122.0369992  20.8284990  69.3289997
 122.6189992  22.3314990  68.7009997 120.4909992  22.3344990  69.3349997
 119.4779992  22.6204990  68.7349997 120.7319992  22.7214990  70.5889997
 119.7119992  23.3884990  71.3649997 120.2269992  24.1934990  71.9319997
 118.8899992  23.7814990  70.7289997 119.2229992  22.4564990  72.4849997
 118.4089992  22.8784990  73.1109997 120.3239992  22.1224990  73.4539997
 121.2189992  21.7254990  72.9289997 120.6769992  23.0944990  73.8599997
 119.7779992  21.3584990  74.4769997 119.9919992  19.7834990  74.4729997
 118.6649992  19.1754990  74.0059997 117.4869992  19.6644990  74.6079997
 117.6219992  20.6944990  75.0019997 116.7369992  19.7934990  73.7989997
 117.0189992  18.7914990  75.7619997 117.6349992  19.0024990  76.6229997
 116.0249992  19.1024990  76.0489997 117.0849992  17.2834990  75.4909997
 118.4839992  16.7284990  75.4079997 118.2689992  15.7084990  75.1269997
 119.0339992  17.0954990  74.5539997 118.9949992  16.8304990  76.3539997
 116.3809992  16.6224990  76.6469997 115.3289992  16.7934990  76.4699997
 116.5779992  15.5624990  76.7139997 116.7089992  17.0534990  77.5819997
 116.3869992  16.9304990  74.1929997 115.3499992  17.1444990  74.4029997
 116.6269992  15.9194990  73.9009997 116.7469992  17.6224990  73.4449997
 121.0949992  19.4504990  73.5119997 120.2679992  19.3484990  75.8939997
 118.7769992  21.1904990  71.8909997 117.5469992  21.3524990  71.1509997
 116.6799992  22.1734990  71.3679997 117.4939992  20.2324990  70.2029997
 118.2139992  19.4684990  70.5689997 117.8169992  20.6734990  69.2359997
 116.1419992  19.6704990  69.8599997 115.7559992  20.0404990  68.8869997
 115.4179992  20.0034990  70.6339997 116.0589992  18.1254990  69.6939997
 115.0139992  17.8194990  69.4739997 116.3209992  17.6634990  70.6699997
 117.0129992  17.5354990  68.6349997 116.7549992  16.4624990  68.5049997
 118.0609992  17.6704990  68.9779997 116.8899992  18.1954990  67.3249997
 117.2139992  19.2494990  67.4619997 115.8029992  18.1024990  67.1169997
 117.7279992  17.5634990  66.1379997 117.1599992  16.6924990  65.7469997
 118.7359992  17.3104990  66.5309997 118.0219992  18.5624990  65.0169997
 118.6979992  19.3544990  65.4039997 117.1169992  19.1274990  64.7069997
 118.7359992  17.9534990  63.8609997 119.2729992  17.0254990  64.1059997
 118.6539992  18.2294990  62.5059997 119.1779992  17.6394990  61.7389997
 117.7339992  19.3324990  61.9319997 118.3929992  19.9284990  61.2649997
 117.3409992  20.0774990  62.6559997 116.5739992  18.8484990  61.1169997
 115.6669992  18.7654990  61.7539997 116.7869992  17.8814990  60.6129997
 116.2419992  19.8004990  59.9579997 115.3299992  19.5704990  59.3669997
 117.0209992  19.7284990  59.1689997 116.1119992  21.2824990  60.3099997
 116.9329992  21.7774990  60.8709997 115.3519992  21.3054990  61.1189997
 115.6139992  22.1804990  59.1769997 115.3509992  23.1024990  59.7369997
 114.6969992  21.7204990  58.7509997 116.7209992  22.3704990  58.0239997
 116.4029992  23.2334990  57.4009997 116.7579992  21.4074990  57.4719997
 118.1449992  22.5794990  58.5159997 118.3809992  21.6524990  59.0819997
 118.1519992  23.3474990  59.3179997 119.1229992  22.8624990  57.4259997
 120.0299992  23.0884990  58.0269997 118.8969992  23.7534990  56.8009997
 119.3719992  21.9814990  56.7959997 133.0899992  35.8884990  55.7349997
 132.4299992  36.7824990  55.7189997 132.9669992  35.4144990  54.7379997
 134.1699992  36.0694990  55.9209997 132.4629992  34.8194990  56.6239997
 131.5049992  34.5264990  56.1439997 133.1309992  33.9374990  56.7319997
 132.3329992  35.2564990  58.0599997 131.6489992  36.1274990  58.1459997
 131.7429992  34.4984990  58.6179997 133.5539992  35.6784990  58.8179997
 133.9639992  36.6754990  58.5479997 133.2969992  35.8164990  59.8899997
 134.7949992  34.7614990  58.7299997 134.2509992  33.8804990  59.1309997
 135.0449992  34.5064990  57.6779997 136.0309992  35.0514990  59.6409997
 136.6539992  34.1524990  59.8319997 136.7379992  35.7544990  59.1499997
 135.6509992  35.5434990  61.0079997 135.0429992  36.4724990  61.0519997
 135.0589992  34.7274990  61.4729997 136.9429992  35.8634990  61.7749997
 137.5759992  34.9514990  61.7279997 137.5869992  36.5954990  61.2419997
 136.8249992  36.4364990  63.2229997 137.8439992  36.4824990  63.6629997
 136.2689992  37.3984990  63.2129997 135.9479992  35.4474990  64.0879997
 134.9109992  35.5724990  63.7089997 136.3579992  34.4194990  63.9929997
 136.0369992  35.8084990  65.5239997 137.0889992  35.5014990  65.7029997
 136.0269992  36.8984990  65.7409997 135.2999992  34.8064990  66.4819997
 134.2019992  34.9674990  66.5459997 135.4869992  33.7884990  66.0789997
 135.9119992  34.6794990  67.8959997 135.3869992  33.9174990  68.5109997
 136.9199992  34.2704990  67.6679997 136.0939992  36.0424990  68.7139997
 136.8429992  36.6984990  68.2199997 135.1179992  36.5704990  68.7409997
 136.3719992  35.6714990  70.2139997 135.4409992  35.2424990  70.6419997
 137.2229992  34.9584990  70.2119997 136.8759992  36.9654990  70.9699997
 137.9999992  37.1724990  71.3289997 135.9479992  37.8614990  70.9479997
 136.1619992  39.1044990  71.6779997 136.9149992  38.8754990  72.4619997
 136.5369992  39.9224990  71.0259997 134.9009992  39.5354990  72.3139997
 134.9999992  40.5764990  72.6879997 134.5319992  38.7754990  73.6089997
 134.8329992  37.7184990  73.4469997 135.0989992  39.0584990  74.5209997
 133.1819992  38.9264990  73.9839997 132.1919992  37.7944990  74.5429997
 133.2189992  36.6844990  74.8769997 134.1039992  36.6644990  76.0009997
 135.0479992  37.2154990  75.7979997 133.7009992  37.0754990  76.9509997
 134.6279992  35.2224990  76.2819997 135.2339992  35.0124990  77.1509997
 133.8089992  34.5564990  76.5109997 135.4619992  34.5624990  75.1339997
 134.7079992  34.3484990  73.8509997 135.4409992  33.9274990  73.1789997
 133.8729992  33.6874990  74.0299997 134.3039992  35.2424990  73.3979997
 136.7249992  35.4194990  74.7359997 136.3319992  36.3454990  74.3429997
 137.2389992  35.5724990  75.6729997 137.4379992  34.9534990  74.0709997
 136.0109992  33.2254990  75.7029997 136.6849992  32.7824990  74.9849997
 135.1789992  32.6084990  76.0089997 136.5189992  33.4884990  76.6189997
 131.6259992  38.1894990  75.8469997 131.2249992  37.2964990  73.5149997
 133.7559992  39.4984990  71.4149997 133.5639992  40.4574990  70.5189997
 134.1639992  41.5004990  70.3719997 132.3959992  40.0274990  69.6199997
 132.2809992  40.7344990  68.7709997 131.4569992  40.0134990  70.2129997
 132.6939992  38.6224990  69.1009997 132.6349992  37.8734990  69.9199997
 133.7249992  38.6594990  68.6899997 131.9469992  37.9724990  67.8699997
 130.9039992  37.7004990  68.1399997 132.5779992  37.0954990  67.6109997
 132.0299992  38.7814990  66.5259997 133.0849992  38.8424990  66.1809997
 131.7419992  39.7884990  66.8979997 131.3099992  38.1284990  65.3779997
 130.4089992  37.7044990  65.8709997 132.0449992  37.3594990  65.0569997
 131.0329992  39.0344990  64.1629997 130.5069992  39.9524990  64.5019997
 130.3679992  38.4704990  63.4739997 132.3509992  39.2834990  63.2949997
 131.8599992  39.7684990  62.4249997 132.7059992  38.2554990  63.0679997
 133.4819992  40.1904990  63.7269997 133.5389992  40.4064990  64.8039997
 134.4199992  40.6924990  62.9379997 135.1139992  41.4094990  63.3999997
 134.6109992  40.4614990  61.5079997 134.1029992  41.3094990  61.0009997
 134.0939992  39.5974990  61.0389997 136.1019992  40.4354990  60.9689997
 136.5119992  39.6124990  61.5929997 136.5559992  41.4244990  61.1909997
 136.3469992  40.1764990  59.4839997 135.9619992  40.9634990  58.8009997
 135.6669992  39.3384990  59.2199997 137.7439992  39.7694990  59.0179997
 138.0439992  39.0154990  59.7759997 138.6039992  40.4704990  58.9559997
 137.7459992  39.0384990  57.6569997 137.0109992  38.2094990  57.7449997
 138.7709992  38.7554990  57.3359997 137.2539992  39.9544990  56.5059997
 138.0689992  40.7094990  56.5179997 136.3039992  40.4694990  56.7639997
 137.1119992  39.3434990  55.1279997 138.0909992  39.4724990  54.6189997
 136.3929992  39.9674990  54.5549997 136.7129992  37.9154990  55.1209997
 136.3549992  37.5824990  54.1239997 135.9159992  37.7064990  55.8659997
 137.6409992  37.3374990  55.3229997 141.0479992 100.5174990  58.5179997
 142.0119992 100.8554990  58.9549997 140.2719992 101.2764990  58.7549997
 141.0939992 100.4724990  57.4089997 140.6649992  99.1644990  59.1869997
 139.7599992  98.8384990  58.6309997 141.4989992  98.4344990  59.1129997
 140.3799992  99.2794990  60.7019997 139.7149992 100.1534990  60.8639997
 139.9699992  98.3504990  61.1539997 141.8059992  99.3674990  61.3829997
 142.0519992  98.3804990  61.8279997 142.5809992  99.7624990  60.6909997
 141.8149992 100.3684990  62.5219997 142.8319992 100.4584990  62.9599997
 141.5829992 101.3804990  62.1259997 140.8639992 100.2134990  63.7029997
 141.1159992 100.9164990  64.5259997 139.8309992 100.4614990  63.3799997
 140.7489992  98.8364990  64.4609997 140.4199992  98.1124990  63.6849997
 141.7849992  98.5454990  64.7359997 139.8889992  98.7564990  65.7859997
 140.5139992  98.4744990  66.6609997 139.6619992  99.8234990  65.9949997
 138.6979992  97.9024990  65.6559997 137.9839992  98.1574990  66.4679997
 138.1059992  98.1284990  64.7439997 138.9469992  96.3894990  65.7169997
 139.8019992  95.9384990  65.1699997 139.0369992  96.2804990  66.8189997
 137.7149992  95.5444990  65.3439997 137.4819992  95.6934990  64.2679997
 138.1179992  94.5384990  65.5869997 136.4319992  95.7294990  66.1429997
 135.8819992  96.6474990  65.8439997 135.7839992  94.8494990  65.9439997
 136.6549992  95.7944990  67.6339997 137.2949992  96.6594990  67.9099997
 135.6559992  96.0414990  68.0529997 137.2649992  94.4924990  68.2439997
 136.4959992  93.7024990  68.1079997 138.2489992  94.2804990  67.7729997
 137.6889992  94.6554990  69.7309997 136.8509992  95.0534990  70.3419997
 137.7319992  93.6504990  70.2019997 138.8759992  95.5974990  69.9819997
 139.7639992  95.7944990  69.1209997 138.7159992  96.1874990  71.1599997
 139.6679992  97.1594990  71.6059997 140.4939992  96.5894990  72.0819997
 140.1469992  97.7324990  70.7839997 139.1619992  98.2194990  72.5369997
 139.9359992  98.9114990  72.9319997 138.4999992  97.5994990  73.8239997
 138.0489992  96.6024990  73.6259997 139.4259992  97.3474990  74.3839997
 137.5819992  98.4904990  74.4469997 137.9449992  99.8784990  75.2029997
 138.5649992 100.8524990  74.1059997 138.7749992 102.1964990  74.5129997
 138.7549992 102.7734990  73.5639997 137.9089992 102.6394990  75.0499997
 140.0919992 102.3214990  75.4019997 140.2699992 103.3404990  75.7119997
 139.9989992 101.7724990  76.3269997 141.4789992 101.8534990  74.8359997
 142.4719992 102.2084990  75.8989997 142.3959992 103.2634990  76.1159997
 142.2949992 101.6384990  76.7989997 143.4279992 101.8224990  75.5769997
 141.5969992 100.3994990  74.5139997 142.3759992 100.3074990  73.7719997
 141.8119992 100.0264990  75.5039997 140.7349992 100.0424990  73.9689997
 141.7499992 102.6864990  73.5879997 142.7879992 102.5834990  73.3059997
 141.5229992 103.7104990  73.8449997 141.1469992 102.4074990  72.7359997
 136.7639992 100.4484990  75.8539997 139.0219992  99.4364990  76.1089997
 138.1669992  99.0204990  71.8129997 138.6999992 100.0314990  71.1469997
 139.8899992 100.2194990  71.0769997 137.4589992 100.7834990  70.5459997
 137.5339992 101.8904990  70.4829997 136.5949992 100.6224990  71.2249997
 137.0159992 100.1914990  69.1819997 137.0799992  99.0864990  69.2739997
 137.6609992 100.3344990  68.2889997 135.6009992 100.5124990  68.6819997
 135.4279992 101.6004990  68.5369997 134.8239992 100.2874990  69.4439997
 135.1709992  99.6864990  67.4589997 135.2779992  98.5984990  67.6569997
 135.7999992  99.8624990  66.5599997 133.7019992 100.0444990  66.9449997
 133.6889992 101.1314990  66.7179997 132.9459992  99.7174990  67.6899997
 133.3289992  99.2494990  65.6579997 132.2369992  99.3544990  65.4779997
 133.4159992  98.1544990  65.8229997 134.1829992  99.5154990  64.3709997
 133.9299992  98.6984990  63.6619997 135.2099992  99.2194990  64.6719997
 134.1099992 100.7864990  63.6409997 133.0569992 101.0244990  63.4269997
 135.0759992 101.6524990  63.2919997 134.6979992 102.5334990  62.7509997
 136.5389992 101.6494990  63.5069997 136.8459992 100.7854990  64.1339997
 136.9289992 102.5824990  63.9689997 137.3539992 101.5254990  62.2189997
 137.2449992 100.4744990  61.8769997 138.4209992 101.7804990  62.3939997
 136.8359992 102.3964990  61.0539997 136.8849992 103.4844990  61.2749997
 135.8109992 102.0744990  60.7709997 137.6479992 102.3854990  59.7559997
 137.4659992 101.5024990  59.1059997 138.7469992 102.3244990  59.9039997
 137.4909992 103.7104990  58.9229997 138.2049992 104.4614990  59.3229997
 136.4649992 104.1224990  58.8129997 137.9289992 103.4614990  57.4229997
 138.9319992 102.9864990  57.3629997 137.9679992 104.4224990  56.8669997
 137.1349992 102.3944990  56.6719997 136.8939992 101.4964990  57.2789997
 137.7479992 101.9504990  55.8579997 135.8649992 102.8314990  56.1569997
 135.3099992 101.9574990  55.7559997 136.0109992 103.6634990  55.4349997
 135.1679992 103.2104990  56.9349997 119.9419992 122.5574990  53.9089997
 119.1159992 121.8334990  53.7479997 120.2519992 122.3804990  54.9609997
 120.7479992 122.1924990  53.2369997 119.3609992 124.0484990  53.7789997
 120.2329992 124.6754990  54.0609997 118.9729992 124.1934990  52.7489997
 118.2349992 124.3774990  54.8649997 117.8259992 125.3984990  54.7069997
 117.3949992 123.6804990  54.6599997 118.5399992 124.3114990  56.3179997
 117.5899992 124.3964990  56.8869997 118.7419992 123.2274990  56.4529997
 119.6139992 125.2024990  56.8669997 120.5669992 124.6634990  57.0569997
 119.8399992 125.9034990  56.0349997 119.0479992 125.8614990  58.1279997
 119.7799992 126.6604990  58.3719997 118.0869992 126.3514990  57.8649997
 118.9579992 124.8574990  59.3039997 118.2969992 124.0184990  58.9989997
 119.9469992 124.4054990  59.5299997 118.2299992 125.4934990  60.4549997
 117.1579992 125.5934990  60.1779997 118.2399992 124.9004990  61.3939997
 118.6409992 126.8594990  61.0389997 118.5049992 127.6434990  60.2639997
 117.8849992 127.1334990  61.8059997 120.1179992 127.0134990  61.4649997
 120.7949992 126.9674990  60.5849997 120.2269992 127.9994990  61.9649997
 120.5799992 126.0894990  62.5089997 120.6419992 125.0554990  62.1069997
 121.5969992 126.4094990  62.8229997 119.7309992 126.0434990  63.8419997
 118.6719992 125.7454990  63.6859997 120.1089992 125.1624990  64.4029997
 119.9549992 127.1094990  64.8009997 120.9989992 127.1524990  65.1799997
 119.7079992 128.0804990  64.3209997 119.1119992 126.9664990  66.1239997
 119.1699992 127.8964990  66.7289997 118.0709992 126.6494990  65.8969997
 119.6779992 125.8574990  67.1319997 119.7349992 124.8514990  66.6649997
 120.7289992 126.1914990  67.2699997 118.8409992 126.0064990  68.4319997
 117.7739992 126.5474990  68.5129997 119.5529992 125.5424990  69.4099997
 118.8649992 125.5434990  70.7369997 119.5629992 125.9264990  71.5119997
 118.0119992 126.2544990  70.7639997 118.4739992 124.0634990  71.1689997
 117.8619992 123.7554990  70.2949997 117.5889992 123.9924990  72.4659997
 116.7009992 124.5544990  72.1039997 117.2529992 122.9444990  72.6159997
 118.1689992 124.6534990  73.5799997 118.4509992 123.7474990  74.9059997
 119.6619992 122.9654990  74.3769997 120.1279992 121.8994990  75.2399997
 120.0999992 122.1294990  76.3269997 119.4519992 121.0204990  75.1729997
 121.5559992 121.3824990  74.9469997 121.7259992 120.4534990  75.4689997
 121.5139992 121.0874990  73.9089997 122.8079992 122.2714990  75.0669997
 122.3269992 123.6974990  74.8059997 121.7229992 123.9614990  73.9509997
 121.6669992 123.8854990  75.6399997 123.1699992 124.3674990  74.7259997
 123.4719992 122.2414990  76.3879997 124.4069992 122.7574990  76.2289997
 123.1139992 122.8164990  77.2289997 123.7389992 121.2244990  76.6329997
 123.8489992 121.8534990  74.0399997 123.2899992 121.5984990  73.1509997
 124.4189992 121.0254990  74.4359997 124.4699992 122.6904990  73.7549997
 118.9359992 124.6434990  75.9489997 117.4159992 122.7994990  75.1719997
 119.6869992 123.3054990  71.2419997 119.6019992 122.0724990  70.8359997
 118.6649992 121.4684990  70.3469997 121.0139992 121.4344990  70.9009997
 120.8379992 120.5164990  71.5009997 121.8009992 121.9554990  71.4869997
 121.6739992 121.1174990  69.6239997 120.9109992 120.7844990  68.8879997
 122.3449992 120.2374990  69.7259997 122.5299992 122.2774990  69.1209997
 123.5419992 121.9194990  69.4079997 122.3679992 123.3424990  69.3939997
 122.6559992 122.3344990  67.6099997 123.1199992 121.3914990  67.2499997
 123.2679992 123.2114990  67.3099997 121.3169992 122.5364990  66.8619997
 120.6279992 123.2464990  67.3669997 120.6789992 121.6304990  66.7739997
 121.4069992 122.8314990  65.3469997 122.0649992 123.7254990  65.2989997
 120.4469992 123.2174990  64.9419997 121.8469992 121.6114990  64.4849997
 122.8089992 121.1604990  64.8089997 122.1479992 122.0074990  63.4919997
 120.8149992 120.5654990  64.3499997 120.9259992 119.6304990  64.9189997
 119.7999992 120.6124990  63.4789997 119.2069992 119.6924990  63.3639997
 119.4929992 121.7654990  62.4869997 120.2419992 122.5614990  62.6889997
 118.5079992 122.2614990  62.6249997 119.7239992 121.4904990  60.9739997
 119.4049992 122.3494990  60.3459997 118.9139992 120.7704990  60.7279997
 121.2119992 121.0764990  60.5229997 121.2689992 120.0424990  60.9249997
 121.9339992 121.6344990  61.1569997 121.4509992 121.1584990  59.0589997
 121.4819992 122.2574990  58.8969997 120.6949992 120.7784990  58.3389997
 122.8249992 120.6184990  58.5649997 122.8729992 119.5084990  58.5359997
 123.5779992 121.0194990  59.2769997 123.2909992 121.1874990  57.2539997
 124.2029992 120.6424990  56.9309997 123.6319992 122.2384990  57.3729997
 122.3279992 121.1004990  56.1049997 122.7819992 121.7184990  55.3009997
 121.4329992 121.6154990  56.5139997 121.9799992 119.6474990  55.5579997
 122.9119992 119.0824990  55.3409997 121.3609992 119.7314990  54.6389997
 121.3339992 119.1264990  56.2949997 115.1639992 131.3684990  54.0169997
 115.5879992 132.3554990  54.3009997 115.8899992 130.9844990  53.2679997
 115.1689992 130.6694990  54.8809997 113.7269992 131.5824990  53.5629997
 113.7749992 132.1304990  52.5969997 113.2079992 130.6184990  53.3759997
 113.0429992 132.4574990  54.5869997 112.7469992 131.9324990  55.5199997
 113.7119992 133.2944990  54.8829997 111.6889992 132.9284990  54.1209997
 111.8179992 133.2114990  53.0549997 111.0699992 132.0074990  54.1579997
 111.0519992 134.1184990  54.8839997 111.3979992 135.0704990  54.4289997
 109.9579992 134.2354990  54.7279997 111.3979992 134.1734990  56.3359997
 111.2199992 133.1874990  56.8149997 112.4459992 134.4844990  56.5369997
 110.4629992 135.1654990  56.9699997 110.6849992 136.1814990  56.5799997
 109.4009992 134.9274990  56.7449997 110.5689992 135.2664990  58.4999997
 111.6509992 135.2544990  58.7499997 110.1099992 136.1924990  58.9069997
 109.8769992 134.0574990  59.1889997 108.8159992 134.0554990  58.8589997
 110.3269992 133.1424990  58.7479997 110.0619992 134.1494990  60.7229997
 109.4709992 135.0334990  61.0459997 109.4729992 133.2384990  60.9649997
 111.4539992 133.8844990  61.2479997 111.8469992 132.9674990  60.7599997
 112.2229992 134.6094990  60.9049997 111.3379992 133.4724990  62.7099997
 110.5699992 132.6944990  62.9089997 112.3239992 133.1784990  63.1299997
 111.0929992 134.6304990  63.6689997 111.9109992 135.3364990  63.4109997
 110.1479992 135.1254990  63.3609997 110.8989992 134.2264990  65.1489997
 110.2329992 134.9034990  65.7249997 110.3549992 133.2614990  65.2189997
 112.1839992 134.1374990  65.8899997 112.7639992 133.3364990  65.3829997
 112.7469992 135.0834990  65.7399997 112.0099992 133.7624990  67.3689997
 111.0589992 133.0764990  67.7529997 113.0159992 134.1554990  68.1529997
 112.9509992 133.9954990  69.5639997 112.1819992 133.2434990  69.8409997
 113.9499992 133.6104990  69.8609997 112.7099992 135.4114990  70.2199997
 113.5879992 136.0724990  70.0539997 112.6109992 135.2374990  71.8059997
 113.4899992 134.7614990  72.2899997 112.4009992 136.2534990  72.2039997
 111.5269992 134.4654990  72.0779997 110.8689992 134.3594990  73.5069997
 112.2349992 134.3734990  74.3119997 112.2069992 133.9514990  75.7049997
 111.4059992 133.1994990  75.8699997 113.0479992 133.2464990  75.8799997
 112.2679992 135.0704990  76.7119997 111.3209992 135.5004990  77.0019997
 112.6099992 134.6574990  77.6489997 113.2669992 136.1824990  76.2709997
 113.5729992 136.9704990  77.5219997 114.5949992 137.3154990  77.4699997
 112.9339992 137.8324990  77.6419997 113.3199992 136.3794990  78.3899997
 114.6419992 135.7154990  75.7509997 114.9769992 134.8354990  76.2789997
 114.4689992 135.3564990  74.7469997 115.3189992 136.5554990  75.8029997
 112.6159992 137.0854990  75.2319997 113.1869992 137.9914990  75.0939997
 111.5869992 137.2314990  75.5269997 112.5349992 136.6254990  74.2579997
 110.0589992 135.5744990  73.7919997 110.2559992 133.0444990  73.5909997
 111.4849992 135.8614990  69.6269997 111.2119992 137.0944990  69.8919997
 112.0359992 137.8544990  70.4159997 109.7989992 137.3904990  69.4949997
 109.6309992 138.4564990  69.2319997 109.0739992 137.2034990  70.3159997
 109.4029992 136.5174990  68.3239997 109.2699992 135.5204990  68.7959997
 110.2389992 136.4294990  67.5969997 108.1909992 137.0854990  67.4959997
 107.3919992 137.3394990  68.2259997 107.7569992 136.3244990  66.8129997
 108.4779992 138.3494990  66.6059997 109.1049992 139.0034990  67.2509997
 107.4769992 138.7954990  66.4279997 109.3639992 138.0474990  65.3589997
 108.9469992 137.5314990  64.4669997 110.3259992 137.5874990  65.6699997
 109.9759992 139.3564990  64.7819997 110.8289992 139.7734990  65.3589997
 109.1739992 140.0844990  64.5339997 110.6979992 139.0334990  63.4209997
 111.4769992 138.2754990  63.6499997 111.2439992 139.9854990  63.2489997
 109.9149992 138.5874990  62.2469997 109.1739992 137.7824990  62.3659997
 109.9419992 139.0804990  60.9669997 109.2439992 138.6734990  60.2199997
 110.8139992 140.1484990  60.3599997 111.4479992 140.5584990  61.1749997
 110.2079992 140.9904990  59.9619997 111.7629992 139.7364990  59.2869997
 112.3079992 138.8674990  59.7129997 112.3749992 140.6404990  59.0799997
 111.1209992 139.3254990  57.9639997 110.6099992 140.1894990  57.4889997
 110.3829992 138.5094990  58.1149997 112.1229992 138.7414990  56.9929997
 112.4559992 137.7804990  57.4399997 113.0429992 139.3634990  57.0039997
 111.6639992 138.6154990  55.5449997 111.4139992 139.6784990  55.3399997
 110.7249992 138.0214990  55.5569997 112.7849992 138.1184990  54.5799997
 112.6469992 137.0354990  54.3749997 113.8019992 138.2264990  55.0149997
 112.8509992 138.9564990  53.2789997 111.9639992 138.8574990  52.6169997
 113.6819992 138.5884990  52.6399997 113.3389992 140.4404990  53.5079997
 113.0189992 141.0324990  52.6239997 114.4349992 140.3764990  53.6819997
 112.8999992 140.9284990  54.4029997   8.4539992   9.7264990  54.2149997
   7.5109992  10.3134990  54.2549997   8.5219992   9.3974990  53.1559997
   9.2749992  10.4454990  54.4239997   8.5069992   8.5524990  55.1819997
   7.5959992   7.9354990  55.0289997   9.4049992   7.9534990  54.9159997
   8.4759992   8.9104990  56.6899997   8.8789992   9.9274990  56.8819997
   7.4779992   8.9244990  57.1779997   9.3859992   8.0064990  57.5899997
   8.8139992   7.0934990  57.8619997  10.2499992   7.6344990  56.9989997
   9.7519992   8.6944990  58.9089997  10.4629992   9.5254990  58.7079997
   8.8989992   9.1564990  59.4509997  10.3639992   7.6184990  59.8289997
   9.8889992   6.6134990  59.8529997  11.3989992   7.5144990  59.4389997
  10.5159992   8.0324990  61.2629997  11.1009992   8.9644990  61.4169997
   9.5479992   8.0334990  61.8089997  11.4279992   7.0204990  62.0179997
  10.8449992   6.0764990  61.9579997  12.4139992   6.9264990  61.5139997
  11.5639992   7.4124990  63.4919997  12.0969992   8.3854990  63.5399997
  10.5659992   7.6614990  63.9119997  12.1259992   6.3114990  64.4369997
  11.9869992   6.6944990  65.4699997  11.6439992   5.3154990  64.3309997
  13.6089992   6.0884990  64.2329997  13.8559992   5.2534990  64.9229997
  13.8639992   5.7124990  63.2189997  14.5639992   7.2474990  64.5589997
  15.5229992   6.7414990  64.3169997  14.3979992   8.1864990  63.9879997
  14.6479992   7.4614990  66.0869997  14.0499992   6.7094990  66.6449997
  15.6499992   7.1874990  66.4809997  14.2579992   8.8854990  66.6099997
  15.0189992   9.6454990  66.3319997  13.3439992   9.1114990  66.0209997
  13.9309992   8.9544990  68.1839997  12.9379992   8.4734990  68.3129997
  14.7449992   8.4994990  68.7869997  13.9029992  10.3754990  68.5399997
  13.7039992  11.2844990  67.7709997  14.1229992  10.5054990  69.8989997
  13.8209992  11.8764990  70.3199997  14.4119992  12.2314990  71.1909997
  14.0589992  12.6064990  69.5179997  12.3389992  12.1584990  70.6799997
  12.1649992  13.2384990  70.8749997  12.1279992  11.4354990  72.1069997
  13.1619992  11.2694990  72.4769997  11.6649992  12.1084990  72.8599997
  11.3209992  10.2584990  71.9589997  11.5319992   9.0824990  72.9999997
  11.6399992   9.7114990  74.4179997  10.5689992  10.5424990  74.8879997
  11.0319992  11.2134990  75.6429997  10.1029992  11.3214990  74.2479997
   9.4909992   9.7544990  75.6869997   8.9089992  10.5774990  76.0739997
   8.9349992   9.1054990  75.0269997   9.8899992   8.8994990  76.9399997
  10.7419992   7.6944990  76.4379997  10.7189992   6.9964990  77.2619997
  10.3729992   7.2894990  75.5069997  11.7599992   8.0064990  76.2629997
  10.5619992   9.8114990  77.9649997  11.5659992  10.0074990  77.6179997
   9.9729992  10.7144990  78.0299997  10.6369992   9.2984990  78.9129997
   8.5589992   8.3764990  77.4199997   8.0349992   9.2034990  77.8769997
   8.7049992   7.5914990  78.1469997   7.9769992   7.9794990  76.6019997
  10.3669992   8.2264990  72.9849997  12.8789992   8.4784990  72.7719997
  11.5279992  11.6844990  69.5989997  10.3569992  12.3464990  69.5329997
   9.8479992  13.0824990  70.3209997   9.6159992  11.9064990  68.2609997
   8.6639992  12.4744990  68.1799997   9.4889992  10.8034990  68.2989997
  10.4879992  12.3384990  67.0889997  11.1539992  11.5294990  66.7189997
  11.0709992  13.2424990  67.3659997   9.6899992  12.5594990  65.7949997
   8.7099992  12.8924990  66.1999997   9.5419992  11.6074990  65.2409997
  10.2719992  13.6484990  64.8159997  10.1949992  14.5224990  65.4969997
   9.6199992  13.7674990  63.9249997  11.7319992  13.5004990  64.3909997
  12.2419992  13.5524990  65.3769997  11.9099992  14.3614990  63.7109997
  12.0129992  12.1744990  63.6239997  11.9989992  12.1894990  62.5129997
  11.1879992  11.4694990  63.8609997  13.3199992  11.5154990  64.1489997
  13.3649992  10.5164990  63.6629997  13.2809992  11.4514990  65.2579997
  14.5319992  12.3414990  63.8889997  14.7709992  13.1824990  64.5559997
  15.3319992  12.3154990  62.8429997  16.1469992  13.0534990  62.8579997
  15.1559992  11.3784990  61.6079997  14.1039992  11.0214990  61.6099997
  15.7249992  10.4284990  61.6899997  15.5719992  12.0684990  60.2759997
  16.6649992  12.0134990  60.0799997  15.2809992  13.1274990  60.1139997
  14.8959992  11.2534990  59.1319997  13.7909992  11.3624990  59.1739997
  15.1469992  10.1724990  59.1789997  15.3459992  11.7574990  57.6969997
  16.4319992  11.5564990  57.5769997  15.2949992  12.8674990  57.6979997
  14.4469992  11.1834990  56.5679997  14.9589992  11.4284990  55.6139997
  13.4829992  11.7184990  56.7029997  14.1889992   9.6764990  56.6169997
  13.4739992   9.4914990  57.4469997  15.1929992   9.2364990  56.7979997
  13.4219992   9.1614990  55.3979997  13.9819992   9.5244990  54.5089997
  12.5419992   9.8214990  55.2449997  13.1119992   7.6914990  55.4799997
  12.8389992   7.2244990  54.5089997  12.3989992   7.4554990  56.2979997
  14.0329992   7.1494990  55.7849997   3.1859992  23.1794990  56.9739997
   2.3779992  22.4204990  56.9029997   3.8599992  23.1294990  56.0919997
   2.5909992  24.1074990  56.8369997   3.8419992  23.2384990  58.3309997
   4.6349992  22.4604990  58.3309997   4.4699992  24.1444990  58.4679997
   2.9379992  23.0394990  59.6479997   2.5349992  24.0534990  59.8569997
   2.0059992  22.5304990  59.3219997   3.5959992  22.2194990  60.7589997
   3.7659992  21.2004990  60.3499997   4.5499992  22.6484990  61.1329997
   2.6369992  21.9604990  61.9859997   1.5779992  21.9784990  61.6519997
   2.9929992  21.0134990  62.4449997   2.6549992  23.0384990  63.1209997
   2.8549992  23.9554990  62.5259997   1.6369992  23.1544990  63.5479997
   3.7759992  22.8524990  64.2059997   3.2689992  22.0654990  64.8049997
   4.7999992  22.5914990  63.8629997   3.7749992  23.8584990  65.3289997
   2.7709992  24.0114990  65.7799997   4.2059992  23.3134990  66.1959997
   4.5149992  25.1284990  65.0809997   5.4899992  24.9384990  64.5849997
   3.8289992  25.6814990  64.4039997   4.7769992  26.0174990  66.3119997
   5.2159992  25.5184990  67.2019997   5.2639992  26.9404990  65.9289997
   3.4649992  26.6484990  66.8019997   3.3069992  27.4664990  66.0669997
   2.6139992  25.9374990  66.7259997   3.4219992  27.2464990  68.2099997
   3.5559992  26.4484990  68.9709997   4.2899992  27.9254990  68.3499997
   2.2519992  28.1034990  68.6099997   2.3199992  28.3994990  69.6789997
   2.3169992  29.0154990  67.9789997   1.0289992  27.1994990  68.5779997
   0.2839992  27.8694990  69.0579997   0.7829992  26.9314990  67.5279997
   1.1059992  25.8624990  69.5039997   1.7779992  25.1194990  69.0229997
   1.4329992  26.0104990  70.5549997  -0.2660008  25.1794990  69.6379997
  -1.0140008  24.8554990  68.6989997  -0.4030008  24.8454990  70.9059997
  -1.3260008  23.8494990  71.2519997  -1.6680008  24.2054990  72.2479997
  -2.1570008  23.7964990  70.5169997  -0.5940008  22.4594990  71.5769997
  -1.3800008  21.6834990  71.6999997   0.1179992  22.4014990  72.9869997
  -0.7320008  22.2044990  73.6759997   0.7179992  21.4804990  73.1479997
   0.6899992  23.6734990  73.2449997   2.3099992  23.8404990  73.0779997
   2.7129992  22.6444990  74.0629997   4.1459992  22.6184990  74.3899997
   4.8369992  22.4094990  73.5449997   4.4849992  23.6374990  74.6749997
   4.3929992  21.6504990  75.5409997   4.1599992  20.6244990  75.2969997
   5.4539992  21.6934990  75.7379997   3.7069992  21.8624990  76.8949997
   3.8519992  23.2744990  77.3129997   4.8799992  23.5194990  77.5379997
   3.5689992  23.8484990  76.4429997   3.3639992  23.4174990  78.2649997
   2.2219992  21.4104990  76.8469997   1.7129992  21.9204990  77.6509997
   1.7099992  21.6404990  75.9239997   2.2929992  20.3334990  76.8249997
   4.4039992  21.0104990  77.8879997   4.0779992  21.2394990  78.8929997
   5.4779992  21.1114990  77.8319997   4.1879992  19.9974990  77.5859997
   2.5289992  23.5484990  71.6399997   2.8189992  25.1134990  73.5719997
   0.2719992  22.1794990  70.5159997   0.4789992  20.9294990  70.2329997
  -0.0570008  19.9504990  70.7229997   1.6709992  20.8524990  69.1869997
   1.8259992  19.7704990  68.9869997   2.6089992  21.3434990  69.5249997
   1.2569992  21.5764990  67.9099997   2.1599992  21.6734990  67.2709997
   0.9479992  22.5864990  68.2539997   0.1869992  20.8424990  67.1199997
  -0.5160008  20.3514990  67.8259997   0.6479992  19.9494990  66.6439997
  -0.6810008  21.6624990  66.1829997  -0.0510008  22.2284990  65.4639997
  -1.3170008  22.4174990  66.6929997  -1.7070008  20.7214990  65.4779997
  -2.2500008  20.1594990  66.2679997  -1.1500008  19.9844990  64.8609997
  -2.7860008  21.3874990  64.5899997  -3.3700008  22.1074990  65.2029997
  -3.5080008  20.6024990  64.2769997  -2.2330008  22.2344990  63.4389997
  -1.4990008  22.9184990  63.9149997  -2.9450008  22.8554990  62.8539997
  -1.4370008  21.3464990  62.4689997  -0.3830008  21.2604990  62.7699997
  -2.0150008  20.9814990  61.3029997  -1.4640008  20.3704990  60.5729997
  -3.4610008  21.3254990  60.7439997  -4.1580008  21.4984990  61.5919997
  -3.9270008  20.5524990  60.0969997  -3.3860008  22.5454990  59.7539997
  -2.9700008  23.3774990  60.3609997  -4.4310008  22.6894990  59.4049997
  -2.5840008  22.2834990  58.4469997  -2.9900008  21.3444990  58.0129997
  -1.5730008  22.0324990  58.8339997  -2.5620008  23.4584990  57.4609997
  -3.5810008  23.8494990  57.2559997  -2.1080008  23.0614990  56.5279997
  -1.8140008  24.7554990  57.9499997  -0.7610008  24.4294990  58.0889997
  -2.2390008  24.9404990  58.9599997  -1.9040008  25.9684990  57.0369997
  -1.5660008  26.8384990  57.6389997  -2.8800008  26.3544990  56.6739997
  -1.0650008  25.7594990  55.8089997  -1.5840008  24.8974990  55.3379997
  -0.0360008  25.5514990  56.1729997  -1.0000008  26.9684990  54.8909997
  -0.4010008  27.7504990  55.4059997  -1.9490008  27.4604990  54.5899997
  -0.5850008  26.7014990  53.8949997  31.1749992 131.4764990  57.7669997
  30.4049992 131.3634990  56.9739997  31.4129992 130.4434990  58.0979997
  32.1459992 131.9314990  57.4729997  30.6229992 132.1604990  58.9929997
  31.4509992 132.3454990  59.7099997  30.1939992 133.1534990  58.7409997
  29.5519992 131.3074990  59.7379997  28.9389992 130.8634990  58.9239997
  30.1129992 130.5704990  60.3519997  28.7509992 132.2014990  60.7059997
  28.2769992 133.0334990  60.1409997  27.8949992 131.5354990  60.9449997
  29.5339992 132.5584990  61.9759997  29.3489992 131.7274990  62.6899997
  30.5879992 132.6064990  61.6259997  29.0179992 133.9054990  62.4779997
  29.1339992 134.6764990  61.6859997  27.9239992 133.8114990  62.6419997
  29.6139992 134.3134990  63.7539997  30.6349992 133.8784990  63.7839997
  29.3699992 135.3874990  63.9049997  28.6799992 133.7624990  64.9009997
  27.6819992 134.2414990  64.8039997  28.5699992 132.6824990  64.6609997
  29.0799992 134.0514990  66.3599997  28.9229992 135.1404990  66.5179997
  28.3879992 133.4924990  67.0249997  30.5469992 133.8154990  66.7899997
  30.9519992 132.8144990  66.5279997  31.1819992 134.6044990  66.3329997
  30.7049992 134.0284990  68.3029997  31.7809992 134.2874990  68.3999997
  30.1939992 134.9954990  68.4949997  30.3099992 132.8264990  69.1799997
  29.2199992 132.6104990  69.1439997  30.9429992 132.0924990  68.6379997
  30.8029992 132.9714990  70.6349997  30.5959992 132.0834990  71.2689997
  31.9109992 133.0554990  70.6359997  30.1859992 134.2364990  71.2969997
  30.7209992 135.0554990  70.7709997  29.1249992 134.3244990  70.9809997
  30.4629992 134.3514990  72.8619997  30.1259992 133.3714990  73.2609997
  31.4979992 134.6544990  73.1299997  29.7709992 135.5594990  73.4529997
  29.3899992 136.4444990  72.7249997  29.6839992 135.4564990  74.7479997
  28.9009992 136.2844990  75.6829997  29.0109992 136.0504990  76.7629997
  29.0559992 137.3834990  75.6519997  27.3369992 136.1184990  75.4069997
  26.8219992 136.7504990  76.1609997  26.8719992 134.5694990  75.6849997
  25.7999992 134.4104990  75.9289997  27.0559992 134.0664990  74.7109997
  27.7089992 133.8774990  76.6689997  28.2299992 132.3984990  76.5299997
  26.9519992 131.8014990  75.7649997  26.8989992 130.3774990  75.8559997
  27.8949992 129.8844990  75.8739997  26.4169992 130.0684990  76.8069997
  26.0929992 129.7834990  74.6569997  26.1509992 128.7054990  74.6819997
  25.0849992 130.0964990  74.8869997  26.5939992 130.2234990  73.2349997
  28.0279992 129.9264990  73.0419997  28.6629992 130.5254990  73.6779997
  28.2339992 128.9014990  73.3099997  28.2809992 130.1694990  72.0209997
  25.9119992 129.3164990  72.1759997  25.0179992 129.8794990  71.9529997
  26.5349992 129.0994990  71.3209997  25.7229992 128.3334990  72.5809997
  26.4029992 131.6444990  72.8969997  27.0749992 132.2894990  73.4429997
  25.3619992 131.9014990  73.0299997  26.6529992 131.7034990  71.8479997
  29.5379992 132.4924990  75.7539997  28.2589992 131.7394990  77.8919997
  27.0009992 136.4934990  74.0579997  25.7079992 136.5294990  73.7149997
  24.7289992 136.3044990  74.4449997  25.6169992 136.8094990  72.2929997
  26.4659992 137.4554990  71.9809997  24.6859992 137.3134990  71.9569997
  25.8709992 135.4424990  71.5159997  25.2999992 134.5764990  71.9139997
  26.9539992 135.2034990  71.5889997  25.3269992 135.6314990  70.0669997
  25.7979992 136.5184990  69.5909997  24.2259992 135.7464990  70.1539997
  25.5409992 134.5954990  68.9429997  26.6219992 134.4074990  68.7659997
  25.0489992 134.9814990  68.0239997  24.7069992 133.2894990  69.1549997
  23.6239992 133.5204990  69.0729997  24.9629992 132.9454990  70.1799997
  24.9829992 132.2304990  68.0789997  24.8839992 131.1794990  68.4259997
  25.9909992 132.5154990  67.7089997  23.8909992 132.4524990  67.0359997
  23.9529992 133.5274990  66.7639997  22.9329992 132.2744990  67.5709997
  23.9339992 131.5304990  65.8559997  23.5029992 130.5184990  65.8659997
  24.3809992 131.7724990  64.6269997  24.2309992 131.0294990  63.8299997
  25.0359992 133.1074990  64.1059997  25.6009992 132.8994990  63.1719997
  25.7709992 133.4024990  64.8859997  24.1159992 134.3734990  63.9049997
  24.7689992 135.2664990  63.9969997  23.2929992 134.3494990  64.6509997
  23.4889992 134.5134990  62.4889997  22.6589992 135.2514990  62.4599997
  22.9879992 133.5614990  62.2109997  24.5199992 134.8144990  61.3509997
  25.3139992 134.0384990  61.3159997  24.9599992 135.8274990  61.4689997
  23.6799992 134.7054990  60.0189997  22.7029992 135.2144990  60.1599997
  23.3429992 133.6654990  59.8209997  24.3699992 135.3364990  58.8629997
  25.0139992 134.5544990  58.4059997  25.0199992 136.1694990  59.2049997
  23.4029992 136.0324990  57.8429997  23.0639992 136.9474990  58.3749997
  22.4529992 135.4984990  57.6269997  24.0109992 136.5854990  56.5529997
  24.7179992 137.3854990  56.8589997  23.1939992 136.9194990  55.8779997
  24.7199992 135.9314990  56.0019997   9.4859992 103.4914990  57.1589997
   9.2809992 103.7374990  56.0949997   8.8079992 102.6724990  57.4809997
  10.5289992 103.1784990  57.3769997   9.3649992 104.8044990  58.0089997
   9.4789992 104.4654990  59.0609997  10.2209992 105.4784990  57.7949997
   8.0769992 105.6494990  57.9359997   8.2989992 106.4084990  58.7159997
   7.9939992 106.1804990  56.9629997   6.7629992 104.8734990  58.0979997
   6.7319992 104.1064990  57.2949997   6.6109992 104.3824990  59.0829997
   5.5509992 105.8054990  58.0189997   5.6379992 106.2774990  57.0179997
   4.7099992 105.0804990  58.0459997   5.2919992 106.8324990  59.2049997
   6.1689992 107.5064990  59.3079997   4.4079992 107.4554990  58.9499997
   5.0109992 106.1634990  60.5409997   4.2159992 105.4464990  60.2429997
   5.8939992 105.5504990  60.8229997   4.6629992 107.0914990  61.6639997
   3.8549992 107.7894990  61.3599997   4.3639992 106.4064990  62.4859997
   5.9159992 107.9214990  62.1159997   6.7509992 107.2844990  62.4769997
   6.2439992 108.5714990  61.2769997   5.5579992 108.8414990  63.2929997
   4.6649992 109.4314990  62.9949997   5.1989992 108.1944990  64.1219997
   6.7299992 109.6604990  63.7859997   7.5259992 108.9784990  64.1549997
   7.1159992 110.3914990  63.0439997   6.2789992 110.4734990  64.9839997
   5.5979992 111.2814990  64.6419997   5.5919992 109.8594990  65.6049997
   7.4149992 111.2004990  65.7949997   8.0899992 111.5044990  64.9669997
   6.8969992 112.1474990  66.0589997   8.1269992 110.4034990  66.8839997
   7.2729992 110.1284990  67.5399997   8.6389992 109.4974990  66.4969997
   9.0069992 111.2234990  67.8659997   9.9039992 111.5014990  67.2719997
   8.4149992 112.0944990  68.2219997   9.4739992 110.2924990  68.9079997
   9.6049992 109.1094990  68.7359997   9.8039992 110.9674990  70.0759997
   9.9039992 110.1944990  71.2569997  10.4949992 109.2914990  70.9909997
  10.4659992 110.8184990  71.9839997   8.5569992 109.8504990  71.8859997
   7.9789992 110.7964990  71.9569997   8.7999992 109.2784990  73.2909997
   9.2149992 110.1104990  73.8989997   7.8369992 109.0404990  73.7909997
   9.5589992 108.0544990  73.1189997   9.7369992 107.1224990  74.3839997
   8.2539992 106.8244990  74.7679997   7.3769992 106.1364990  73.8069997
   7.3169992 106.7884990  72.9089997   7.7589992 105.1694990  73.4159997
   5.9769992 105.7674990  74.4589997   5.3119992 106.6094990  74.5839997
   5.4329992 105.0944990  73.8129997   6.0749992 105.0014990  75.7609997
   6.6709992 105.7304990  76.9419997   7.6339992 106.1344990  76.6669997
   6.0979992 106.6354990  77.0769997   6.7649992 105.0484990  77.7739997
   4.6359992 104.7894990  76.0699997   4.5809992 104.2284990  76.9909997
   4.1619992 105.7424990  76.2569997   4.1029992 104.1664990  75.3669997
   6.7539992 103.6434990  75.5679997   6.2929992 103.1074990  74.7519997
   6.5449992 103.0704990  76.4589997   7.7789992 103.8554990  75.3019997
  10.4329992 105.8804990  74.0649997  10.3229992 107.8494990  75.5279997
   7.8129992 108.8094990  71.2059997   6.5989992 109.0384990  70.7989997
   5.9249992 109.9754990  70.8889997   6.2629992 107.7164990  70.1119997
   6.7449992 106.8354990  70.5869997   6.6919992 107.7014990  69.0869997
   4.7119992 107.4984990  70.1509997   4.0709992 108.3124990  69.7499997
   4.3889992 107.2344990  71.1799997   4.4559992 106.2374990  69.2369997
   3.4349992 105.8584990  69.4569997   5.1379992 105.4774990  69.6769997
   4.6409992 106.4214990  67.7509997   4.7019992 107.5164990  67.5709997
   3.7039992 106.1644990  67.2119997   5.9059992 105.7704990  67.1859997
   5.8969992 104.6664990  67.3059997   6.7769992 106.1304990  67.7749997
   6.1129992 106.0674990  65.7089997   6.8679992 106.8814990  65.6739997
   5.1859992 106.3794990  65.1819997   6.7019992 104.8194990  65.0209997
   6.5789992 105.0944990  63.9509997   6.0069992 103.9824990  65.2469997
   8.1439992 104.3714990  65.2359997   8.2729992 103.8714990  66.2069997
   9.1789992 104.3824990  64.3799997  10.1559992 104.0014990  64.7109997
   9.2529992 104.8494990  62.9099997   8.2239992 104.8864990  62.4929997
   9.7849992 104.1454990  62.2349997   9.8309992 106.3144990  62.8109997
  10.8819992 106.4514990  63.1439997   9.3099992 107.0754990  63.4299997
   9.7189992 106.9114990  61.3469997   8.6709992 106.8054990  60.9949997
  10.2989992 106.3474990  60.5849997  10.2089992 108.3454990  61.2749997
  11.2759992 108.4244990  61.5749997   9.7139992 109.0244990  62.0019997
  10.0659992 108.9104990  59.8939997   9.8829992 108.1594990  59.0949997
  11.1059992 109.2354990  59.6779997   9.2199992 110.2144990  59.7869997
   9.7199992 110.9364990  60.4679997   8.2259992 110.1304990  60.2769997
   9.1779992 110.8174990  58.3799997  10.2249992 110.7604990  58.0109997
   8.8569992 111.8654990  58.5589997   8.1489992 110.2544990  57.4139997
   7.3009992 109.7904990  57.9619997   8.6849992 109.6464990  56.6529997
   7.5699992 111.0424990  56.8879997  17.5579992 129.5844990  58.8709997
  17.5269992 128.9924990  57.9309997  18.5899992 129.9954990  58.8509997
  16.9699992 130.5064990  58.6769997  17.1619992 128.8534990  60.1989997
  16.2789992 128.2094990  60.0009997  18.0429992 128.2274990  60.4589997
  16.8959992 129.7004990  61.4309997  15.9979992 130.3444990  61.3099997
  16.7549992 129.0834990  62.3439997  18.0699992 130.5944990  61.9469997
  18.9649992 129.9604990  62.1219997  18.3479992 131.3264990  61.1589997
  17.7839992 131.5614990  63.2019997  18.5269992 132.3834990  63.1179997
  16.8369992 132.0484990  62.8849997  17.9679992 131.0404990  64.6329997
  17.7869992 131.8204990  65.4029997  17.3429992 130.1314990  64.7659997
  19.4279992 130.5154990  64.9149997  19.7429992 129.7624990  64.1609997
  20.1229992 131.3704990  64.7779997  19.5619992 129.9624990  66.3089997
  19.7329992 130.8014990  67.0169997  18.6739992 129.4504990  66.7389997
  20.7249992 128.8674990  66.4039997  20.6059992 128.3644990  67.3869997
  20.5409992 128.1544990  65.5719997  22.1849992 129.3614990  66.2899997
  22.4669992 129.5024990  65.2239997  22.3659992 130.3194990  66.8209997
  23.1399992 128.2704990  66.9299997  23.1459992 127.4164990  66.2199997
  24.2109992 128.5574990  66.9969997  22.9949992 127.8974990  68.4069997
  22.0439992 127.3654990  68.6229997  23.7579992 127.1134990  68.5969997
  23.2069992 128.9454990  69.4279997  23.6069992 128.4334990  70.3289997
  24.0549992 129.5494990  69.0389997  22.0169992 129.8344990  69.7559997
  22.3119992 130.5644990  70.5409997  21.5349992 130.2884990  68.8639997
  20.8809992 128.9454990  70.3279997  20.5079992 128.1754990  69.6189997
  21.1929992 128.3344990  71.2019997  19.6509992 129.8684990  70.7029997
  18.6809992 130.1244990  69.9739997  19.8049992 130.1264990  71.9649997
  18.8609992 131.0034990  72.6589997  19.3959992 131.6604990  73.3779997
  18.2289992 131.5724990  71.9439997  17.8779992 130.2564990  73.5379997
  16.8829992 130.7484990  73.4819997  18.3739992 129.8654990  74.9679997
  18.7669992 130.7624990  75.4919997  17.4889992 129.5114990  75.5389997
  19.2479992 128.7244990  74.8569997  20.0699992 128.0944990  76.1399997
  20.9049992 126.9884990  75.4469997  20.9619992 126.8494990  74.0619997
  20.9459992 127.7784990  73.4529997  21.8539992 126.2534990  73.7719997
  19.7089992 126.0234990  73.5829997  18.7939992 126.5194990  73.8749997
  19.7019992 126.0484990  72.5039997  19.4829992 124.5994990  74.0559997
  20.5949992 123.6354990  73.6999997  20.1079992 122.7024990  73.4559997
  20.9799992 124.0544990  72.7819997  21.2949992 123.4474990  74.4999997
  19.2729992 124.5234990  75.5619997  20.1339992 124.8104990  76.1469997
  18.4509992 125.1544990  75.8689997  18.8809992 123.5624990  75.8609997
  18.2389992 124.1264990  73.3419997  17.7139992 123.3324990  73.8539997
  18.4269992 123.9904990  72.2869997  17.4469992 124.8574990  73.4099997
  20.9859992 129.1554990  76.6549997  19.0189992 127.5444990  77.0679997
  17.5259992 129.1014990  72.7819997  16.4409992 128.4704990  73.1939997
  15.6399992 128.7714990  74.0519997  16.2719992 127.3154990  72.1969997
  15.4109992 126.7224990  72.5739997  17.1979992 126.7064990  72.2719997
  15.9069992 127.9544990  70.8459997  16.8319992 128.3764990  70.3969997
  15.1879992 128.7844990  71.0149997  15.2319992 127.0354990  69.8749997
  15.1139992 127.5274990  68.8859997  14.1809992 126.8504990  70.1839997
  15.9359992 125.6504990  69.7359997  15.4059992 124.9564990  69.0479997
  16.1219992 125.0924990  70.6779997  17.3239992 125.9494990  69.0499997
  18.0589992 126.4484990  69.7159997  16.9399992 126.5614990  68.2059997
  17.9939992 124.7924990  68.4609997  17.4409992 123.9004990  68.0979997
  18.5929992 124.5094990  69.3539997  19.0939992 125.0264990  67.4169997
  19.4089992 123.9834990  67.1969997  19.9199992 125.6114990  67.8729997
  18.5489992 125.5234990  66.0809997  17.4829992 125.7844990  66.0159997
  19.1939992 125.4984990  64.9309997  18.6849992 125.8784990  64.0329997
  20.5649992 125.0644990  64.6409997  21.3429992 125.2664990  65.4089997
  20.8869992 125.6394990  63.7469997  20.8349992 123.6074990  64.2049997
  20.6139992 122.9064990  65.0379997  21.9399992 123.5144990  64.1269997
  20.0339992 123.1024990  62.9499997  19.8679992 123.9594990  62.2619997
  18.9889992 122.8354990  63.2189997  20.6809992 121.9084990  62.1999997
  20.7869992 121.0944990  62.9489997  21.7049992 122.1764990  61.8649997
  19.8559992 121.5174990  60.9349997  18.8199992 121.1884990  61.1639997
  20.4639992 120.6354990  60.6399997  19.9849992 122.6184990  59.8679997
  21.0349992 122.9514990  59.7269997  19.3789992 123.5234990  60.0919997
  19.7009992 122.1004990  58.4279997  20.3719992 121.2534990  58.1719997
  19.9149992 122.9944990  57.8039997  18.2829992 121.5924990  58.2099997
  18.0719992 121.4114990  57.1349997  17.4589992 122.2864990  58.4819997
  18.0379992 120.7224990  58.8559997 124.5459992  21.9114990  55.8799997
 124.7049992  22.8094990  55.2439997 123.4509992  21.7394990  55.9639997
 125.0169992  21.0464990  55.3679997 125.2449992  21.9784990  57.2769997
 124.5679992  22.5144990  57.9769997 125.2089992  20.9554990  57.7089997
 126.6329992  22.6504990  57.5639997 127.1719992  22.3134990  56.6529997
 126.4579992  23.7464990  57.6159997 127.2499992  22.2014990  58.9429997
 127.4979992  21.1204990  58.8919997 128.2159992  22.7424990  58.8479997
 126.4999992  22.4884990  60.2609997 126.2189992  23.5604990  60.1789997
 125.5419992  21.9274990  60.3219997 127.3469992  22.3454990  61.5119997
 128.0369992  23.2134990  61.5869997 126.6129992  22.4324990  62.3409997
 128.0769992  20.9934990  61.7079997 127.3239992  20.1794990  61.7869997
 128.6189992  20.7324990  60.7739997 129.0399992  20.9034990  62.9289997
 129.4939992  19.8904990  62.9749997 129.8649992  21.5604990  62.5799997
 128.4079992  21.3174990  64.2249997 127.8789992  22.2784990  64.0499997
 127.5869992  20.6304990  64.5219997 129.3889992  21.4134990  65.3769997
 129.8789992  20.4314990  65.5449997 130.1579992  22.1874990  65.1659997
 128.7519992  21.8544990  66.7199997 128.0039992  21.0594990  66.9269997
 129.4869992  21.7534990  67.5459997 128.1629992  23.1724990  66.6839997
 128.2889992  23.5994990  65.6669997 127.0739992  22.9804990  66.7879997
 128.6699992  24.1154990  67.8239997 128.5329992  23.6114990  68.8039997
 129.7749992  24.1494990  67.7179997 127.9339992  25.4054990  67.7719997
 127.8199992  25.8644990  66.7659997 126.9129992  25.0614990  68.0409997
 128.3869992  26.4034990  68.8889997 129.0709992  25.8364990  69.5569997
 128.9129992  27.2824990  68.4609997 127.2069992  27.0274990  69.6369997
 126.1349992  27.1654990  69.1529997 127.6139992  27.3104990  70.8969997
 126.4319992  27.7344990  71.7549997 126.6979992  28.5374990  72.4749997
 125.5339992  28.1184990  71.2249997 125.9039992  26.5454990  72.6559997
 125.2689992  26.9024990  73.4949997 127.0009992  25.7444990  73.3869997
 127.8609992  26.4464990  73.3359997 126.7589992  25.6874990  74.4699997
 127.3619992  24.4344990  72.9279997 128.7039992  23.6614990  73.3609997
 128.1479992  22.6644990  74.4339997 126.9869992  21.8154990  74.3339997
 126.6319992  21.6584990  73.2939997 127.1999992  20.8574990  74.8559997
 125.8109992  22.5044990  75.1009997 125.7159992  23.4664990  74.6199997
 124.8949992  22.0414990  74.7639997 125.8849992  22.5664990  76.6089997
 125.8959992  21.1724990  77.2179997 126.8689992  20.7344990  77.0509997
 125.5609992  21.2404990  78.2429997 125.1929992  20.5674990  76.6649997
 127.0749992  23.2794990  77.2309997 127.3169992  24.2024990  76.7259997
 126.9299992  23.3314990  78.2999997 127.9039992  22.6174990  77.0269997
 124.5729992  23.2334990  77.0149997 123.7989992  22.5054990  76.8219997
 124.3789992  24.1724990  76.5179997 124.5249992  23.3974990  78.0819997
 129.2279992  22.8844990  72.1739997 129.6089992  24.5984990  74.0669997
 125.1399992  25.5994990  71.8789997 124.3679992  24.6834990  72.4679997
 124.0699992  24.6234990  73.6619997 123.8759992  23.7274990  71.3959997
 123.8059992  24.2554990  70.4209997 122.9169992  23.2614990  71.7079997
 124.7439992  22.5154990  71.2629997 124.6539992  21.9834990  72.2339997
 125.8019992  22.8414990  71.1669997 124.3829992  21.6794990  70.0219997
 123.4169992  21.1564990  70.1859997 125.2539992  20.9904990  69.9939997
 124.2139992  22.4714990  68.6569997 124.9539992  23.2994990  68.6649997
 123.2079992  22.9414990  68.6249997 124.6059992  21.6104990  67.4369997
 124.1969992  20.5794990  67.5089997 125.6989992  21.4324990  67.5299997
 124.2869992  22.2154990  66.0419997 123.3329992  21.7144990  65.7719997
 125.0229992  21.8984990  65.2729997 124.1619992  23.7664990  65.9569997
 125.2229992  24.0274990  66.1609997 123.5799992  24.2694990  66.7589997
 123.7739992  24.2694990  64.5919997 123.0609992  23.5804990  64.1149997
 124.3329992  25.2254990  63.8579997 123.7739992  25.5694990  62.9759997
 125.4629992  26.1344990  64.1159997 126.0199992  25.9624990  65.0609997
 125.0449992  27.1574990  63.9969997 126.6179992  25.8394990  63.1079997
 126.3859992  26.3554990  62.1519997 126.7619992  24.7664990  62.8549997
 127.9729992  26.2554990  63.5969997 128.0889992  25.8814990  64.6369997
 127.9329992  27.3644990  63.6379997 129.1139992  25.6714990  62.7919997
 129.2709992  24.5954990  63.0199997 130.1259992  26.0124990  63.0979997
 129.0149992  25.9014990  61.2579997 128.2429992  25.1674990  60.9429997
 129.9989992  25.5804990  60.8549997 128.8099992  27.3814990  60.8409997
 129.3829992  27.9314990  61.6179997 127.7489992  27.7084990  60.8829997
 129.3369992  27.7474990  59.4629997 130.3759992  27.4544990  59.1989997
 129.3109992  28.8584990  59.4409997 128.4639992  27.1204990  58.3289997
 127.5189992  27.6974990  58.2459997 128.4209992  26.0314990  58.5449997
 129.1099992  27.2634990  57.4359997 123.4849992 131.1244990  55.8439997
 124.0959992 130.7454990  56.6919997 124.0319992 131.6894990  55.0589997
 122.9979992 130.2734990  55.3209997 122.4409992 132.1454990  56.4239997
 121.8899992 131.4384990  57.0799997 123.0669992 132.8384990  57.0259997
 121.5269992 132.8574990  55.3919997 122.3339992 133.3504990  54.8089997
 120.8919992 132.1584990  54.8069997 120.4779992 133.8704990  55.9409997
 120.8649992 134.5064990  56.7659997 120.0009992 134.6474990  55.3069997
 119.2359992 133.1074990  56.4179997 118.7149992 132.8124990  55.4819997
 119.6659992 132.1554990  56.7959997 118.3819992 133.7734990  57.5599997
 118.0009992 134.7634990  57.2319997 117.4589992 133.1564990  57.6029997
 119.1369992 133.6974990  58.9409997 118.8219992 132.7184990  59.3629997
 120.2319992 133.6934990  58.7539997 118.8009992 134.8994990  59.9109997
 119.4579992 134.7704990  60.7979997 118.9619992 135.8764990  59.4079997
 117.3019992 134.7414990  60.3769997 116.5589992 135.0274990  59.6019997
 117.0629992 133.7074990  60.7049997 116.9999992 135.6324990  61.5399997
 117.8859992 135.5514990  62.2049997 116.9959992 136.7114990  61.2709997
 115.6639992 135.2824990  62.2669997 115.1759992 136.2254990  62.5929997
 115.1409992 134.7654990  61.4339997 115.8139992 134.3484990  63.5349997
 116.1899992 134.9034990  64.4219997 114.7769992 133.9764990  63.6719997
 116.8129992 133.1454990  63.2819997 116.4569992 132.6414990  62.3579997
 117.8759992 133.4594990  63.2139997 116.8209992 132.0204990  64.3679997
 115.7709992 131.6604990  64.3409997 117.5799992 131.2254990  64.2059997
 117.1589992 132.6694990  65.7379997 118.1599992 133.0864990  65.4949997
 116.5169992 133.5264990  66.0329997 117.2469992 131.6994990  66.8769997
 116.5069992 130.7224990  67.0009997 118.1729992 132.0384990  67.8329997
 118.3279992 131.1194990  68.8599997 117.3259992 130.7294990  69.1429997
 118.9499992 130.2924990  68.4559997 118.9029992 131.5964990  70.1559997
 119.2559992 130.7004990  70.7099997 117.8349992 132.3684990  70.9219997
 117.4939992 133.2414990  70.3259997 116.8749992 131.8154990  71.0059997
 118.2819992 132.8014990  72.2049997 118.1869992 131.8474990  73.4689997
 118.9869992 132.7044990  74.5629997 120.3559992 132.7734990  74.4669997
 120.7519992 132.8024990  73.4299997 120.5689992 133.7764990  74.8959997
 121.2299992 131.6614990  75.1169997 121.1289992 130.7484990  74.5479997
 122.2889992 131.8644990  75.0569997 121.0299992 131.1664990  76.5049997
 120.8509992 132.3754990  77.4939997 120.6529992 132.0024990  78.4879997
 121.7919992 132.9004990  77.5649997 120.0779992 133.0194990  77.1029997
 119.7179992 130.3794990  76.6469997 118.9549992 131.0964990  76.3839997
 119.7779992 129.6234990  75.8779997 119.6799992 130.0124990  77.6619997
 122.0689992 130.2124990  76.9669997 123.0209992 130.7084990  77.0879997
 122.1259992 129.4894990  76.1669997 121.8569992 129.8644990  77.9679997
 116.7769992 131.7834990  74.0059997 118.8189992 130.5724990  73.0319997
 120.0719992 132.4254990  69.8829997 121.1989992 131.7944990  69.5909997
 121.3649992 130.6384990  69.6849997 122.1669992 132.7384990  69.0019997
 123.1599992 132.7844990  69.4989997 121.7679992 133.7594990  68.8189997
 122.6109992 132.1564990  67.5739997 122.7409992 131.0624990  67.4299997
 123.5289992 132.7254990  67.3149997 121.6259992 132.4584990  66.4349997
 121.4319992 133.5514990  66.3809997 120.6689992 131.8984990  66.5019997
 122.2339992 132.0394990  65.1149997 122.3129992 130.9394990  64.9799997
 123.2659992 132.4504990  65.1269997 121.3779992 132.5814990  63.9109997
 122.0049992 132.8264990  63.0269997 120.7979992 133.5194990  64.0459997
 120.2389992 131.6644990  63.4579997 119.3939992 132.1634990  62.9349997
 119.7619992 131.3914990  64.4229997 120.6419992 130.3254990  62.8489997
 119.6529992 129.8314990  62.7409997 121.3219992 129.7454990  63.5089997
 121.3209992 130.6564990  61.5489997 122.2669992 131.2034990  61.6749997
 120.8779992 130.3954990  60.3159997 121.5949992 130.5474990  59.4949997
 119.5979992 129.6994990  60.0549997 118.7749992 130.2284990  60.5819997
 119.4819992 128.6294990  60.3299997 119.1739992 129.9594990  58.6279997
 119.6819992 130.8434990  58.1859997 118.1359992 130.3534990  58.5869997
 119.4129992 128.8834990  57.5249997 120.5199992 128.8654990  57.4309997
 118.8369992 129.1954990  56.6269997 119.0329992 127.4154990  57.7939997
 119.7169992 126.9994990  58.5639997 119.1289992 126.8364990  56.8509997
 117.5499992 127.2424990  58.2259997 117.2489992 127.7624990  59.1609997
 117.3029992 126.1984990  58.5149997 116.5489992 127.8894990  57.1799997
 116.6109992 128.9984990  57.2149997 115.5149992 127.5894990  57.4549997
 116.8749992 127.4074990  55.7549997 117.2049992 126.3584990  55.9129997
 117.7499992 127.7824990  55.1819997 115.6709992 127.4124990  54.7909997
 114.7499992 127.0064990  55.2609997 115.9409992 126.7774990  53.9199997
 115.3799992 128.4214990  54.4299997 138.8679992 107.6574990  55.5609997
 139.0449992 108.1504990  54.5809997 137.9359992 107.0614990  55.4529997
 139.6129992 106.9334990  55.9559997 138.6229992 108.6654990  56.5889997
 139.3839992 109.4744990  56.5599997 137.6169992 109.1164990  56.4559997
 138.3439992 108.0634990  58.0629997 137.6109992 107.2434990  57.9079997
 139.2079992 107.5814990  58.5699997 137.6779992 109.1294990  58.9399997
 138.3019992 110.0444990  59.0269997 136.6479992 109.3904990  58.6189997
 137.6729992 108.6644990  60.4059997 136.9829992 107.7984990  60.4989997
 138.6429992 108.3084990  60.8139997 136.9979992 109.6274990  61.4159997
 137.8489992 110.2934990  61.6749997 136.2319992 110.3614990  61.0869997
 136.3959992 108.9464990  62.7009997 135.3439992 108.6844990  62.4569997
 136.8619992 107.9754990  62.9709997 136.3889992 109.8674990  63.9079997
 136.6029992 110.9134990  63.5999997 135.3429992 109.9594990  64.2709997
 137.2099992 109.5464990  65.1479997 137.0609992 110.3244990  65.9269997
 136.8769992 108.5394990  65.4799997 138.6799992 109.4234990  64.8189997
 138.8869992 108.5504990  64.1629997 138.8999992 110.2954990  64.1679997
 139.6259992 109.4584990  65.9379997 140.6819992 109.3914990  65.5999997
 139.4539992 110.4204990  66.4669997 139.3969992 108.2764990  66.9259997
 138.3559992 108.1324990  67.2879997 139.7109992 107.3074990  66.4819997
 140.1499992 108.3594990  68.2419997 139.7599992 109.1244990  68.9469997
 140.2509992 107.4014990  68.7959997 141.6909992 108.6554990  67.9399997
 142.0279992 107.7994990  67.3169997 141.8049992 109.5924990  67.3529997
 142.5969992 108.6444990  69.2519997 142.0039992 107.9964990  69.9329997
 143.5999992 108.1774990  69.1509997 142.7479992 110.0824990  69.6569997
 143.2809992 110.8544990  68.8489997 142.3309992 110.2974990  70.8689997
 142.2569992 111.6454990  71.3709997 142.8619992 111.7424990  72.2969997
 142.7299992 112.4174990  70.7259997 140.7679992 112.0804990  71.5789997
 140.7749992 113.1304990  71.9399997 140.0219992 111.2664990  72.6099997
 139.9599992 110.2274990  72.2219997 140.4359992 111.3194990  73.6399997
 138.6279992 111.7724990  72.6789997 137.9149992 111.5734990  74.1439997
 138.1949992 110.1204990  74.5759997 138.1549992 109.8814990  75.9739997
 138.9099992 110.5474990  76.4419997 137.1269992 110.0334990  76.3659997
 138.4289992 108.3854990  76.2339997 138.4709992 108.2694990  77.3069997
 137.6099992 107.7524990  75.9269997 139.6859992 107.7644990  75.6369997
 139.4229992 107.3974990  74.1629997 140.3019992 106.9814990  73.6919997
 138.6079992 106.6924990  74.1059997 139.0749992 108.2694990  73.6299997
 140.7689992 108.7774990  75.7659997 140.6739992 109.5304990  74.9969997
 140.5629992 109.1924990  76.7419997 141.7019992 108.2534990  75.6229997
 139.9389992 106.4494990  76.3179997 140.4149992 106.3914990  77.2859997
 140.6919992 105.9404990  75.7339997 139.0179992 105.8864990  76.2919997
 138.6429992 112.4594990  75.0729997 136.4609992 111.8324990  73.9089997
 139.9469992 111.9824990  70.3699997 140.0269992 112.8294990  69.4859997
 140.8039992 113.7514990  69.3509997 138.9249992 112.5164990  68.4549997
 137.9489992 112.4134990  68.9739997 139.0619992 111.5654990  67.8979997
 139.0409992 113.6414990  67.3789997 140.0249992 113.5584990  66.8709997
 139.1699992 114.6034990  67.9199997 137.8369992 113.7114990  66.4579997
 136.8989992 113.9674990  66.9949997 137.7039992 112.6894990  66.0439997
 137.9079992 114.6484990  65.2719997 137.9059992 115.6604990  65.7299997
 137.0599992 114.3494990  64.6189997 139.1779992 114.5024990  64.3949997
 140.1029992 114.7694990  64.9499997 139.2309992 115.1904990  63.5239997
 139.3629992 113.1424990  63.6899997 138.3429992 112.8094990  63.3999997
 139.6739992 112.4004990  64.4559997 140.3129992 113.2514990  62.5409997
 141.3309992 113.6054990  62.8099997 139.9789992 114.0664990  61.8649997
 140.2569992 111.8534990  61.8079997 139.5009992 111.7234990  61.0189997
 141.0699992 110.7564990  62.0279997 140.9509992 109.8664990  61.3929997
 142.1599992 110.5814990  62.9709997 142.3619992 109.5304990  63.2709997
 142.0209992 111.2374990  63.8569997 143.4629992 111.2094990  62.4619997
 144.3069992 111.3364990  63.1729997 143.2269992 112.2564990  62.1749997
 143.9509992 110.4184990  61.1629997 143.5909992 109.3684990  61.2269997
 145.0479992 110.5894990  61.2089997 143.4579992 111.1504990  59.8809997
 143.7069992 112.2264990  60.0029997 142.3749992 110.9324990  59.7659997
 144.0339992 110.6844990  58.5719997 145.1449992 110.6634990  58.5539997
 143.8699992 111.4434990  57.7769997 143.4319992 109.3924990  58.1729997
 142.3229992 109.4124990  58.2419997 143.7659992 108.5254990  58.7819997
 143.6879992 108.9234990  56.7279997 143.3559992 107.8754990  56.5659997
 144.7559992 108.8904990  56.4229997 142.9069992 109.7584990  55.6449997
 143.5269992 110.6734990  55.5299997 141.8779992 109.9284990  56.0279997
 142.9439992 109.3714990  54.6039997 129.3079992 124.6224990  56.2189997
 129.3859992 125.1804990  57.1759997 128.8369992 125.2424990  55.4259997
 130.3739992 124.3904990  56.0049997 128.7389992 123.1834990  56.2839997
 127.6879992 123.3164990  56.6189997 128.6989992 122.8484990  55.2259997
 129.5079992 122.1334990  57.1239997 129.1719992 121.0864990  56.9619997
 130.5569992 122.1374990  56.7589997 129.4599992 122.4434990  58.5829997
 130.1339992 123.2904990  58.8319997 128.4399992 122.7644990  58.8839997
 129.6559992 121.2544990  59.5549997 129.3049992 121.5614990  60.5639997
 129.1049992 120.3724990  59.1649997 131.0779992 120.9004990  59.6889997
 131.4389992 120.8624990  58.6389997 131.6049992 121.7404990  60.1909997
 131.4739992 119.5694990  60.2829997 131.1269992 118.7674990  59.5959997
 132.5839992 119.5304990  60.2559997 131.1339992 119.3534990  61.7699997
 130.0429992 119.1704990  61.8749997 131.5819992 118.3954990  62.1109997
 131.5869992 120.4374990  62.8239997 132.6599992 120.6974990  62.6989997
 131.0399992 121.3834990  62.6259997 131.3979992 119.8394990  64.2689997
 131.7319992 118.7884990  64.4049997 132.1899992 120.3504990  64.8559997
 130.0539992 120.2964990  64.8859997 130.1409992 121.3974990  64.7709997
 129.2069992 119.8274990  64.3419997 129.8699992 119.7594990  66.3109997
 129.7499992 118.6554990  66.2649997 130.8429992 120.0654990  66.7509997
 128.7559992 120.5184990  67.1509997 127.7739992 120.3574990  66.6589997
 128.7489992 119.9694990  68.1169997 129.0349992 122.0574990  67.2429997
 129.6709992 122.4084990  66.4029997 128.1079992 122.6704990  67.2749997
 129.8889992 122.3144990  68.4929997 130.7719992 121.6424990  68.4399997
 130.2679992 123.3364990  68.2779997 129.2079992 122.3044990  69.8589997
 129.7659992 122.6514990  70.8729997 127.9679992 121.7824990  69.7539997
 127.3629992 121.2514990  70.9389997 127.4919992 121.6634990  71.9629997
 126.2829992 121.4234990  70.7419997 127.5659992 119.7374990  71.1049997
 127.4149992 119.1754990  70.1589997 126.7689992 119.0984990  72.2279997
 125.7419992 119.5004990  72.3669997 126.6199992 118.0204990  72.0029997
 127.4419992 119.3954990  73.4389997 127.2909992 118.3824990  74.6639997
 128.4639992 119.0304990  75.6619997 129.7669992 119.1344990  75.0259997
 130.5179992 118.7764990  75.7629997 129.8839992 118.4614990  74.1499997
 130.2179992 120.5574990  74.4839997 131.2949992 120.5054990  74.5469997
 129.9689992 120.6924990  73.4419997 129.8979992 121.8624990  75.2559997
 130.3809992 123.0404990  74.5029997 129.7449992 123.2184990  73.6479997
 130.4399992 123.8224990  75.2459997 131.4009992 122.8674990  74.1939997
 128.4159992 122.0194990  75.5069997 128.1069992 121.3844990  76.3239997
 128.2629992 123.0304990  75.8559997 127.8339992 121.7534990  74.6369997
 130.6259992 121.8844990  76.6129997 131.6259992 121.4904990  76.5099997
 130.0629992 121.3814990  77.3859997 130.7629992 122.8874990  76.9889997
 125.9449992 118.5994990  75.2009997 127.7079992 117.0664990  74.1159997
 129.0499992 119.5504990  71.3229997 129.5259992 118.2344990  71.2409997
 128.8629992 117.2244990  71.3079997 131.0429992 118.4044990  71.2579997
 131.4489992 118.4134990  72.2919997 131.4149992 119.3434990  70.7959997
 131.6059992 117.1824990  70.5299997 131.3849992 116.2514990  71.0939997
 132.6849992 117.3574990  70.7249997 131.3839992 117.1484990  69.0339997
 132.2279992 116.5214990  68.6759997 131.5689992 118.1804990  68.6679997
 130.0659992 116.5394990  68.5819997 129.4679992 117.4744990  68.6239997
 129.6839992 115.8364990  69.3519997 130.1619992 116.0534990  67.2119997
 130.7959992 115.1414990  67.2549997 130.6889992 116.7734990  66.5489997
 128.8159992 115.5654990  66.6689997 128.0439992 116.3324990  66.8929997
 128.4469992 114.6204990  67.1229997 128.8909992 115.3684990  65.1749997
 129.8779992 114.8654990  65.0919997 128.9129992 116.3984990  64.7599997
 127.7549992 114.6034990  64.5269997 127.3989992 113.7204990  65.0779997
 127.1379992 114.9634990  63.3989997 126.2619992 114.3754990  63.0879997
 127.4119992 116.1194990  62.5459997 127.1499992 115.8534990  61.4999997
 128.4699992 116.4604990  62.5519997 126.5599992 117.2384990  63.0459997
 126.8849992 117.6084990  64.0419997 125.4879992 116.9644990  63.1489997
 126.5979992 118.4254990  62.0639997 127.6529992 118.7264990  61.8879997
 126.2479992 119.3434990  62.5839997 125.7439992 118.2994990  60.7769997
 124.6509992 118.3944990  60.9519997 125.8499992 117.3404990  60.2269997
 126.0989992 119.3354990  59.6419997 127.1529992 119.0484990  59.4389997
 126.0679992 120.4114990  59.9179997 125.2679992 119.0334990  58.4259997
 124.2449992 118.7924990  58.7859997 125.5379992 118.0794990  57.9249997
 125.2179992 120.1774990  57.4299997 124.9779992 121.0234990  58.1089997
 124.4569992 120.1254990  56.6219997 126.5429992 120.4134990  56.7859997
 126.5499992 121.3474990  56.1849997 126.8639992 119.6104990  56.0889997
 127.2059992 120.8584990  57.5589997   6.6999992   9.5604990  56.0409997
   6.4159992   8.5894990  55.5819997   7.7409992   9.5534990  56.4279997
   6.7809992  10.3644990  55.2779997   5.8109992   9.9204990  57.1729997
   5.7339992   8.9334990  57.6779997   6.1709992  10.7154990  57.8589997
   4.3379992  10.3344990  56.7809997   4.5129992  11.3594990  56.3909997
   4.1479992   9.5954990  55.9739997   3.3689992  10.2984990  57.9149997
   2.3689992  10.4944990  57.4709997   3.3799992   9.2634990  58.3179997
   3.5469992  11.1974990  59.0859997   4.5859992  11.1854990  59.4779997
   3.5099992  12.2574990  58.7559997   2.5809992  11.0234990  60.2879997
   1.5959992  10.7914990  59.8299997   2.8519992  10.1564990  60.9279997
   2.4439992  12.2954990  61.1629997   3.4509992  12.7614990  61.2109997
   1.7639992  12.9634990  60.5929997   1.7969992  12.0844990  62.5699997
   0.7619992  11.6974990  62.4559997   2.3799992  11.3454990  63.1599997
   1.7539992  13.3754990  63.3049997   2.3959992  14.1454990  62.8269997
   0.7189992  13.7784990  63.2949997   2.2159992  13.2394990  64.8069997
   3.2529992  12.8494990  64.7309997   2.2359992  14.2684990  65.2259997
   1.2349992  12.4644990  65.6629997   0.2839992  13.0344990  65.5929997
   1.0239992  11.4604990  65.2349997   1.6869992  12.2554990  67.1879997
   1.8729992  13.2934990  67.5379997   0.8109992  11.9294990  67.7879997
   3.0199992  11.4044990  67.3689997   2.7139992  10.4344990  66.9209997
   3.8039992  11.8124990  66.6949997   3.4909992  11.4364990  68.7729997
   3.8839992  12.4374990  69.0519997   2.5859992  11.2434990  69.3869997
   4.5219992  10.3194990  69.1729997   4.0909992   9.8764990  70.0969997
   4.4309992   9.5284990  68.3989997   5.8879992  10.8204990  69.2189997
   6.8009992  10.5034990  68.4369997   5.9419992  11.5824990  70.2889997
   7.1819992  12.2704990  70.6539997   8.0289992  11.5644990  70.7879997
   7.4979992  12.8594990  69.7669997   6.9339992  13.3064990  71.7339997
   7.8489992  13.8904990  71.9719997   6.6119992  12.7204990  73.1429997
   7.4349992  11.9964990  73.3279997   6.6169992  13.2864990  74.0979997
   5.4649992  11.8994990  72.9789997   4.5089992  11.6234990  74.2769997
   4.3339992  13.0534990  74.8679997   3.8039992  14.1884990  74.1549997
   4.6469992  14.5664990  73.5369997   2.9749992  13.8694990  73.4879997
   3.2929992  15.2724990  75.0549997   4.0649992  15.4744990  75.7829997
   3.0719992  16.1674990  74.4929997   2.0009992  14.9314990  75.8829997
   0.8069992  14.8954990  74.9419997   0.5639992  15.8424990  74.4839997
   1.0189992  14.0604990  74.2899997  -0.0420008  14.7474990  75.5929997
   2.0959992  13.5274990  76.5269997   1.0939992  13.1764990  76.7259997
   2.6119992  12.7924990  75.9269997   2.5859992  13.7204990  77.4699997
   1.7769992  15.9894990  76.9629997   0.8099992  15.8834990  77.4319997
   2.0739992  16.9874990  76.6749997   2.5019992  15.7694990  77.7319997
   3.2439992  11.0494990  73.6389997   5.2719992  10.8414990  75.1839997
   5.8819992  14.1394990  71.3359997   6.2589992  15.1954990  70.6969997
   7.3409992  15.5244990  70.2739997   5.0509992  16.1304990  70.5229997
   5.0389992  16.8184990  71.3959997   4.1559992  15.4854990  70.3979997
   5.2229992  17.0554990  69.2719997   6.2959992  17.0254990  68.9839997
   5.1279992  18.0634990  69.7299997   4.2549992  16.6854990  68.1349997
   4.1799992  17.5414990  67.4299997   3.2959992  16.4464990  68.6439997
   4.8679992  15.5454990  67.4269997   4.1279992  15.1214990  66.7159997
   5.1249992  14.7384990  68.1449997   6.0229992  15.9824990  66.4149997
   6.9829992  16.0614990  66.9689997   5.9349992  17.0524990  66.1309997
   6.1159992  15.1714990  65.1559997   5.2149992  15.3284990  64.5259997
   6.1609992  14.0734990  65.3189997   7.3209992  15.7014990  64.3389997
   8.1599992  15.3344990  64.9669997   7.4019992  16.8074990  64.4089997
   7.4679992  15.0614990  62.9309997   8.4369992  14.5424990  62.8949997
   6.6299992  14.9864990  61.8689997   7.0369992  14.4904990  60.9759997
   5.2189992  15.5374990  61.5779997   4.9099992  16.3904990  62.2199997
   4.5759992  14.6784990  61.8649997   4.8269992  15.7414990  60.1149997
   3.7449992  15.9864990  60.0619997   4.9249992  14.7524990  59.6169997
   5.7179992  16.8424990  59.4109997   6.0749992  16.2294990  58.5559997
   6.5309992  17.1554990  60.0999997   4.9659992  17.9914990  58.8679997
   4.6599992  18.6654990  59.6969997   4.1119992  17.6294990  58.2569997
   5.9109992  18.7674990  57.9119997   6.9169992  18.8574990  58.3759997
   5.5849992  19.8274990  57.8509997   5.8589992  18.1754990  56.4579997
   4.9789992  18.7584990  56.1099997   5.7599992  17.0694990  56.4709997
   7.0499992  18.4824990  55.4939997   7.1499992  19.5884990  55.4809997
   6.7669992  18.2474990  54.4459997   8.4009992  17.8464990  55.8719997
   8.2789992  16.7474990  55.9859997   8.9429992  18.2834990  56.7379997
   9.1209992  18.0384990  55.0469997  15.1269992 119.9894990  59.0309997
  14.3179992 119.6004990  58.3779997  15.6929992 119.0994990  59.3809997
  15.7169992 120.6714990  58.3819997  14.5109992 120.7234990  60.1789997
  15.3119992 121.1074990  60.8469997  13.9189992 121.5524990  59.7359997
  13.5959992 119.8774990  61.1009997  12.6069992 119.8234990  60.5989997
  13.9529992 118.8364990  61.2519997  13.4259992 120.5764990  62.4829997
  13.2329992 119.7514990  63.2009997  14.4189992 120.9364990  62.8269997
  12.3629992 121.6894990  62.4859997  12.5909992 122.6404990  61.9589997
  11.4989992 121.2214990  61.9679997  11.7869992 121.9734990  63.8279997
  10.8599992 122.5854990  63.7979997  11.4349992 121.0034990  64.2399997
  12.6909992 122.7054990  64.8989997  13.6479992 122.1404990  64.8749997
  12.9649992 123.7584990  64.6719997  12.1279992 122.8484990  66.3609997
  11.6919992 123.8244990  66.6609997  11.1649992 122.2944990  66.3749997
  13.1469992 122.5374990  67.5149997  13.1359992 121.4434990  67.7049997
  14.1719992 122.7084990  67.1209997  12.8009992 123.2184990  68.8929997
  11.7609992 123.1274990  69.2719997  13.4269992 122.7954990  69.7079997
  13.1469992 124.7514990  68.8789997  14.2229992 124.7144990  68.6059997
  12.6169992 125.1814990  68.0019997  12.9409992 125.4964990  70.2519997
  12.9079992 124.7124990  71.0379997  13.8439992 126.1014990  70.4819997
  11.7139992 126.3004990  70.1869997  11.8459992 127.1664990  70.8709997
  11.6599992 126.7424990  69.1689997  10.3939992 125.6914990  70.6069997
   9.5419992 126.2614990  70.1779997  10.3769992 124.6474990  70.2279997
  10.3289992 125.6674990  72.1919997  11.2569992 125.2994990  72.6779997
  10.2499992 126.7214990  72.5349997   9.3279992 124.6504990  72.6559997
   8.5619992 124.7794990  73.5999997   9.5329992 123.5224990  72.0099997
   8.6999992 122.4044990  72.3789997   8.1009992 122.5074990  73.3089997
   7.9329992 122.2244990  71.5959997   9.5759992 121.1484990  72.4339997
   8.9359992 120.3554990  72.8779997  10.7529992 121.4744990  73.3759997
  10.3309992 122.0464990  74.2309997  11.0309992 120.4634990  73.7419997
  11.7809992 122.1804990  72.5959997  12.9589992 122.7064990  73.4529997
  13.1729992 121.6704990  74.6089997  13.6619992 120.3574990  74.2559997
  13.4459992 119.9554990  73.2429997  14.7619992 120.4474990  74.3849997
  13.0379992 119.2364990  75.0949997  11.9829992 119.2624990  74.8629997
  13.4879992 118.2864990  74.8489997  13.1729992 119.3054990  76.5709997
  14.6079992 119.5884990  76.8329997  14.7189992 120.5964990  76.4619997
  14.7969992 119.6034990  77.8959997  15.2829992 118.9324990  76.3049997
  12.3929992 120.3664990  77.3039997  12.5289992 121.3024990  76.7839997
  11.3469992 120.0994990  77.2699997  12.8209992 120.4444990  78.2929997
  12.7409992 117.9544990  77.1179997  13.3499992 117.1964990  76.6469997
  11.7389992 117.7244990  76.7879997  12.9189992 118.0194990  78.1809997
  14.1819992 122.6284990  72.5669997  12.6019992 123.9744990  74.0689997
   9.8309992 120.8834990  71.0669997  10.4009992 119.7004990  70.8709997
  10.4529992 118.8244990  71.6679997  10.9429992 119.6044990  69.4359997
  11.8909992 119.0284990  69.3769997  11.2459992 120.6354990  69.1539997
   9.8449992 119.2144990  68.3829997   9.0019992 119.9254990  68.5199997
   9.5279992 118.1554990  68.4969997  10.2889992 119.4854990  66.9049997
  11.1729992 120.1534990  66.8369997   9.4889992 120.0344990  66.3639997
  10.5559992 118.1354990  66.2029997   9.9349992 117.3254990  66.6429997
  11.6099992 117.8874990  66.4469997  10.5269992 118.2624990  64.6619997
  11.3149992 118.9904990  64.3739997   9.5269992 118.5644990  64.2839997
  10.9379992 116.8414990  64.0809997  10.3309992 116.0784990  64.6139997
  11.9909992 116.6684990  64.3909997  10.6329992 116.5694990  62.5729997
   9.5409992 116.6624990  62.3869997  10.8659992 115.5024990  62.3679997
  11.2569992 117.4614990  61.4849997  11.0179992 118.5354990  61.4929997
  11.9329992 116.9154990  60.4729997  12.4899992 117.6394990  59.8609997
  12.2239992 115.4704990  60.0529997  12.1879992 114.7054990  60.8579997
  13.2239992 115.4434990  59.5699997  11.1199992 114.9224990  59.0529997
  10.1499992 114.8794990  59.5939997  11.2889992 113.8544990  58.7979997
  11.1729992 115.7544990  57.7649997  10.7589992 116.7624990  57.9829997
  10.3739992 115.2874990  57.1519997  12.5189992 115.8884990  57.0949997
  12.8869992 114.9044990  56.7319997  13.3079992 116.2424990  57.7919997
  12.5229992 116.8754990  55.9369997  12.1969992 117.8954990  56.2349997
  11.6499992 116.5594990  55.3259997  13.8479992 116.8824990  55.1399997
  13.5459992 116.9634990  54.0739997  14.5109992 115.9934990  55.2209997
  14.7669992 118.1574990  55.4169997  15.0889992 118.1104990  56.4789997
  14.1009992 119.0444990  55.4859997  16.0119992 118.6294990  54.5279997
  15.6539992 118.8324990  53.4959997  16.7859992 117.8364990  54.5969997
  16.5089992 119.5664990  54.8599997 136.0259992  25.8654990  56.7089997
 135.7069992  24.8694990  56.3329997 137.0439992  26.1164990  56.3429997
 135.2379992  26.4454990  56.1829997 135.8479992  25.9594990  58.2399997
 134.8439992  25.5324990  58.4499997 136.5679992  25.2714990  58.7319997
 135.8729992  27.3764990  58.8479997 136.8839992  27.7394990  58.5659997
 134.9449992  27.8584990  58.4719997 135.7969992  27.3534990  60.3989997
 135.6039992  28.3874990  60.7569997 134.8719992  26.7794990  60.6199997
 137.0979992  26.8484990  61.0619997 137.4269992  25.9884990  60.4399997
 137.9049992  27.5784990  60.8379997 137.0429992  26.6454990  62.5499997
 137.9929992  26.2094990  62.9259997 136.9779992  27.6434990  63.0329997
 135.8969992  25.8534990  63.2239997 134.9189992  26.2644990  62.8929997
 136.0499992  24.8074990  62.8819997 136.0239992  25.8734990  64.7439997
 135.1349992  25.4634990  65.2689997 136.8969992  25.2214990  64.9599997
 136.2519992  27.2154990  65.4009997 137.3139992  27.4594990  65.1859997
 135.5899992  28.0014990  64.9779997 136.1199992  27.3634990  66.9089997
 136.2719992  28.3704990  67.3529997 135.0589992  27.0664990  67.0549997
 137.1649992  26.3814990  67.6779997 137.2649992  25.4204990  67.1289997
 138.1539992  26.8774990  67.5869997 136.6569992  26.2574990  69.1569997
 136.6309992  27.1694990  69.7909997 135.5739992  26.0184990  69.1009997
 137.2549992  24.9874990  69.8409997 136.9349992  24.0654990  69.3099997
 138.3419992  25.0694990  69.6259997 137.0049992  24.9034990  71.3709997
 136.3029992  25.7594990  71.4579997 136.4799992  23.9444990  71.5719997
 138.2869992  25.0914990  72.1839997 138.1059992  25.0404990  73.2789997
 139.0369992  24.2874990  72.0259997 138.8509992  26.4744990  71.8209997
 139.9719992  26.7374990  71.5669997 138.0119992  27.4774990  72.1909997
 138.4479992  28.8424990  72.1089997 139.2259992  28.9284990  72.8979997
 138.7659992  29.0784990  71.0709997 137.2719992  29.7544990  72.3919997
 137.6509992  30.7864990  72.2349997 136.8329992  29.7254990  73.9649997
 137.7859992  29.7444990  74.5359997 136.2629992  30.6554990  74.1729997
 136.0279992  28.6004990  74.3199997 135.7989992  28.5394990  75.8719997
 134.9709992  27.1564990  75.9469997 135.1959992  26.1324990  75.0019997
 136.2249992  26.2004990  74.5889997 135.2379992  25.1624990  75.5419997
 134.1419992  26.1284990  73.8919997 134.2379992  27.0874990  73.4049997
 134.4479992  25.4054990  73.1499997 132.6259992  25.9294990  74.1269997
 131.9729992  27.0324990  74.9709997 132.3169992  28.0094990  74.6639997
 130.9109992  27.0344990  74.7749997 132.1969992  26.8404990  76.0099997
 132.0009992  25.9574990  72.7649997 132.2889992  25.1404990  72.1199997
 130.9249992  26.0194990  72.8309997 132.2769992  26.7894990  72.1339997
 132.3529992  24.5744990  74.7629997 132.7169992  23.8534990  74.0459997
 131.3029992  24.3234990  74.7739997 132.8499992  24.4984990  75.7189997
 137.1009992  28.3934990  76.5259997 134.9049992  29.6784990  76.2859997
 136.3169992  29.4604990  71.4669997 135.2969992  30.3444990  71.3249997
 135.2379992  31.4394990  71.8639997 134.1469992  29.8144990  70.4949997
 133.9869992  28.7154990  70.5369997 134.4039992  30.0764990  69.4469997
 132.8229992  30.3994990  70.9579997 132.7979992  31.5004990  71.1009997
 132.5889992  29.8934990  71.9199997 131.6109992  30.1804990  70.0409997
 130.6949992  30.5684990  70.5349997 131.4209992  29.0854990  70.0409997
 131.5549992  30.7634990  68.6209997 131.4109992  31.8594990  68.7309997
 130.5009992  30.5564990  68.3389997 132.5339992  30.2724990  67.5679997
 132.7429992  29.1814990  67.5859997 133.4979992  30.7964990  67.7399997
 132.1399992  30.5834990  66.1409997 132.0769992  31.6784990  65.9669997
 131.1179992  30.1624990  66.0319997 133.1369992  30.0144990  65.0619997
 132.6449992  30.0354990  64.0649997 133.2829992  28.9154990  65.1409997
 134.4309992  30.8354990  64.9699997 134.8329992  31.2774990  65.8939997
 135.0739992  31.2144990  63.8679997 136.0009992  31.8024990  63.9419997
 134.5909992  30.8844990  62.4439997 133.5799992  30.4274990  62.5109997
 135.2229992  30.1404990  61.9139997 134.2689992  31.9744990  61.3679997
 135.1989992  32.4524990  60.9909997 133.6669992  32.6774990  61.9829997
 133.3259992  31.6604990  60.2129997 132.2729992  31.3684990  60.4089997
 133.8419992  30.8194990  59.7019997 133.3019992  32.8394990  59.1879997
 133.5269992  33.7724990  59.7479997 132.2649992  32.9124990  58.7939997
 134.3319992  32.4964990  58.0259997 135.3819992  32.2644990  58.3059997
 134.4349992  33.5494990  57.6849997 133.7559992  31.5604990  56.9549997
 132.7849992  31.9764990  56.6099997 133.5229992  30.5794990  57.4219997
 134.7889992  31.3904990  55.8309997 135.6339992  30.7454990  56.1549997
 135.0789992  32.4444990  55.6329997 134.3319992  30.6644990  54.5209997
 133.4649992  31.1604990  54.0339997 134.0509992  29.6084990  54.7199997
 135.2549992  30.5054990  53.9229997 110.0009992   7.5264990  56.1129997
 109.6579992   6.8864990  55.2719997 110.7129992   8.2764990  55.7069997
 109.0729992   7.9664990  56.5369997 110.6629992   6.5244990  57.1549997
 111.4409992   6.0594990  56.5129997 111.0999992   7.0914990  58.0039997
 109.6779992   5.4134990  57.6219997 108.8349992   5.8984990  58.1589997
 109.3549992   4.8024990  56.7519997 110.3259992   4.4694990  58.6679997
 111.3199992   4.1254990  58.3079997 110.3989992   5.0304990  59.6239997
 109.4539992   3.2614990  58.8659997 108.4309992   3.6894990  58.9309997
 109.5309992   2.5244990  58.0389997 109.9789992   2.4704990  60.0469997
 109.4569992   1.4904990  59.9949997 111.0769992   2.4344990  59.8809997
 109.9199992   3.1464990  61.4029997 110.9239992   3.6084990  61.5179997
 109.1369992   3.9304990  61.4889997 109.5309992   2.1944990  62.6469997
 108.5509992   1.7074990  62.4579997 110.3209992   1.4134990  62.6199997
 109.6039992   3.0294990  63.9409997 109.2469992   4.0814990  63.9309997
 108.9169992   2.5094990  64.6419997 110.9769992   2.9504990  64.6059997
 111.8039992   3.1224990  63.8829997 111.1149992   3.6204990  65.4799997
 111.3369992   1.4874990  65.1679997 110.6059992   1.2044990  65.9559997
 111.2729992   0.7634990  64.3269997 112.7169992   1.4724990  65.7939997
 113.5349992   1.6954990  65.0759997 112.8199992   2.2884990  66.5399997
 112.9549992   0.1704990  66.4789997 112.0499992  -0.2535010  66.9639997
 113.3839992  -0.6095010  65.8139997 114.0019992   0.2484990  67.5779997
 114.7829992  -0.5385010  67.5059997 114.4709992   1.2224990  67.3179997
 113.4389992   0.3324990  69.0379997 112.7519992   1.1794990  69.2499997
 112.9389992  -0.6365010  69.2539997 114.6949992   0.4744990  69.8849997
 115.7719992   0.8534990  69.4509997 114.3979992   0.1484990  71.1459997
 115.4499992   0.2434990  72.1009997 115.3769992  -0.4775010  72.9439997
 116.4579992   0.0144990  71.6939997 115.3019992   1.6354990  72.8679997
 116.1089992   1.7884990  73.6159997 113.9849992   1.6404990  73.7579997
 113.1729992   1.5494990  73.0049997 113.8719992   0.6854990  74.3139997
 113.7889992   2.8204990  74.5949997 112.5279992   3.0464990  75.5059997
 111.6119992   4.0894990  74.8009997 112.0719992   4.9694990  73.7839997
 113.0509992   5.4134990  74.0659997 112.2899992   4.5284990  72.7879997
 110.9389992   5.9924990  73.4799997 111.2069992   6.4864990  72.5579997
 110.1129992   5.3224990  73.2869997 110.3039992   6.8444990  74.6709997
 111.3179992   7.4194990  75.5999997 112.2609992   7.2994990  75.0879997
 111.1609992   8.4774990  75.7449997 111.3549992   6.8364990  76.5079997
 109.3209992   7.9304990  74.1569997 108.7629992   8.4474990  74.9229997
 109.9619992   8.6254990  73.6359997 108.6249992   7.5104990  73.4469997
 109.5919992   5.8774990  75.5399997 109.0139992   5.3404990  74.8029997
 108.9929992   6.2894990  76.3379997 110.2949992   5.2014990  76.0039997
 111.8159992   1.7524990  75.4679997 112.8739992   3.4454990  76.8699997
 115.3689992   2.6984990  71.8719997 115.5429992   3.8964990  72.2269997
 115.4969992   4.3384990  73.3529997 115.9189992   4.7564990  70.9519997
 116.8809992   4.3124990  70.6209997 115.9889992   5.7864990  71.3649997
 114.8199992   4.5934990  69.9279997 113.8249992   4.9684990  70.2499997
 114.6689992   3.5264990  69.6609997 115.1989992   5.2524990  68.5659997
 115.8849992   4.5764990  68.0119997 115.8449992   6.1184990  68.8289997
 113.9709992   5.5274990  67.7639997 113.3109992   6.1604990  68.3939997
 113.4639992   4.5914990  67.4479997 114.3209992   6.1494990  66.4229997
 115.0809992   6.9254990  66.6579997 113.4639992   6.7264990  66.0129997
 114.7569992   5.1634990  65.3519997 113.7989992   4.6254990  65.1859997
 115.5309992   4.4494990  65.7049997 115.3629992   5.8084990  64.1229997
 116.1459992   5.0554990  63.8899997 115.9179992   6.7354990  64.3829997
 114.4059992   6.2044990  63.0489997 114.2019992   7.2754990  62.9029997
 113.8689992   5.4024990  62.1299997 113.2939992   5.8084990  61.2839997
 114.0989992   3.9194990  61.9769997 113.4419992   3.4394990  61.2199997
 113.8759992   3.4404990  62.9539997 115.5379992   3.4854990  61.5479997
 115.5259992   2.3744990  61.5319997 116.1689992   3.8114990  62.4019997
 115.9659992   3.9884990  60.2069997 117.0669992   3.8564990  60.1399997
 115.8209992   5.0884990  60.2609997 115.2419992   3.4044990  58.9399997
 115.6579992   3.8824990  58.0269997 114.1379992   3.5244990  58.9599997
 115.6309992   1.8964990  58.7609997 115.2309992   1.1854990  59.5149997
 116.7379992   1.8974990  58.6759997 115.0479992   1.4044990  57.4149997
 115.5889992   2.0834990  56.7219997 113.9489992   1.5704990  57.4229997
 115.3919992  -0.0335010  57.1259997 114.7539992  -0.6225010  57.8189997
 116.4779992  -0.2135010  57.2719997 115.0049992  -0.4925010  55.6929997
 113.9009992  -0.3955010  55.6109997 115.2669992  -1.5715010  55.7379997
 115.5879992   0.0824990  54.9419997 119.4289992  10.4574990  58.8269997
 120.1029992  10.7194990  57.9829997 119.9309992  10.8254990  59.7479997
 118.4499992  10.9584990  58.6699997 119.4419992   8.8664990  58.8029997
 119.1139992   8.5334990  57.7949997 120.4809992   8.4734990  58.7979997
 118.6179992   8.1734990  59.8739997 117.5299992   8.3894990  59.8179997
 118.7909992   7.1144990  59.5829997 119.2009992   8.3794990  61.3329997
 120.2769992   8.6264990  61.2119997 118.8909992   9.3264990  61.8249997
 118.9849992   7.2124990  62.3019997 117.9639992   6.7794990  62.2309997
 119.6329992   6.4004990  61.9089997 119.3289992   7.6364990  63.7369997
 119.2419992   6.6764990  64.2899997 120.3999992   7.9274990  63.6929997
 118.2989992   8.4614990  64.5149997 118.4209992   9.5284990  64.2319997
 117.3229992   8.0094990  64.2349997 118.3479992   8.4054990  66.0579997
 117.7389992   9.2514990  66.4419997 117.8739992   7.4704990  66.4249997
 119.8299992   8.6024990  66.5729997 120.4849992   7.7394990  66.3259997
 120.2039992   9.4144990  65.9139997 119.8619992   8.9684990  68.0749997
 119.4579992   9.9824990  68.2829997 119.2129992   8.2574990  68.6299997
 121.2489992   9.1564990  68.6439997 121.2139992   8.6634990  69.6389997
 121.9609992   8.5984990  67.9979997 121.8429992  10.5714990  68.8249997
 121.3539992  11.0154990  69.7189997 122.9339992  10.4434990  68.9909997
 121.7889992  11.4214990  67.5599997 122.2999992  10.7734990  66.8169997
 120.7269992  11.6184990  67.2999997 122.5439992  12.8434990  67.6389997
 123.6469992  12.8034990  67.7629997 122.2349992  13.3404990  66.6949997
 122.0039992  13.7474990  68.7669997 122.2109992  13.2344990  69.7299997
 122.6289992  14.6644990  68.7209997 120.5459992  14.0654990  68.6869997
 120.1489992  14.8294990  67.8629997 119.8129992  13.4104990  69.5199997
 118.4239992  13.8404990  69.4969997 118.3029992  14.8754990  69.8809997
 118.0179992  13.8004990  68.4639997 117.4489992  13.1224990  70.4679997
 116.5209992  13.7194990  70.5909997 118.0279992  13.0144990  71.8809997
 119.1149992  12.7964990  71.8109997 118.0259992  14.0434990  72.2989997
 117.3849992  12.0854990  72.8349997 117.9659992  10.7574990  73.2469997
 118.5029992  11.0094990  74.7589997 119.8749992  11.2474990  75.0189997
 120.5739992  10.8974990  74.2299997 119.9809992  12.3454990  75.1449997
 120.3029992  10.6494990  76.3759997 121.3519992  10.9084990  76.3919997
 119.8549992  11.2174990  77.1779997 120.1599992   9.1484990  76.6019997
 120.9689992   8.7594990  77.7699997 120.4869992   9.0994990  78.6739997
 121.2069992   7.7094990  77.8539997 121.9289992   9.2534990  77.8039997
 118.7959992   8.6904990  76.7379997 118.1709992   8.8444990  75.8719997
 118.6249992   7.6544990  76.9879997 118.3189992   9.1564990  77.5879997
 120.7389992   8.3054990  75.4029997 121.7929992   8.4544990  75.5839997
 120.4529992   8.7804990  74.4769997 120.4769992   7.2764990  75.6019997
 116.8659992   9.7824990  73.3839997 119.0709992  10.3854990  72.3379997
 117.1459992  11.8284990  69.9719997 116.2239992  11.9064990  68.9809997
 115.6839992  12.9364990  68.5819997 115.7549992  10.4394990  68.6209997
 115.1899992   9.9874990  69.4639997 116.6989992   9.9404990  68.3139997
 114.8649992  10.3244990  67.3519997 114.0449992  11.0264990  67.6149997
 114.4679992   9.2864990  67.3169997 115.5479992  10.6654990  65.9749997
 115.5899992   9.7264990  65.3819997 116.5459992  11.1524990  65.9309997
 114.7419992  11.6474990  65.2149997 114.6809992  12.5604990  65.8459997
 113.7279992  11.1974990  65.1569997 115.2889992  12.1644990  63.8169997
 114.4129992  12.6504990  63.3349997 115.6359992  11.2534990  63.2849997
 116.4529992  13.2084990  63.7259997 116.9729992  13.1784990  64.7069997
 116.0079992  14.1944990  63.4719997 117.5299992  12.8004990  62.6459997
 118.0289992  13.7054990  62.2389997 116.9739992  12.2984990  61.8259997
 118.7419992  12.0324990  63.0369997 118.8889992  11.0244990  62.6209997
 119.7429992  12.4794990  63.6579997 120.5179992  11.7674990  63.9769997
 119.9489992  13.9134990  64.1959997 119.7859992  13.8474990  65.2929997
 119.4199992  14.7674990  63.7219997 121.4259992  14.2814990  63.9149997
 122.0399992  13.5254990  64.4479997 121.6539992  15.2794990  64.3469997
 121.9389992  14.3784990  62.4159997 121.6289992  13.5374990  61.7589997
 123.0439992  14.4554990  62.4939997 121.3529992  15.6454990  61.8179997
 121.8659992  16.5104990  62.2899997 120.2479992  15.6094990  61.9229997
 121.6459992  15.6434990  60.3169997 122.6799992  15.2824990  60.1329997
 121.7849992  16.6894990  59.9679997 120.5279992  15.0984990  59.4179997
 119.6049992  15.6464990  59.7049997 120.4249992  13.9974990  59.5199997
 120.6469992  15.4744990  57.8999997 120.9619992  16.5264990  57.7329997
 119.6559992  15.2914990  57.4329997 121.5109992  14.4604990  57.1129997
 121.8529992  14.9324990  56.1669997 120.9959992  13.4804990  57.0199997
 122.3909992  14.1664990  57.7249997   9.4919992 114.2224990  55.0449997
   9.0979992 113.5794990  54.2289997  10.5899992 114.0654990  55.0989997
   9.2479992 115.2794990  54.8039997   8.8669992 113.7854990  56.3809997
   7.7659992 113.6814990  56.2749997   9.2849992 112.7884990  56.6359997
   9.1579992 114.7504990  57.5619997  10.2649992 114.8244990  57.6139997
   8.7199992 115.7314990  57.2799997   8.5569992 114.3504990  58.9639997
   7.4489992 114.2854990  58.9079997   8.8739992 113.2924990  59.0789997
   9.3629992 115.0774990  60.0499997  10.4209992 115.0274990  59.7139997
   9.0599992 116.1444990  59.9939997   9.2269992 114.5224990  61.4569997
   9.7389992 113.5374990  61.4349997   9.8949992 115.1264990  62.1089997
   7.7909992 114.4834990  62.0659997   7.4159992 115.5294990  62.0369997
   7.1759992 113.7374990  61.5199997   7.7839992 113.9654990  63.5399997
   8.4239992 113.0764990  63.3519997   8.2069992 114.6204990  64.3309997
   6.3389992 113.6824990  64.0219997   5.7279992 114.5824990  64.2499997
   5.7819992 113.1344990  63.2329997   6.2249992 112.7194990  65.2039997
   6.8719992 111.8384990  65.0079997   6.6029992 113.2724990  66.0909997
   4.6889992 112.4764990  65.4299997   4.2129992 113.4554990  65.6499997
   4.1649992 112.0854990  64.5319997   4.3209992 111.6284990  66.6369997
   3.2239992 111.4784990  66.5569997   4.7339992 110.5974990  66.6249997
   4.9339992 112.2354990  67.9219997   6.0369992 112.3504990  67.8519997
   4.4989992 113.2544990  68.0029997   4.8319992 111.2564990  69.1439997
   3.7679992 110.9504990  69.2259997   5.4309992 110.3314990  69.0009997
   5.1919992 111.8864990  70.4989997   4.7949992 112.9094990  70.6719997
   4.7499992 111.2194990  71.2709997   6.6809992 111.7584990  70.6659997
   7.4839992 111.6544990  69.8259997   6.9679992 112.0714990  72.0029997
   8.2739992 112.4604990  72.4459997   8.2999992 112.4134990  73.5559997
   8.9589992 111.7324990  71.9609997   8.7999992 113.8614990  71.9389997
   9.8669992 113.9554990  72.2309997   8.0129992 115.0184990  72.6299997
   8.0389992 114.7034990  73.6949997   8.5429992 115.9674990  72.3999997
   6.6879992 115.1594990  72.1769997   5.4579992 115.8394990  72.8609997
   5.8279992 115.7544990  74.3669997   5.4489992 114.5644990  75.1369997
   4.3549992 114.4524990  75.2899997   5.9039992 113.6234990  74.7589997
   5.9009992 114.7144990  76.6429997   5.3609992 115.5624990  77.0379997
   5.5949992 113.7684990  77.0639997   7.3799992 114.7234990  77.0219997
   8.0619992 113.5714990  76.3209997   7.8739992 113.5714990  75.2579997
   9.0779992 113.8044990  76.6069997   7.8119992 112.6044990  76.7329997
   7.9219992 116.0244990  76.4629997   7.6689992 115.9844990  75.4139997
   7.3559992 116.8094990  76.9429997   8.9999992 116.0504990  76.5299997
   7.6009992 114.5684990  78.4889997   7.0509992 113.7904990  78.9989997
   7.3229992 115.4614990  79.0289997   8.6719992 114.4684990  78.5819997
   5.4129992 117.2694990  72.4879997   4.2179992 115.0124990  72.5029997
   8.7259992 113.8404990  70.5399997   9.2059992 114.7154990  69.7459997
   9.7509992 115.7474990  70.1139997   8.8699992 114.1414990  68.3499997
   7.7699992 113.9964990  68.2839997   9.3499992 113.1424990  68.2839997
   9.3189992 115.0714990  67.2409997   9.1489992 114.6394990  66.2319997
  10.4149992 115.2274990  67.3369997   8.6249992 116.4294990  67.2569997
   9.2959992 117.0004990  66.5799997   8.5619992 116.9174990  68.2529997
   7.1479992 116.4874990  66.6969997   6.5759992 115.9124990  67.4559997
   7.1629992 116.1654990  65.6339997   6.5059992 117.8684990  66.7509997
   6.8859992 118.5144990  65.9299997   6.5739992 118.4774990  67.6779997
   5.0099992 117.8334990  66.3569997   4.5329992 118.7624990  66.7359997
   4.4759992 116.9694990  66.8069997   4.8309992 117.8844990  64.7909997
   5.4089992 117.0204990  64.3999997   5.4099992 118.7394990  64.3819997
   3.3949992 118.0174990  64.2529997   2.7299992 118.6924990  64.8119997
   2.8489992 117.3514990  63.1919997   1.7809992 117.3634990  62.9289997
   3.6219992 116.3274990  62.3899997   2.9609992 115.4454990  62.2459997
   4.5619992 116.0504990  62.9129997   3.9689992 116.8904990  60.9659997
   3.0309992 117.1484990  60.4289997   4.4699992 116.1374990  60.3209997
   4.8639992 118.1634990  61.0789997   5.7839992 117.8684990  61.6279997
   4.2849992 118.9744990  61.5699997   5.4559992 118.6624990  59.7449997
   6.1629992 119.5124990  59.8479997   4.5379992 119.0214990  59.2319997
   6.1319992 117.5874990  58.8719997   5.4709992 116.6944990  58.8649997
   7.0869992 117.2224990  59.3069997   6.4029992 117.9844990  57.3759997
   7.3089992 117.4284990  57.0539997   6.6829992 119.0594990  57.3989997
   5.2049992 117.7064990  56.5069997   4.9759992 118.7394990  56.1679997
   4.2949992 117.4044990  57.0699997   5.4819992 116.8094990  55.3599997
   4.5679992 116.3764990  54.8989997   6.1069992 115.9784990  55.7529997
   5.9899992 117.3724990  54.5479997 136.1689992 118.9344990  53.9799997
 136.9749992 118.7724990  53.2319997 135.2639992 119.3924990  53.5269997
 135.7789992 117.9204990  54.2149997 136.7259992 119.6774990  55.1499997
 137.5099992 119.0104990  55.5679997 137.2739992 120.5764990  54.7969997
 135.6449992 120.0064990  56.2229997 134.9239992 120.6774990  55.7089997
 135.1409992 119.1534990  56.7249997 136.3359992 120.8634990  57.3509997
 137.1209992 120.2044990  57.7789997 136.6119992 121.8734990  56.9779997
 135.2549992 121.0314990  58.4729997 134.4029992 121.6084990  58.0559997
 134.9049992 120.0244990  58.7869997 135.7879992 121.8744990  59.6649997
 135.6959992 122.9694990  59.5019997 134.9969992 121.6564990  60.4139997
 137.1539992 121.3794990  60.2069997 137.0429992 120.2744990  60.2409997
 137.9349992 121.7094990  59.4889997 137.4559992 121.8994990  61.5869997
 137.4199992 123.0104990  61.5799997 136.7559992 121.4914990  62.3469997
 138.9449992 121.4304990  61.7989997 139.5499992 121.6954990  60.9049997
 139.3839992 122.0094990  62.6389997 139.1739992 120.0234990  62.1679997
 138.6619992 119.9264990  63.1489997 138.7659992 119.3544990  61.3799997
 140.7059992 119.5714990  62.4269997 140.8109992 118.4714990  62.3089997
 141.4409992 120.0624990  61.7539997 141.1799992 119.8284990  63.9239997
 142.2179992 119.4574990  64.0659997 141.3509992 120.9234990  63.9959997
 140.3729992 119.1884990  65.0839997 140.9139992 119.4594990  66.0159997
 139.5049992 119.8774990  65.1549997 139.8819992 117.7744990  64.7429997
 139.3899992 117.7584990  63.7469997 140.7139992 117.0534990  64.8919997
 138.7119992 117.2964990  65.5959997 137.8629992 118.0014990  65.4649997
 138.3329992 116.2744990  65.3819997 139.1479992 117.3104990  67.1239997
 140.2189992 117.0264990  67.6159997 138.0979992 117.8414990  67.8199997
 138.3609992 117.9774990  69.2499997 137.4749992 117.5024990  69.7229997
 139.2609992 117.4634990  69.6499997 138.3869992 119.5064990  69.6599997
 139.3229992 119.8514990  69.1719997 138.6029992 119.6774990  71.1939997
 139.4769992 119.0794990  71.5289997 138.7449992 120.7584990  71.4079997
 137.4939992 119.0984990  71.8929997 136.8989992 119.8354990  73.1799997
 138.1119992 119.5704990  74.2099997 138.5429992 118.2364990  74.5859997
 138.8269992 117.6364990  73.6949997 139.3829992 118.3794990  75.2989997
 137.5119992 117.3734990  75.3819997 136.5659992 117.3814990  74.8619997
 137.7919992 116.3464990  75.5649997 137.2019992 117.8714990  76.8079997
 136.5089992 119.2574990  76.9339997 137.1099992 120.1294990  76.7249997
 135.7079992 119.3114990  76.2109997 136.1089992 119.3314990  77.9349997
 136.2289992 116.8374990  77.3619997 136.4679992 115.8114990  77.1249997
 136.2659992 116.9164990  78.4379997 135.2379992 117.0914990  77.0159997
 138.3889992 117.8944990  77.6549997 138.9529992 116.9754990  77.5859997
 138.1079992 117.9554990  78.6959997 139.0769992 118.6934990  77.4219997
 136.8669992 121.3264990  72.8149997 135.6979992 119.0664990  73.6479997
 137.1249992 120.1964990  69.3259997 137.1039992 120.8394990  68.1549997
 138.0169992 120.8574990  67.3779997 135.7349992 121.4244990  68.0039997
 135.8049992 122.5334990  67.9749997 135.1549992 121.1724990  68.9179997
 135.1149992 120.8724990  66.6689997 135.8329992 121.1414990  65.8649997
 134.1069992 121.2954990  66.4709997 134.8659992 119.4494990  66.6539997
 134.4459992 119.0594990  67.6059997 135.8169992 118.8864990  66.5449997
 133.9759992 119.0254990  65.4719997 134.4599992 119.3974990  64.5439997
 132.9469992 119.4424990  65.5059997 133.6599992 117.5254990  65.5959997
 133.2779992 117.2214990  66.5939997 134.5769992 117.0154990  65.2299997
 132.4289992 117.2804990  64.6889997 131.6309992 118.0534990  64.6929997
 132.0649992 116.2764990  64.9949997 132.7099992 117.2074990  63.1959997
 133.2589992 118.1284990  62.9039997 131.7179992 117.2924990  62.7029997
 133.4889992 115.9594990  62.8309997 133.0129992 115.0634990  63.2549997
 134.4929992 115.8294990  61.9319997 134.7769992 114.8134990  61.6219997
 135.0439992 116.9464990  61.1099997 135.2219992 117.7244990  61.8829997
 134.2679992 117.4314990  60.4809997 136.4589992 116.6174990  60.5179997
 137.1499992 116.4444990  61.3709997 136.8779992 117.5714990  60.1329997
 136.5829992 115.4964990  59.4699997 135.7319992 115.6784990  58.7779997
 136.3779992 114.5414990  59.9989997 137.9169992 115.3684990  58.7039997
 137.9859992 116.2414990  58.0199997 137.8799992 114.5234990  57.9839997
 139.1639992 115.3374990  59.5939997 139.0949992 114.5664990  60.3909997
 139.2269992 116.3544990  60.0389997 140.4709992 115.0544990  58.9389997
 140.5269992 114.0144990  58.5519997 141.3579992 115.0284990  59.6069997
 140.8759992 116.0064990  57.8299997 140.0059992 116.0894990  57.1439997
 141.7379992 115.5044990  57.3409997 141.2609992 117.4224990  58.3909997
 142.1779992 117.2064990  58.9799997 140.4499992 117.7344990  59.0819997
 141.5249992 118.1904990  57.6329997 130.5059992 125.9064990  56.6119997
 131.1049992 126.7134990  56.1369997 129.5189992 125.7944990  56.1119997
 131.2019992 125.0894990  56.3269997 130.4239992 125.8554990  58.0799997
 130.0499992 124.8324990  58.2999997 131.4369992 125.9764990  58.5189997
 129.3989992 126.7584990  58.8309997 129.6019992 126.7214990  59.9229997
 129.7029992 127.8034990  58.6069997 127.9629992 126.4254990  58.4319997
 127.8219992 126.4274990  57.3299997 127.8589992 125.3434990  58.6629997
 126.8509992 127.2164990  59.1429997 126.8999992 128.2354990  58.7019997
 125.9379992 126.7334990  58.7329997 126.8889992 127.0184990  60.6819997
 127.8829992 127.2164990  61.1359997 126.2309992 127.7654990  61.1729997
 126.4319992 125.5954990  61.0939997 125.4539992 125.4044990  60.6029997
 127.1579992 124.7774990  60.8959997 126.1649992 125.4254990  62.5699997
 125.5849992 126.2714990  62.9959997 125.5889992 124.4774990  62.6279997
 127.4759992 125.1744990  63.3969997 127.9999992 124.3514990  62.8639997
 128.1289992 126.0704990  63.3299997 127.2709992 124.6794990  64.7959997
 127.2769992 123.5694990  64.7489997 128.2089992 124.8834990  65.3549997
 126.1889992 125.3144990  65.6699997 126.2659992 126.4214990  65.6139997
 125.2019992 125.0024990  65.2659997 126.2569992 125.0084990  67.2179997
 127.1419992 125.5134990  67.6599997 125.3839992 125.4744990  67.7229997
 126.2449992 123.4794990  67.5989997 125.6099992 122.9584990  66.8509997
 127.2479992 123.0044990  67.5649997 125.8539992 123.3264990  69.1059997
 124.8849992 123.8684990  69.0729997 125.5329992 122.3004990  69.3869997
 126.8049992 123.8754990  70.1289997 126.8529992 124.9774990  70.0019997
 126.3849992 123.6984990  71.1419997 128.2029992 123.2714990  70.0589997
 128.4439992 122.1034990  69.7999997 129.0869992 124.2484990  70.2429997
 130.4609992 123.8654990  70.6429997 130.5529992 122.9164990  71.2129997
 131.2229992 124.0074990  69.8469997 130.7829992 124.8574990  71.8609997
 131.8219992 124.6434990  72.1909997 129.9199992 124.5224990  73.0949997
 129.0099992 124.1614990  72.5699997 130.4689992 123.7524990  73.6779997
 129.7559992 125.6464990  73.8879997 128.4699992 125.9614990  74.7459997
 128.0339992 127.3934990  74.1829997 128.7939992 128.5894990  74.3629997
 129.4069992 128.6104990  75.2889997 129.5329992 128.7094990  73.5419997
 127.8239992 129.8034990  74.2879997 128.3629992 130.7314990  74.1669997
 127.3019992 129.6284990  73.3589997 126.6909992 129.9464990  75.3489997
 125.8979992 131.1384990  74.8659997 125.1619992 130.7844990  74.1599997
 125.3349992 131.6064990  75.6599997 126.5019992 131.8714990  74.3519997
 125.7259992 128.7674990  75.5079997 124.8839992 129.0924990  76.1009997
 125.4829992 128.3494990  74.5429997 126.2119992 128.0264990  76.1259997
 127.2299992 130.2544990  76.6869997 127.5119992 131.2954990  76.7479997
 128.1309992 129.6724990  76.8099997 126.4019992 130.1074990  77.3649997
 127.3719992 125.0274990  74.4089997 128.8299992 126.0304990  76.1839997
 130.6709992 126.1704990  71.4199997 131.6059992 126.6614990  70.6229997
 132.4969992 126.0034990  70.1619997 131.5389992 128.2454990  70.4839997
 132.3209992 128.6794990  71.1429997 130.5109992 128.5574990  70.7679997
 131.7909992 128.6814990  69.0849997 131.0029992 128.2154990  68.4549997
 132.7179992 128.1384990  68.8019997 131.9899992 130.2194990  68.9169997
 132.9699992 130.4304990  69.3969997 131.2419992 130.7784990  69.5189997
 131.8339992 130.6864990  67.4829997 132.2829992 129.8894990  66.8519997
 132.2699992 131.6634990  67.1859997 130.3279992 130.8814990  67.0959997
 129.7579992 131.5464990  67.7789997 129.9949992 129.8434990  66.8829997
 130.2009992 131.6034990  65.6939997 130.7839992 132.5454990  65.7829997
 129.1819992 131.9914990  65.4829997 130.8819992 130.8564990  64.4909997
 131.9089992 130.5834990  64.8139997 130.8119992 131.5194990  63.6019997
 130.1099992 129.5674990  64.1629997 130.5209992 128.6364990  64.5799997
 129.0289992 129.4524990  63.3509997 128.6089992 128.4984990  62.9979997
 128.4159992 130.5934990  62.6079997 128.9999992 131.5334990  62.7129997
 127.4329992 130.8584990  63.0529997 128.2399992 130.2334990  61.1949997
 127.3309992 129.5954990  61.1519997 129.1379992 129.7464990  60.7589997
 127.9139992 131.5174990  60.3319997 128.6789992 132.2874990  60.5699997
 126.9309992 131.8824990  60.6979997 127.8959992 131.4284990  58.7609997
 127.5409992 132.4334990  58.4479997 127.2349992 130.5894990  58.4539997
 129.2509992 131.0314990  58.2169997 129.6499992 130.1234990  58.7189997
 129.9849992 131.7974990  58.5449997 129.3239992 130.7934990  56.7339997
 130.3349992 130.4074990  56.4799997 129.1789992 131.6934990  56.0979997
 128.3989992 129.6634990  56.2579997 127.3779992 130.1014990  56.3009997
 128.5379992 128.7754990  56.9109997 128.7329992 129.1394990  54.8399997
 127.9599992 128.4384990  54.4559997 129.7389992 128.6954990  54.9939997
 128.8239992 129.9984990  54.1419997 129.1859992  13.3604990  56.7359997
 129.9549992  12.7144990  57.2109997 128.8589992  14.1764990  57.4139997
 129.7799992  13.7714990  55.8919997 127.8509992  12.5644990  56.4409997
 127.0819992  13.0014990  55.7689997 128.1149992  11.6284990  55.9039997
 127.1519992  12.1944990  57.7429997 126.3609992  11.4644990  57.4649997
 127.7589992  11.5794990  58.4409997 126.3719992  13.2994990  58.4139997
 126.9899992  14.2084990  58.5729997 125.6409992  13.6874990  57.6729997
 125.7579992  12.8344990  59.8249997 124.9399992  13.5274990  60.1159997
 125.4429992  11.7724990  59.7349997 126.7399992  12.8904990  61.0289997
 126.3409992  12.2154990  61.8159997 127.7089992  12.4114990  60.7719997
 126.9439992  14.2154990  61.7069997 127.2249992  14.9364990  60.9099997
 126.0519992  14.5214990  62.2959997 128.1089992  14.0184990  62.6259997
 127.8839992  13.2904990  63.4339997 128.9239992  13.6764990  61.9529997
 128.7039992  15.2794990  63.3709997 129.8089992  15.1934990  63.4489997
 128.3999992  16.1964990  62.8219997 128.2149992  15.4204990  64.8159997
 127.1259992  15.2394990  64.6909997 128.6179992  14.5444990  65.3689997
 128.5739992  16.7414990  65.5669997 129.2689992  16.3774990  66.3539997
 129.1619992  17.5144990  65.0269997 127.4209992  17.3694990  66.2999997
 126.6289992  17.7274990  65.6079997 126.9859992  16.4884990  66.8189997
 127.7149992  18.5284990  67.4049997 127.6059992  19.5154990  66.9069997
 126.9919992  18.4724990  68.2459997 129.2059992  18.3804990  67.9379997
 129.3579992  17.3474990  68.3189997 129.9799992  18.6774990  67.1989997
 129.3119992  19.3954990  69.1489997 130.3969992  19.6284990  69.1899997
 128.8089992  20.3774990  69.0119997 128.8999992  18.7774990  70.4709997
 129.2759992  17.6994990  70.8449997 128.2649992  19.6564990  71.2339997
 128.0629992  19.2654990  72.5569997 128.8379992  18.5314990  72.8649997
 128.3389992  20.1294990  73.1989997 126.6689992  18.7444990  72.8879997
 126.0219992  19.6424990  72.7919997 126.7089992  18.3824990  74.4419997
 127.0479992  19.2474990  75.0509997 125.6639992  18.1814990  74.7599997
 127.4979992  17.2124990  74.6679997 127.5799992  16.4494990  76.0269997
 127.8249992  14.9084990  75.7799997 128.1229992  14.4554990  74.5209997
 128.8669992  15.0944990  73.9999997 128.4809992  13.4044990  74.4729997
 126.8779992  14.2604990  73.5369997 126.5539992  15.2284990  73.1859997
 127.2229992  13.6394990  72.7229997 125.6339992  13.5234990  74.0329997
 124.8669992  14.4574990  75.0329997 124.7549992  15.4334990  74.5849997
 123.9699992  13.9874990  75.4069997 125.5089992  14.4764990  75.9009997
 124.7559992  13.1564990  72.8219997 123.9989992  12.5384990  73.2839997
 124.1879992  14.0044990  72.4699997 125.2449992  12.6354990  72.0119997
 125.7859992  12.2534990  74.6949997 126.0989992  11.5624990  73.9259997
 124.8599992  11.8404990  75.0669997 126.3689992  12.3474990  75.5989997
 128.6589992  17.0544990  76.8019997 126.2119992  16.5554990  76.5529997
 126.3619992  17.6514990  71.9269997 125.1679992  17.1954990  72.0319997
 124.3759992  17.4504990  72.9169997 124.9539992  16.3994990  70.7109997
 125.6989992  15.5854990  70.5789997 125.0989992  17.0694990  69.8359997
 123.5849992  15.8124990  70.6129997 122.8969992  16.6774990  70.7229997
 123.4579992  14.9884990  71.3479997 123.2879992  15.1124990  69.2309997
 122.2709992  14.6724990  69.3039997 123.9929992  14.2594990  69.1329997
 123.3889992  16.0714990  68.0969997 124.4519992  16.0444990  67.7729997
 123.1909992  17.1254990  68.3869997 122.6129992  15.6684990  66.8509997
 121.5259992  15.5554990  67.0469997 122.9669992  14.7244990  66.3839997
 122.7139992  16.7314990  65.6699997 123.7739992  16.8144990  65.3459997
 122.3459992  17.7034990  66.0629997 121.8659992  16.3484990  64.4159997
 120.9539992  16.0324990  64.9659997 122.2199992  15.4854990  63.8119997
 121.4819992  17.5354990  63.5639997 120.6829992  18.2094990  63.9049997
 121.9509992  17.8474990  62.3739997 121.5619992  18.6634990  61.7479997
 122.9869992  17.1374990  61.5409997 122.5179992  16.8904990  60.5649997
 123.2519992  16.1884990  62.0559997 124.2039992  17.8694990  61.2419997
 123.9439992  18.8624990  60.8179997 124.7239992  17.3414990  60.4149997
 125.2299992  18.0004990  62.3869997 125.4039992  16.9504990  62.7049997
 124.5689992  18.4114990  63.1799997 126.4989992  18.8654990  62.2569997
 127.2039992  18.5724990  63.0639997 126.4049992  19.9654990  62.3809997
 127.0819992  18.7684990  60.8899997 126.3529992  19.0644990  60.1049997
 127.2959992  17.7114990  60.6239997 128.4529992  19.4804990  60.6449997
 128.9779992  19.7804990  61.5769997 128.2459992  20.4594990  60.1629997
 129.3929992  18.7414990  59.7459997 129.7229992  17.8804990  60.3659997
 130.3669992  19.2604990  59.6219997 128.8299992  18.3304990  58.4109997
 127.7529992  18.0614990  58.4499997 129.3939992  17.4504990  58.0359997
 128.9099992  19.0844990  57.5989997  14.2949992 135.4584990  53.7499997
  14.1509992 134.6284990  53.0259997  15.3499992 135.7584990  53.5749997
  13.6139992 136.2664990  53.4079997  14.1579992 135.1954990  55.2559997
  13.0699992 135.1334990  55.4739997  14.5549992 134.1984990  55.5429997
  14.8809992 136.1794990  56.1319997  15.9829992 136.0454990  56.0959997
  14.5639992 137.1874990  55.7899997  14.4469992 136.0154990  57.6269997
  15.0649992 136.7394990  58.1989997  13.4069992 136.3764990  57.7799997
  14.4889992 134.6704990  58.2989997  13.9099992 134.7444990  59.2449997
  13.8909992 133.9464990  57.7069997  15.9489992 134.1744990  58.4849997
  16.2159992 133.8944990  57.4429997  16.5279992 135.0464990  58.8569997
  16.1209992 132.9164990  59.4009997  15.7839992 131.9934990  58.8819997
  17.2199992 132.8284990  59.5359997  15.4669992 132.9644990  60.8309997
  14.3739992 133.0184990  60.6419997  15.7369992 132.0074990  61.3269997
  15.9039992 134.0484990  61.7339997  16.9969992 134.0304990  61.9289997
  15.6559992 135.0134990  61.2429997  15.0359992 134.0934990  63.0469997
  14.9399992 135.1264990  63.4429997  13.9849992 134.1074990  62.6889997
  15.4549992 133.0234990  64.0229997  15.5359992 132.0374990  63.5169997
  16.4569992 133.2794990  64.4279997  14.5339992 132.9264990  65.2209997
  14.1629992 133.9404990  65.4839997  13.6559992 132.2984990  64.9549997
  15.1479992 132.4444990  66.5639997  15.6499992 131.4584990  66.4659997
  15.8449992 133.1814990  67.0149997  14.1599992 132.2284990  67.6999997
  13.3339992 131.4894990  67.6189997  14.7749992 131.8434990  68.5409997
  13.5109992 133.6584990  68.0989997  13.1579992 134.1894990  67.1899997
  12.7129992 133.5194990  68.8589997  14.5379992 134.6894990  68.7089997
  15.0739992 135.5964990  68.0829997  14.6309992 134.3224990  69.8949997
  15.3309992 135.2604990  70.6539997  16.3969992 135.5044990  70.4579997
  14.8419992 136.2554990  70.5729997  15.2959992 134.8984990  72.1959997
  14.2959992 134.7424990  72.6549997  15.8749992 136.0284990  73.0969997
  16.8899992 136.2484990  72.7009997  15.3169992 136.9754990  72.9319997
  15.8449992 135.7524990  74.4639997  17.0519992 135.0984990  75.1939997
  18.2319992 135.1744990  74.1289997  19.3899992 135.9604990  74.4889997
  19.9479992 136.3114990  73.5939997  19.1349992 136.9524990  74.9199997
  20.2309992 135.1574990  75.4529997  20.9069992 135.8964990  75.8579997
  19.6619992 134.8724990  76.3249997  20.9199992 133.8474990  74.8689997
  19.8609992 132.8294990  74.5319997  19.3599992 132.5144990  75.4349997
  19.1609992 133.2714990  73.8379997  20.3389992 131.9314990  74.1689997
  21.7809992 134.2274990  73.6749997  22.4239992 133.4794990  73.2339997
  21.1949992 134.7674990  72.9469997  22.4759992 134.9944990  73.9819997
  21.9019992 133.2034990  75.8839997  21.3369992 132.7134990  76.6619997
  22.5969992 133.9814990  76.1649997  22.4549992 132.4004990  75.4179997
  17.3009992 135.9494990  76.3509997  16.7129992 133.6754990  75.4329997
  16.1329992 133.6604990  72.4199997  15.6919992 132.5114990  72.1079997
  14.6069992 132.2544990  71.6439997  16.7469992 131.5354990  72.5229997
  16.3649992 130.9044990  73.3529997  17.6449992 132.0604990  72.9139997
  17.3219992 130.6284990  71.3869997  16.5159992 129.9924990  70.9649997
  18.1169992 130.0264990  71.8769997  18.0739992 131.4134990  70.3239997
  18.9069992 131.9944990  70.7739997  17.3859992 132.1394990  69.8409997
  18.5719992 130.5614990  69.1559997  17.7979992 129.8774990  68.7469997
  19.3539992 129.8934990  69.5759997  19.2349992 131.5144990  68.1689997
  20.0619992 131.9664990  68.7579997  18.4879992 132.2614990  67.8239997
  19.7919992 130.7694990  66.9589997  18.8839992 130.3414990  66.4829997
  20.5019992 129.9874990  67.3009997  20.5989992 131.6574990  65.9129997
  20.5639992 131.2194990  64.8919997  21.5859992 131.5724990  66.4169997
  20.2719992 133.1404990  65.7849997  20.4569992 133.6514990  66.7409997
  19.8489992 133.8734990  64.7539997  19.4769992 134.8944990  64.9249997
  19.5979992 133.3864990  63.3929997  19.0539992 134.1004990  62.7379997
  18.9389992 132.4924990  63.4129997  20.8709992 132.9484990  62.6579997
  20.6819992 131.9344990  62.2449997  21.6879992 132.8344990  63.4019997
  21.3349992 134.0004990  61.6299997  21.6119992 134.8714990  62.2609997
  20.4749992 134.2824990  60.9849997  22.6679992 133.5914990  60.9929997
  22.6729992 132.5084990  60.7459997  23.3979992 133.6294990  61.8289997
  23.3189992 134.5894990  59.9309997  24.4039992 134.3794990  59.8179997
  23.1809992 135.6474990  60.2389997  22.7819992 134.4864990  58.5059997
  23.5979992 134.8384990  57.8389997  21.8649992 135.0734990  58.2849997
  22.5819992 133.0114990  58.0809997  21.5869992 132.7144990  58.4759997
  23.3039992 132.3144990  58.5569997  22.7739992 132.7204990  56.5309997
  22.4269992 131.6824990  56.3399997  23.8619992 132.8074990  56.3259997
  22.0519992 133.3504990  55.9689997   5.4869992   5.1284990  58.8309997
   5.7139992   4.5014990  57.9419997   6.3689992   5.7844990  58.9869997
   4.5629992   5.6504990  58.5019997   5.2519992   4.1514990  60.0809997
   4.9769992   4.8974990  60.8569997   4.2619992   3.6634990  59.9529997
   6.2119992   3.1084990  60.3689997   6.0939992   2.1874990  59.7579997
   7.1979992   3.6054990  60.2429997   6.2339992   2.6104990  61.8829997
   7.0889992   1.9404990  62.1169997   6.3769992   3.5804990  62.4049997
   4.9989992   1.8274990  62.1219997   4.1029992   2.3604990  61.7389997
   5.0989992   0.8404990  61.6209997   4.6489992   1.6324990  63.6099997
   5.4519992   1.1074990  64.1689997   4.8089992   2.6314990  64.0679997
   3.3559992   0.9354990  63.9359997   2.5859992   1.5084990  63.3779997
   3.4039992  -0.1255010  63.6099997   2.9689992   0.9874990  65.4329997
   2.0249992   0.4194990  65.5779997   3.7619992   0.3914990  65.9349997
   2.9019992   2.3564990  66.0229997   3.7699992   3.0484990  65.9959997
   2.1419992   2.9234990  65.4449997   2.3869992   2.3364990  67.4779997
   2.0659992   3.3484990  67.8059997   1.4699992   1.7094990  67.5079997
   3.3559992   1.8984990  68.5499997   4.3789992   2.1014990  68.1679997
   3.0969992   2.4944990  69.4519997   3.2129992   0.4274990  69.0239997
   2.2909992   0.2504990  69.6169997   3.2809992  -0.2495010  68.1449997
   4.3219992   0.0694990  69.9929997   4.4479992  -1.0315010  70.0759997
   5.3309992   0.4564990  69.7369997   4.0299992   0.5424990  71.4299997
   3.3179992   1.3944990  71.4029997   3.5489992  -0.3385010  71.9059997
   5.3969992   0.7264990  72.1609997   5.1399992   0.9284990  73.2229997
   5.9759992  -0.2155010  72.2679997   6.2139992   1.8434990  71.5099997
   7.1859992   1.6164990  70.8909997   5.7479992   3.0844990  71.8089997
   6.5109992   4.2444990  71.3819997   7.4779992   4.2584990  71.9299997
   6.7429992   4.2754990  70.2949997   5.8269992   5.5484990  71.8889997
   6.3209992   6.4324990  71.4329997   5.9239992   5.7744990  73.4209997
   6.9879992   5.7554990  73.7379997   5.6229992   6.8034990  73.7129997
   5.2879992   4.6764990  74.0519997   5.4779992   4.6714990  75.6239997
   4.0179992   4.0754990  76.0659997   3.5439992   2.8134990  75.6119997
   4.3659992   2.0664990  75.6569997   2.8489992   2.4944990  76.4179997
   2.8149992   2.9074990  74.2789997   3.4479992   3.3924990  73.5499997
   2.5519992   1.9814990  73.7879997   1.4519992   3.7084990  74.1939997
   1.7349992   5.1624990  74.5299997   2.4149992   5.5624990  73.7929997
   0.9009992   5.7604990  74.8679997   2.4199992   5.1634990  75.3649997
   0.8149992   3.8304990  72.8489997   0.4809992   2.8574990  72.5209997
   0.0679992   4.5994990  72.7239997   1.6209992   4.0864990  72.1769997
   0.4229992   3.1374990  75.1499997   0.2679992   2.0934990  74.9249997
  -0.4740008   3.7304990  75.0459997   0.9129992   3.1864990  76.1119997
   6.4669992   3.5954990  75.9449997   5.6679992   6.0434990  76.1699997
   4.4809992   5.5354990  71.4899997   4.2029992   5.7874990  70.1899997
   4.9889992   6.1424990  69.3439997   2.6529992   5.4934990  69.9739997
   2.1099992   5.9764990  70.8149997   2.6409992   4.3874990  70.0729997
   2.2729992   6.0174990  68.6429997   2.7859992   5.3694990  67.9009997
   2.4849992   7.1004990  68.5119997   0.7269992   5.9074990  68.3089997
   0.0709992   6.3174990  69.1059997   0.3469992   4.8684990  68.2059997
   0.3289992   6.5254990  66.9489997   0.7309992   7.5484990  66.7879997
  -0.7730008   6.6154990  66.8369997   0.7629992   5.8494990  65.6769997
   0.4949992   4.7734990  65.7419997   1.8679992   5.7424990  65.7339997
   0.3019992   6.3714990  64.3509997   0.9919992   7.2154990  64.1399997
  -0.7330008   6.7514990  64.4849997   0.0609992   5.2854990  63.3099997
  -0.4690008   5.8034990  62.4819997  -0.5960008   4.5374990  63.8009997
   1.3649992   4.6824990  62.8249997   1.7279992   3.8064990  63.3829997
   2.1599992   5.2364990  61.9079997   3.1259992   4.7214990  61.8039997
   1.9939992   6.4804990  61.1659997   1.1299992   7.1124990  61.4609997
   1.7779992   6.2494990  60.1009997   3.1709992   7.4584990  61.1219997
   4.0359992   7.0824990  60.5349997   3.4849992   7.5624990  62.1829997
   2.7439992   8.8264990  60.5409997   1.9119992   9.1194990  61.2159997
   2.5089992   8.6704990  59.4659997   3.9979992   9.7644990  60.6219997
   4.5389992   9.9004990  61.5829997   3.6579992  10.7444990  60.2239997
   5.1619992   9.3714990  59.7819997   5.6459992   8.4464990  60.1629997
   5.9179992  10.1734990  59.9169997   4.6999992   9.2064990  58.3279997
   4.0549992  10.0854990  58.1159997   4.1219992   8.2744990  58.1499997
   5.7969992   9.1184990  57.2899997   6.4969992   8.3534990  57.6899997
   6.3279992  10.0944990  57.2839997   5.2589992   8.7674990  55.9219997
   5.3009992   7.6864990  55.6669997   5.9249992   9.2184990  55.1559997
   4.2719992   9.2254990  55.7009997  14.6119992 127.9974990  53.9889997
  14.0169992 127.2954990  54.6089997  15.6429992 127.8854990  54.3889997
  14.7199992 127.6414990  52.9419997  14.2139992 129.5054990  54.1889997
  14.7789992 130.0784990  53.4229997  13.1359992 129.6794990  53.9839997
  14.3379992 130.1234990  55.6149997  13.8469992 129.3654990  56.2619997
  15.3989992 130.1114990  55.9449997  13.8109992 131.5534990  55.7929997
  14.2339992 132.2084990  55.0019997  12.7209992 131.4704990  55.5949997
  14.3119992 132.3064990  57.0129997  15.4229992 132.3314990  56.9959997
  13.9609992 133.3584990  56.9549997  13.9929992 131.6804990  58.3549997
  14.6489992 130.7834990  58.3459997  14.4549992 132.2574990  59.1839997
  12.6039992 131.3394990  58.7949997  12.3139992 130.4804990  58.1519997
  12.5299992 130.9944990  59.8479997  11.6739992 132.5234990  58.7359997
  12.2589992 133.3184990  59.2469997  11.5919992 133.0534990  57.7629997
  10.3429992 132.4554990  59.5329997   9.6419992 133.3064990  59.3929997
   9.8569992 131.5614990  59.0879997  10.5319992 132.4154990  61.0779997
  11.1879992 131.5384990  61.2699997  11.0219992 133.3074990  61.5229997
   9.2019992 131.9324990  61.8519997   8.4479992 132.7384990  61.9799997
   8.8559992 131.1074990  61.1929997   9.5669992 131.3634990  63.2469997
   8.6819992 130.8164990  63.6369997  10.3909992 130.6284990  63.1259997
  10.0909992 132.5114990  64.1939997  10.8179992 133.2064990  63.7219997
   9.2329992 133.1614990  64.4659997  10.6369992 132.0124990  65.5459997
  11.4629992 131.2784990  65.4289997  11.1169992 132.9334990  65.9399997
   9.5939992 131.5464990  66.5039997   8.7859992 132.3094990  66.4789997
   9.3829992 130.4764990  66.2909997  10.2479992 131.5564990  67.8749997
  11.4229992 131.3214990  68.1109997   9.3269992 131.8764990  68.8349997
   9.7519992 131.9984990  70.1489997  10.7979992 132.3714990  70.1759997
   9.0779992 132.7744990  70.5699997   9.7489992 130.6454990  70.9089997
   8.7159992 130.2434990  70.8289997  10.0479992 130.7024990  72.3839997
   9.2239992 131.2934990  72.8379997   9.9309992 129.6944990  72.8359997
  11.2919992 131.2914990  72.5599997  12.6909992 130.5764990  72.9509997
  12.2649992 129.8414990  74.3099997  12.9949992 129.9874990  75.4599997
  14.0909992 129.8204990  75.3879997  12.9359992 131.0314990  75.8339997
  12.3639992 129.0814990  76.6209997  12.5879992 128.0324990  76.4909997
  12.7959992 129.4154990  77.5519997  10.8409992 129.1054990  76.8099997
  10.4539992 130.5344990  76.8809997  10.7589992 130.9474990  75.9299997
   9.3869992 130.6364990  77.0099997  11.0729992 130.8124990  77.7209997
  10.1119992 128.3954990  75.6569997  10.3399992 128.8514990  74.7049997
  10.4589992 127.3934990  75.4499997   9.0479992 128.4124990  75.8389997
  10.5009992 128.4544990  78.1319997  10.8849992 129.0654990  78.9359997
  10.8919992 127.4474990  78.1419997   9.4389992 128.3194990  78.2779997
  13.0759992 129.6144990  71.9429997  13.6309992 131.6934990  73.1479997
  10.6819992 129.7464990  70.2039997  10.2719992 128.5014990  70.0889997
   9.3689992 127.9864990  70.7409997  11.2659992 127.7344990  69.2389997
  11.6179992 127.0084990  70.0029997  11.9579992 128.5334990  68.8979997
  10.6779992 126.8674990  68.1419997   9.6189992 126.5364990  68.2029997
  11.3549992 125.9984990  67.9979997  10.6749992 127.6084990  66.8229997
  11.6539992 128.1114990  66.6739997   9.9269992 128.4224990  66.9309997
  10.3859992 126.6954990  65.6799997   9.4819992 126.1084990  65.9489997
  11.2029992 125.9584990  65.5259997  10.0129992 127.4024990  64.3709997
   9.1449992 128.0804990  64.5129997   9.5919992 126.6314990  63.6909997
  11.1469992 128.0364990  63.5529997  11.7389992 128.7434990  64.1729997
  10.7259992 128.6694990  62.7429997  12.0529992 126.9284990  62.9999997
  11.4749992 126.2044990  62.3869997  12.6979992 126.5174990  63.8059997
  12.9879992 127.6384990  61.9689997  13.7199992 128.3654990  62.3519997
  13.0619992 127.5434990  60.6279997  13.8909992 128.1114990  60.1799997
  12.2649992 126.6784990  59.6559997  11.6239992 125.9064990  60.1349997
  13.0269992 126.0824990  59.1099997  11.4259992 127.3444990  58.5989997
  11.3189992 126.5014990  57.8829997  11.9919992 128.1144990  58.0319997
   9.9199992 127.6404990  58.9329997   9.9189992 128.6234990  59.4489997
   9.6329992 126.7924990  59.5909997   8.9549992 127.7014990  57.6739997
   7.8839992 127.6404990  57.9629997   9.2489992 126.8014990  57.0939997
   9.1939992 128.9094990  56.7649997  10.2749992 129.1594990  56.8189997
   8.5649992 129.7354990  57.1599997   8.7619992 128.6064990  55.2869997
   8.5699992 129.6454990  54.9449997   7.8829992 127.9274990  55.3239997
   9.7979992 127.8964990  54.4689997  10.3389992 127.1194990  55.0499997
  10.5909992 128.6024990  54.1409997   9.0029992 127.3204990  53.1769997
   8.2949992 126.5464990  53.5419997   9.7259992 126.8884990  52.4529997
   8.5189992 128.1824990  52.6699997 126.9279992 136.8944990  57.3499997
 127.0569992 135.8724990  56.9339997 127.9009992 137.4124990  57.2149997
 126.1799992 137.3554990  56.6699997 126.3899992 136.8914990  58.8289997
 127.1759992 136.3924990  59.4349997 126.2349992 137.9434990  59.1499997
 125.2329992 135.9034990  58.9449997 124.5049992 136.3534990  58.2369997
 125.5329992 134.8974990  58.5799997 124.6239992 136.0154990  60.3249997
 124.5799992 137.1014990  60.5539997 123.5579992 135.7154990  60.2409997
 125.2469992 135.1114990  61.3549997 125.2389992 134.0334990  61.0859997
 126.3379992 135.2484990  61.5129997 124.5349992 135.1714990  62.7289997
 123.5189992 134.7314990  62.6319997 125.1259992 134.5254990  63.4129997
 124.5839992 136.5654990  63.3839997 123.9749992 137.1574990  62.6679997
 124.2349992 136.5824990  64.4389997 125.9519992 137.3394990  63.3589997
 126.3769992 137.7734990  62.4289997 125.7019992 138.1974990  64.0199997
 127.1239992 136.7374990  64.1529997 126.7099992 136.2724990  65.0739997
 127.5659992 135.9254990  63.5369997 128.3709992 137.6214990  64.2479997
 128.5859992 138.1174990  63.2769997 128.2359992 138.4894990  64.9279997
 129.6369992 136.8534990  64.6439997 129.8859992 136.2064990  63.7759997
 130.4039992 137.6424990  64.7969997 129.4909992 136.0444990  65.9449997
 129.1959992 136.7734990  66.7289997 128.7109992 135.2534990  65.9259997
 130.7829992 135.2724990  66.4199997 130.9969992 134.4224990  65.7379997
 131.6329992 135.9844990  66.4899997 130.5889992 134.6674990  67.8249997
 129.7079992 133.9954990  67.9109997 131.4729992 134.0514990  68.0979997
 130.4379992 135.8644990  68.8419997 131.3029992 136.5624990  68.8399997
 129.4229992 136.2374990  68.5869997 130.4319992 135.1304990  70.2409997
 131.0609992 135.4434990  71.2179997 129.4619992 134.2344990  70.1199997
 129.0689992 133.7884990  71.4019997 129.0339992 132.6824990  71.3039997
 129.7459992 134.0974990  72.2269997 127.6859992 134.2734990  71.7329997
 127.8419992 135.3734990  71.7589997 127.2859992 133.8114990  73.1439997
 127.4739992 132.7364990  73.3519997 128.0489992 134.1254990  73.8889997
 125.9509992 134.1804990  73.5359997 125.5629992 134.3934990  75.0749997
 126.1669992 135.8184990  75.3449997 126.0619992 136.9084990  74.4079997
 125.5879992 136.6304990  73.4419997 125.5749992 137.8404990  74.7679997
 127.4589992 137.3134990  74.0019997 127.9349992 136.4694990  73.5229997
 127.4349992 138.1464990  73.3149997 128.4119992 137.8804990  75.0649997
 127.7009992 139.1064990  75.7209997 126.9319992 138.7154990  76.3699997
 128.4039992 139.6824990  76.3049997 127.2049992 139.6254990  74.9129997
 128.8799992 136.8274990  76.0169997 129.5599992 137.1504990  76.7919997
 128.0109992 136.4144990  76.5069997 129.2759992 135.9974990  75.4509997
 129.7059992 138.4794990  74.3059997 130.0629992 137.6824990  73.6709997
 130.3739992 138.8014990  75.0909997 129.3579992 139.3194990  73.7219997
 124.0839992 134.4564990  75.0119997 126.1079992 133.3524990  75.9849997
 126.7259992 133.8504990  70.7149997 126.4129992 134.5924990  69.7439997
 126.7489992 135.7354990  69.4969997 125.3989992 133.8454990  68.8839997
 124.4629992 134.4354990  68.9919997 125.2389992 132.8394990  69.3279997
 125.7149992 133.8054990  67.4239997 126.5299992 134.5274990  67.2049997
 124.7729992 134.0064990  66.8699997 126.2189992 132.3864990  67.0069997
 125.5479992 131.6534990  67.5039997 127.2429992 132.0944990  67.3239997
 126.1279992 132.0224990  65.4609997 125.1389992 132.2444990  65.0069997
 126.2179992 130.9204990  65.3539997 127.2319992 132.6734990  64.5689997
 128.2149992 132.5694990  65.0759997 126.8859992 133.7094990  64.3719997
 127.4079992 132.1764990  63.0929997 126.3409992 132.2784990  62.8009997
 127.5449992 131.0764990  63.0229997 128.3209992 132.9844990  62.1929997
 127.9009992 134.0104990  62.1139997 128.2689992 132.7264990  61.1139997
 129.7449992 133.1004990  62.5589997 130.0569992 132.4134990  63.3589997
 130.6409992 133.9514990  62.0359997 131.6959992 134.0804990  62.3179997
 130.3969992 134.9294990  60.9629997 131.0689992 135.7834990  61.1969997
 129.3289992 135.2284990  61.0179997 130.7039992 134.7284990  59.5089997
 131.7819992 134.8404990  59.2619997 130.3379992 135.6404990  58.9899997
 130.1539992 133.4594990  58.8509997 129.1099992 133.4404990  59.2309997
 130.6979992 132.6394990  59.3669997 130.3639992 133.4744990  57.3269997
 131.3889992 133.8144990  57.0689997 129.7519992 134.2464990  56.8129997
 130.1279992 132.0724990  56.7489997 130.7899992 131.3394990  57.2589997
 130.4499992 132.0894990  55.6859997 128.6879992 131.6334990  56.8179997
 128.4409992 131.1784990  57.8009997 128.6939992 130.8314990  56.0489997
 127.6569992 132.7274990  56.4449997 127.8359992 133.2434990  55.4769997
 127.7389992 133.5154990  57.2229997 126.1659992 132.2904990  56.5469997
 125.7739992 131.7514990  55.6579997 125.6009992 133.2464990  56.5969997
 126.0789992 131.7184990  57.4959997 132.3649992  18.9544990  53.4789997
 133.0369992  18.2134990  52.9959997 132.3759992  19.8424990  52.8119997
 131.3389992  18.5294990  53.4349997 132.9389992  19.1384990  54.9379997
 132.8899992  18.1424990  55.4279997 134.0259992  19.3544990  54.8499997
 132.3359992  20.3124990  55.8949997 132.5139992  21.1984990  55.2489997
 131.2359992  20.1584990  55.8759997 132.7929992  20.3744990  57.3189997
 132.3489992  21.2594990  57.8229997 132.2759992  19.5864990  57.9079997
 134.2829992  20.4344990  57.3569997 134.6979992  19.4614990  57.0159997
 134.6939992  21.1084990  56.5759997 134.8629992  20.6374990  58.8569997
 134.2409992  20.0894990  59.5969997 135.9359992  20.3524990  58.8719997
 134.7179992  22.1274990  59.2609997 135.0499992  22.8294990  58.4669997
 133.6589992  22.3784990  59.4839997 135.3759992  22.5284990  60.5079997
 136.3389992  21.9834990  60.4159997 135.4289992  23.6384990  60.5119997
 134.7409992  21.9244990  61.8019997 134.8229992  20.8244990  61.6729997
 135.4059992  22.1664990  62.6579997 133.2509992  22.3374990  62.0589997
 133.0129992  23.3364990  61.6339997 132.5579992  21.6674990  61.5059997
 132.9409992  22.4354990  63.5619997 133.4979992  21.5804990  64.0029997
 133.4669992  23.3714990  63.8449997 131.4719992  22.4534990  63.9069997
 131.0059992  23.4614990  63.9129997 130.9569992  21.8224990  63.1519997
 131.2329992  21.6054990  65.1939997 130.1559992  21.3864990  65.3599997
 131.8189992  20.6644990  65.1209997 131.5649992  22.2194990  66.5989997
 132.6749992  22.2254990  66.6519997 131.0899992  23.2214990  66.6659997
 131.0459992  21.3654990  67.7329997 129.9739992  21.0864990  67.6439997
 131.5959992  20.4234990  67.9419997 131.1449992  22.0894990  69.1389997
 131.5349992  23.2164990  69.3589997 130.7209992  21.1754990  70.0449997
 130.8889992  21.5194990  71.4169997 131.5029992  22.4184990  71.6399997
 129.9059992  21.4694990  71.9339997 131.6519992  20.3104990  72.0529997
 130.9049992  19.4884990  72.0239997 132.0599992  20.7654990  73.4639997
 132.6249992  21.7204990  73.4329997 131.1749992  20.8684990  74.1279997
 132.8449992  19.6844990  74.0079997 132.8429992  19.6774990  75.5969997
 133.7069992  18.2834990  75.8629997 133.1839992  17.1634990  75.1279997
 133.1589992  16.3224990  75.8539997 132.1619992  17.3104990  74.7169997
 134.1799992  16.7844990  73.9959997 133.7919992  15.8564990  73.6019997
 134.1979992  17.4254990  73.1269997 135.6389992  16.4984990  74.3389997
 136.3529992  17.7654990  74.7649997 135.7559992  18.5804990  74.3829997
 136.3189992  17.9124990  75.8349997 137.3809992  17.8054990  74.4349997
 135.7259992  15.4094990  75.4229997 135.0799992  15.6814990  76.2439997
 135.3369992  14.4814990  75.0299997 136.7709992  15.2534990  75.6479997
 136.3729992  16.0984990  73.0839997 136.4549992  16.9624990  72.4409997
 135.8569992  15.2784990  72.6059997 137.3769992  15.8134990  73.3619997
 133.6459992  20.7974990  76.2159997 131.4889992  19.5674990  76.0529997
 132.8429992  19.9524990  71.2709997 132.9949992  18.6644990  70.9429997
 132.2559992  17.7634990  71.2979997 134.1059992  18.5524990  69.8899997
 135.0129992  18.4094990  70.5159997 134.1809992  19.4864990  69.2939997
 133.9669992  17.4124990  68.9569997 132.8989992  17.3314990  68.6599997
 134.2589992  16.4414990  69.4109997 134.7149992  17.6404990  67.6359997
 135.8009992  17.7984990  67.8119997 134.4219992  18.6524990  67.2849997
 134.5699992  16.5614990  66.5779997 133.4689992  16.4134990  66.5749997
 134.9519992  15.5474990  66.8219997 135.0679992  16.9244990  65.1919997
 135.1439992  15.9984990  64.5819997 136.0419992  17.4484990  65.2919997
 134.1519992  17.9844990  64.4689997 134.2609992  18.9824990  64.9449997
 133.0999992  17.7124990  64.7009997 134.4959992  18.0394990  62.9819997
 134.6709992  17.0274990  62.5579997 135.4269992  18.6404990  62.9059997
 133.3549992  18.6454990  62.1989997 133.1289992  19.6824990  62.4879997
 132.5039992  18.0594990  61.3739997 131.8599992  18.7594990  60.8219997
 132.4049992  16.6354990  60.8849997 131.3309992  16.3544990  60.9399997
 132.9919992  15.9924990  61.5739997 133.0149992  16.3744990  59.4869997
 132.6089992  17.2064990  58.8719997 132.4609992  15.5574990  58.9769997
 134.5029992  16.3974990  59.2779997 134.9379992  16.4124990  60.2999997
 134.7179992  17.3804990  58.8049997 134.9729992  15.1774990  58.5049997
 134.4979992  14.2764990  58.9489997 136.0619992  14.9854990  58.4049997
 134.6699992  15.2034990  56.9549997 135.3049992  15.9434990  56.4219997
 133.6199992  15.5214990  56.7809997 134.7539992  13.8104990  56.2589997
 134.0109992  13.1144990  56.7019997 135.7219992  13.4444990  56.6649997
 134.6739992  13.6374990  54.7569997 134.9899992  12.6254990  54.4249997
 135.4519992  14.3574990  54.4229997 133.3579992  13.9654990  54.2269997
 132.8629992  14.7894990  54.7829997 132.6799992  13.0854990  54.2169997
 133.2689992  14.5184990  53.2669997 118.3049992   1.5804990  55.1999997
 118.0439992   2.5874990  54.8119997 117.9249992   1.3874990  56.2249997
 117.9919992   0.7044990  54.5919997 119.8499992   1.5954990  55.3919997
 120.0839992   0.6234990  55.8759997 120.4249992   1.6084990  54.4409997
 120.3199992   2.7984990  56.2649997 119.7659992   3.7174990  55.9759997
 120.0759992   2.7674990  57.3479997 121.8359992   3.0574990  56.0999997
 122.2879992   2.2314990  56.6889997 122.1149992   2.9464990  55.0299997
 122.3469992   4.4554990  56.4619997 123.4299992   4.5824990  56.2469997
 121.8109992   5.2124990  55.8509997 121.9329992   4.8514990  57.9079997
 121.9929992   5.9564990  58.0139997 120.9289992   4.4344990  58.1359997
 122.9089992   4.4004990  59.0529997 123.9619992   4.7134990  58.8879997
 122.4889992   5.0214990  59.8729997 122.6349992   3.0034990  59.5549997
 121.5519992   2.9854990  59.8019997 122.9589992   2.2604990  58.7939997
 123.3279992   2.7364990  60.9149997 123.3209992   1.6284990  60.9939997
 124.3919992   3.0534990  60.8879997 122.5799992   3.2604990  62.1819997
 122.3969992   4.3554990  62.2389997 121.5839992   2.7794990  62.2829997
 123.3869992   2.9834990  63.4799997 123.9839992   2.0514990  63.3739997
 124.1169992   3.7984990  63.6759997 122.5329992   2.6564990  64.7319997
 121.9399992   3.5814990  64.8929997 121.8409992   1.7894990  64.6679997
 123.4689992   2.3544990  65.8989997 124.3399992   3.0284990  65.7569997
 122.9739992   2.6704990  66.8429997 123.9159992   0.9234990  66.0879997
 123.1219992   0.2324990  65.7339997 124.7819992   0.6864990  65.4329997
 124.3959992   0.4584990  67.5199997 124.7319992  -0.5975010  67.5979997
 125.1189992   1.1684990  67.9749997 123.1679992   0.5494990  68.5669997
 122.0779992   1.0254990  68.4669997 123.5909992  -0.1165010  69.6369997
 122.5749992  -0.5995010  70.5689997 121.5579992  -0.6985010  70.1339997
 122.8669992  -1.5905010  70.9799997 122.4789992   0.4224990  71.7679997
 123.4089992   0.1434990  72.3079997 121.2889992   0.2784990  72.7389997
 120.4629992   0.7694990  72.1819997 121.0409992  -0.7685010  73.0179997
 121.6549992   1.0264990  73.9049997 121.0419992   0.7304990  75.2749997
 119.5129992   0.4154990  74.9349997 118.5029992   0.6464990  75.9679997
 117.6989992  -0.1135010  75.8709997 118.9139992   0.5494990  76.9959997
 117.9279992   2.1074990  75.8529997 117.0539992   2.2184990  76.4779997
 118.8139992   2.6784990  76.0899997 117.4079992   2.5804990  74.5179997
 116.8669992   3.9924990  74.6419997 116.0189992   3.8974990  75.3039997
 117.6689992   4.5604990  75.0879997 116.5959992   4.3594990  73.6629997
 118.5699992   2.6594990  73.5169997 118.2749992   2.9874990  72.5309997
 119.3489992   3.3114990  73.8829997 118.8509992   1.6204990  73.4189997
 116.3479992   1.7044990  73.9199997 115.4089992   1.6524990  74.4519997
 116.8309992   0.7594990  73.7209997 116.0019992   1.9864990  72.9369997
 121.6209992  -0.5445010  75.8069997 121.1689992   1.9404990  76.1319997
 122.4719992   1.7064990  71.1559997 123.2829992   2.6714990  71.5619997
 124.0599992   2.6184990  72.4549997 122.7859992   3.9064990  70.7329997
 122.2469992   3.6534990  69.7949997 123.6609992   4.4914990  70.3759997
 121.9009992   4.7484990  71.6279997 122.3349992   5.0504990  72.6049997
 120.9389992   4.2914990  71.9449997 121.5819992   6.0794990  70.9299997
 122.5079992   6.6234990  70.6459997 120.9689992   6.6204990  71.6829997
 120.8329992   5.8224990  69.6309997 121.5469992   5.4164990  68.8839997
 120.4939992   6.8104990  69.2529997 119.4579992   5.0924990  69.8179997
 118.8789992   5.6574990  70.5799997 119.7129992   4.0874990  70.2149997
 118.6759992   5.0404990  68.4869997 118.6359992   6.0914990  68.1279997
 117.6119992   4.8394990  68.7379997 119.2919992   4.1854990  67.3479997
 120.2689992   4.5894990  67.0039997 118.6409992   4.3084990  66.4559997
 119.4439992   2.7014990  67.6779997 120.2539992   2.5164990  68.3989997
 118.8089992   1.7034990  67.0619997 119.0469992   0.6874990  67.4099997
 117.8319992   1.7644990  65.9309997 117.1749992   2.6544990  66.0269997
 117.2459992   0.8204990  65.9199997 118.5509992   1.8004990  64.5479997
 119.3749992   1.0624990  64.4489997 118.8759992   2.8384990  64.3249997
 117.4819992   1.3314990  63.5009997 116.6599992   2.0784990  63.5319997
 117.1219992   0.3124990  63.7589997 117.9659992   1.3364990  62.0229997
 118.1969992   2.3624990  61.6639997 117.0609992   1.1474990  61.4059997
 119.0069992   0.2824990  61.6119997 118.5709992  -0.7285010  61.7599997
 119.9489992   0.4694990  62.1699997 119.3589992   0.4404990  60.1129997
 119.7149992   1.4794990  59.9459997 118.4429992   0.2734990  59.5069997
 120.4599992  -0.5255010  59.7029997 120.0249992  -1.5435010  59.6039997
 121.3689992  -0.4475010  60.3369997 120.9349992  -0.2875010  58.2979997
 121.5039992   0.6644990  58.3469997 120.1179992  -0.2595010  57.5449997
 121.7179992  -0.9835010  57.9279997   0.4469992 125.5784990  54.9339997
   1.0789992 126.1974990  54.2619997  -0.0320008 126.1724990  55.7409997
  -0.3360008 125.2154990  54.2339997   1.3529992 124.5014990  55.6289997
   0.7169992 123.8014990  56.2109997   1.6579992 123.7704990  54.8499997
   2.5009992 124.9034990  56.5769997   2.0189992 125.6064990  57.2899997
   2.8409992 124.0274990  57.1699997   3.5929992 125.5434990  55.7609997
   3.9609992 124.7964990  55.0249997   3.1809992 126.3154990  55.0769997
   4.7519992 126.0804990  56.6299997   5.5449992 126.2904990  55.8809997
   4.5589992 126.9784990  57.2549997   5.4039992 125.0394990  57.5749997
   4.8829992 124.9364990  58.5509997   5.4469992 124.0584990  57.0539997
   6.8619992 125.5094990  57.9469997   7.5189992 124.6184990  58.0349997
   7.1369992 126.1454990  57.0779997   6.8319992 126.5334990  59.0489997
   7.7789992 127.1114990  59.1029997   6.1319992 127.3774990  58.8709997
   6.5209992 125.9764990  60.4649997   5.7189992 125.2114990  60.3879997
   7.4699992 125.5844990  60.8909997   6.0309992 127.0424990  61.5229997
   6.9229992 127.6424990  61.8019997   5.3189992 127.7024990  60.9809997
   5.3049992 126.3564990  62.6619997   5.3339992 125.2764990  62.3999997
   6.0509992 126.4344990  63.4819997   4.0499992 127.0504990  63.1009997
   4.1359992 128.1484990  63.2439997   3.2649992 126.7704990  62.3659997
   3.4889992 126.4034990  64.3469997   2.3779992 126.4484990  64.3549997
   3.8989992 125.3764990  64.2469997   4.0749992 126.9794990  65.6529997
   5.1459992 127.1054990  65.3849997   3.6799992 127.9814990  65.9219997
   4.3289992 125.9624990  66.8409997   4.7449992 124.9554990  66.6199997
   5.1519992 126.4054990  67.4409997   3.0329992 125.8064990  67.6499997
   1.8729992 126.0934990  67.3669997   3.4089992 125.1734990  68.7719997
   2.4239992 124.7184990  69.7099997   2.0879992 125.5324990  70.3869997
   1.4949992 124.4954990  69.1429997   2.9779992 123.4504990  70.3859997
   2.1539992 123.0084990  70.9859997   4.1919992 123.9194990  71.3049997
   5.0469992 124.1484990  70.6339997   3.8899992 124.8534990  71.8259997
   4.5229992 122.9384990  72.2339997   3.9579992 122.7244990  73.7069997
   4.2729992 124.1494990  74.2339997   4.0659992 124.5294990  75.6379997
   3.5059992 125.4884990  75.6209997   3.4039992 123.7994990  76.1509997
   5.3449992 124.6734990  76.4549997   5.1039992 124.7924990  77.5009997
   5.8649992 123.7304990  76.3699997   6.2829992 125.8524990  76.1279997
   6.8299992 125.5914990  74.7379997   7.3709992 124.6624990  74.6329997
   5.9859992 125.4484990  74.0799997   7.5309992 126.3644990  74.4599997
   5.5219992 127.1444990  76.1409997   4.5929992 127.0394990  75.6009997
   5.3249992 127.4784990  77.1479997   6.0879992 127.9444990  75.6859997
   7.4599992 126.0204990  77.0759997   8.0249992 126.9134990  76.8509997
   8.1429992 125.2114990  76.8669997   7.1149992 126.0524990  78.0989997
   2.4899992 122.5584990  73.6719997   4.7719992 121.7854990  74.4489997
   3.4279992 122.5434990  69.4019997   3.6169992 121.2994990  69.8129997
   3.3089992 120.9234990  70.9329997   4.1589992 120.3104990  68.7839997
   3.7659992 119.2914990  68.9859997   5.2389992 120.2294990  69.0319997
   3.8619992 120.8164990  67.3539997   4.4409992 120.2554990  66.5899997
   4.1859992 121.8794990  67.3309997   2.3769992 120.8234990  66.8999997
   1.7269992 121.3834990  67.6049997   1.8459992 119.8484990  66.8499997
   2.2119992 121.4544990  65.5009997   3.1519992 121.9934990  65.2549997
   1.3939992 122.1914990  65.6459997   1.9189992 120.3484990  64.3919997
   1.0509992 119.6954990  64.6259997   2.7209992 119.5824990  64.4579997
   1.8119992 120.7544990  62.8729997   0.8509992 121.3124990  62.8459997
   1.7059992 119.8184990  62.2839997   3.0549992 121.5164990  62.3579997
   3.9269992 120.8794990  62.6199997   3.2539992 122.3314990  63.0859997
   3.2079992 122.0614990  61.0009997   2.2849992 122.4174990  60.5189997
   4.1589992 122.1034990  60.0869997   3.9339992 122.5794990  59.1219997
   5.5519992 121.5254990  60.2489997   5.7399992 121.2584990  61.3109997
   6.3699992 122.2404990  60.0169997   5.6789992 120.2444990  59.4529997
   4.8539992 119.5414990  59.6959997   6.5689992 119.6964990  59.8309997
   5.7749992 120.5454990  57.9789997   6.5309992 121.3464990  57.8309997
   4.8389992 120.9204990  57.5119997   6.2209992 119.3474990  57.0689997
   5.5959992 118.4404990  57.2089997   7.2709992 119.0144990  57.2139997
   6.0279992 119.7104990  55.6239997   4.9929992 120.1134990  55.6029997
   5.9699992 118.7554990  55.0589997   6.9199992 120.7844990  55.1419997
   7.9679992 120.4684990  55.3299997   6.6539992 121.6864990  55.7319997
   6.5519992 121.1264990  53.6819997   5.4789992 121.4114990  53.6599997
   6.6629992 120.2364990  53.0259997   7.2949992 122.3744990  53.0999997
   6.9969992 123.2794990  53.6709997   7.0029992 122.6184990  52.0559997
   8.3939992 122.2624990  53.2149997 128.1199992   3.2294990  57.1379997
 127.0569992   3.1924990  56.8159997 128.6919992   2.6024990  56.4209997
 128.4159992   4.2784990  56.9199997 128.3979992   2.6774990  58.5269997
 127.6909992   1.8504990  58.7509997 129.3859992   2.1754990  58.4459997
 128.3369992   3.5924990  59.7599997 129.0039992   4.4804990  59.7809997
 127.3179992   3.9854990  59.9619997 128.6529992   2.7814990  61.0809997
 127.8079992   2.0624990  61.1459997 129.6769992   2.3664990  60.9689997
 128.6619992   3.7084990  62.3529997 129.1679992   3.0344990  63.0769997
 129.2239992   4.6224990  62.0669997 127.2759992   4.0914990  62.8529997
 126.7889992   4.8074990  62.1569997 126.7009992   3.1474990  62.9629997
 127.3279992   4.6864990  64.2959997 128.3209992   5.1654990  64.4349997
 126.5469992   5.4714990  64.3789997 127.2619992   3.5344990  65.2879997
 126.2089992   3.1884990  65.2189997 127.8769992   2.6784990  64.9349997
 127.6269992   3.9714990  66.6529997 128.7279992   4.1084990  66.7079997
 127.1239992   4.9294990  66.9049997 127.3579992   2.9624990  67.7869997
 126.3019992   2.6184990  67.7599997 127.9839992   2.0654990  67.5889997
 127.7109992   3.6744990  69.1379997 128.6529992   4.2594990  69.0679997
 126.8439992   4.3084990  69.4229997 127.8759992   2.6414990  70.2809997
 127.8149992   3.1634990  71.2599997 127.0989992   1.8474990  70.2779997
 129.2839992   2.0054990  70.2839997 129.6379992   1.8274990  69.2459997
 130.1259992   2.5854990  70.7179997 129.1729992   0.6904990  71.0519997
 128.3759992   0.0744990  70.5849997 130.1089992   0.0974990  70.9659997
 128.7679992   0.8304990  72.5459997 127.8839992   1.4794990  72.7279997
 128.4529992  -0.1705010  72.9109997 129.8819992   1.3174990  73.4189997
 131.0639992   1.2694990  73.0519997 129.4029992   1.7174990  74.5949997
 130.3929992   2.0804990  75.5739997 130.1359992   1.5244990  76.5009997
 131.4599992   1.9564990  75.2909997 130.1189992   3.6374990  75.8509997
 130.8609992   3.9044990  76.6339997 128.7249992   3.7954990  76.4759997
 127.9069992   3.5714990  75.7589997 128.6569992   3.1764990  77.3959997
 128.5699992   5.1064990  76.8759997 127.1959992   5.6934990  77.3469997
 126.4339992   5.7464990  75.9509997 126.7339992   6.8024990  75.0179997
 126.5599992   7.8014990  75.4729997 127.8329992   6.8384990  74.8589997
 125.9859992   6.7174990  73.6839997 124.9219992   6.6154990  73.8389997
 126.1509992   7.6364990  73.1419997 126.3999992   5.6374990  72.6619997
 126.2639992   4.2244990  73.2049997 126.8149992   3.5184990  72.6019997
 126.6519992   4.1394990  74.2089997 125.2239992   3.9444990  73.1219997
 125.5679992   5.6324990  71.3969997 125.6279992   6.5414990  70.8159997
 125.7869992   4.7214990  70.8589997 124.5099992   5.5674990  71.6059997
 127.8999992   5.8354990  72.3139997 128.2689992   6.8234990  72.0819997
 128.1859992   5.0974990  71.5799997 128.4729992   5.6724990  73.2149997
 126.5079992   4.6994990  78.1899997 127.4039992   7.1064990  77.8259997
 130.3719992   4.3394990  74.5869997 131.5739992   4.9684990  74.5119997
 132.3869992   5.0884990  75.4439997 131.6799992   5.7314990  73.0959997
 130.8529992   6.4454990  72.8929997 131.4659992   4.9804990  72.3059997
 133.0079992   6.5124990  72.9559997 133.7369992   5.7114990  72.7079997
 133.3499992   7.0764990  73.8499997 132.9109992   7.3914990  71.6669997
 133.8079992   8.0464990  71.6549997 131.9859992   7.9864990  71.8199997
 132.8089992   6.6524990  70.2979997 131.9029992   6.0144990  70.3859997
 133.6339992   5.9434990  70.0729997 132.6209992   7.5484990  69.1249997
 133.5869992   8.0584990  68.9169997 131.8269992   8.2644990  69.4279997
 132.0589992   6.8224990  67.8979997 131.1149992   6.3724990  68.2739997
 132.7889992   6.0074990  67.7059997 131.9029992   7.6294990  66.6239997
 132.9249992   7.9384990  66.3159997 131.3489992   8.5774990  66.7959997
 131.4069992   6.7164990  65.5329997 131.4639992   5.6584990  65.8299997
 130.8189992   6.9984990  64.3569997 130.5859992   6.1384990  63.7119997
 130.5029992   8.3174990  63.7239997 131.0129992   8.4704990  62.7489997
 130.9339992   9.1284990  64.3489997 128.9259992   8.4414990  63.4959997
 128.6699992   9.4714990  63.1679997 128.4209992   8.3024990  64.4759997
 128.2169992   7.6024990  62.3509997 127.1429992   7.8684990  62.2569997
 128.2569992   6.5134990  62.5679997 128.8659992   7.9074990  60.9579997
 128.4059992   7.1614990  60.2749997 129.9749992   7.8574990  60.9299997
 128.3929992   9.2394990  60.2619997 128.5799992   9.9644990  61.0829997
 127.3069992   9.1874990  60.0349997 129.2009992   9.4744990  58.9849997
 130.2349992   9.0874990  59.1119997 129.1099992  10.5714990  58.8349997
 128.5979992   8.8594990  57.7329997 128.6089992   9.5974990  56.9019997
 127.5159992   8.8084990  57.9789997 129.1509992   7.5384990  57.3329997
 129.3839992   6.8464990  58.1709997 130.1259992   7.6624990  56.8139997
 128.3629992   7.0874990  56.6939997 136.7849992 129.7164990  57.1869997
 137.5739992 129.1524990  57.7289997 136.4149992 130.4734990  57.9119997
 137.2229992 130.1334990  56.2549997 135.7369992 128.6914990  56.6899997
 135.0879992 129.2574990  55.9879997 136.3359992 127.9724990  56.0899997
 135.0709992 127.9764990  57.8389997 134.2439992 127.3634990  57.4219997
 135.8319992 127.3284990  58.3249997 134.2319992 128.8364990  58.8879997
 134.9219992 129.3544990  59.5879997 133.6529992 129.6354990  58.3779997
 133.3169992 127.9504990  59.7569997 132.5979992 128.6284990  60.2639997
 132.7149992 127.3204990  59.0679997 134.0679992 127.0304990  60.7469997
 134.9739992 126.4844990  60.4049997 134.3599992 127.7274990  61.5619997
 133.1559992 126.1684990  61.6009997 132.4599992 126.8714990  62.1069997
 132.5669992 125.4994990  60.9389997 133.8329992 125.3764990  62.7129997
 133.2779992 124.4144990  62.7499997 134.8529992 125.0724990  62.3949997
 133.8719992 125.8904990  64.1589997 134.0559992 126.9734990  63.9899997
 132.8359992 125.8024990  64.5519997 134.9079992 125.3134990  65.0269997
 135.9239992 125.5164990  64.6259997 134.9149992 125.8584990  65.9949997
 134.7729992 123.7724990  65.3219997 133.6889992 123.6634990  65.5349997
 134.9459992 123.1434990  64.4219997 135.5709992 123.3914990  66.5309997
 135.4709992 124.2144990  67.2709997 135.2659992 122.4384990  67.0139997
 137.1219992 123.2504990  66.2779997 137.4549992 122.5044990  65.5249997
 137.5899992 124.1574990  65.8399997 137.9899992 122.9504990  67.5449997
 137.5619992 122.0294990  67.9949997 139.0049992 122.6554990  67.2029997
 138.0749992 124.1344990  68.5619997 138.6889992 124.9744990  68.1709997
 137.0549992 124.5434990  68.7289997 138.7429992 123.6454990  69.8359997
 139.9009992 123.3714990  69.9579997 137.8049992 123.6874990  70.7769997
 137.9959992 123.1884990  72.1229997 137.0629992 122.6534990  72.3979997
 138.8169992 122.4524990  72.2579997 138.0429992 124.3364990  73.2189997
 138.0449992 123.8054990  74.1939997 136.8199992 125.3154990  73.2489997
 136.8499992 125.6694990  72.1959997 135.8519992 124.8204990  73.4789997
 136.9999992 126.4454990  74.1269997 136.1709992 126.5024990  75.5199997
 136.3519992 127.9674990  76.0499997 137.3839992 128.8064990  75.5259997
 137.6459992 129.5404990  76.3179997 138.3519992 128.3334990  75.2569997
 136.8699992 129.5244990  74.2309997 137.7509992 129.9264990  73.7519997
 136.4029992 128.7994990  73.5809997 135.9009992 130.6974990  74.3429997
 136.3169992 131.6004990  75.4439997 137.3319992 131.9394990  75.2979997
 135.5829992 132.3894990  75.5129997 136.2739992 131.0524990  76.3739997
 135.7439992 131.4244990  73.0199997 134.7889992 131.9284990  72.9779997
 136.5259992 132.1564990  72.8789997 135.8259992 130.6484990  72.2739997
 134.5329992 130.1254990  74.5849997 134.1729992 129.3544990  73.9189997
 133.7479992 130.8564990  74.7049997 134.5369992 129.4894990  75.4579997
 134.6889992 126.4324990  75.1769997 136.7319992 125.4814990  76.4489997
 139.3469992 125.0224990  72.9999997 140.0519992 125.4134990  74.0139997
 139.8989992 125.1614990  75.1509997 141.1379992 126.2484990  73.4489997
 141.7989992 125.5824990  72.8549997 141.7739992 126.6604990  74.2619997
 140.6099992 127.4054990  72.5059997 141.2269992 128.3094990  72.6999997
 139.5679992 127.6594990  72.7919997 140.5819992 127.2064990  70.9479997
 139.9579992 126.3294990  70.6739997 141.6579992 127.0444990  70.7199997
 140.1409992 128.5194990  70.2089997 140.1259992 128.3874990  69.1059997
 140.7309992 129.4294990  70.4499997 138.6629992 129.0154990  70.5219997
 138.6119992 130.0354990  70.0829997 138.6609992 129.1604990  71.6229997
 137.4829992 128.0634990  70.1729997 136.5739992 128.5334990  70.6069997
 137.6289992 127.1284990  70.7559997 137.3429992 127.8624990  68.6249997
 136.5919992 127.0874990  68.3629997 138.2869992 127.3914990  68.2759997
 137.0759992 129.1764990  67.9019997 137.0259992 130.0574990  68.5589997
 136.9449992 129.3294990  66.5429997 136.8889992 130.3204990  66.0709997
 137.0799992 128.1394990  65.5759997 136.1209992 127.8594990  65.0899997
 137.4279992 127.1894990  66.0349997 137.8959992 128.6974990  64.4109997
 138.8579992 129.0504990  64.8409997 137.4669992 129.5984990  63.9229997
 137.9659992 127.5684990  63.4259997 136.9539992 127.3614990  63.0169997
 138.5129992 126.6984990  63.8479997 138.7749992 128.0024990  62.1409997
 139.6529992 128.5464990  62.5509997 137.9989992 128.6534990  61.6839997
 139.2349992 126.9604990  61.1929997 138.3679992 126.3524990  60.8579997
 139.9879992 126.2754990  61.6379997 139.9389992 127.3844990  59.9269997
 140.7389992 128.1084990  60.1899997 139.2829992 127.7854990  59.1239997
 140.7729992 126.3064990  59.3089997 140.0049992 125.6754990  58.8109997
 141.1169992 125.5884990  60.0839997 141.9139992 126.7784990  58.3929997
 141.4809992 127.3814990  57.5659997 142.4159992 125.9154990  57.9069997
 142.6479992 127.4664990  58.8649997  12.5809992 140.2274990  52.4159997
  11.7609992 140.2814990  53.1629997  12.2319992 139.4584990  51.6939997
  12.7929992 141.1934990  51.9099997  13.8549992 139.6544990  53.1149997
  13.6489992 138.7904990  53.7819997  14.4919992 139.2844990  52.2829997
  14.6419992 140.7374990  53.9619997  15.6099992 140.2884990  54.2719997
  14.9339992 141.6194990  53.3519997  14.0959992 141.1984990  55.3719997
  14.8649992 141.8314990  55.8649997  13.1709992 141.7964990  55.2289997
  13.7919992 140.0124990  56.1909997  12.9809992 139.3954990  55.7489997
  14.7079992 139.3854990  56.2469997  13.2389992 140.3944990  57.5799997
  13.8559992 141.2734990  57.8619997  12.1609992 140.6644990  57.5879997
  13.5869992 139.3034990  58.6329997  13.0719992 138.3274990  58.5029997
  14.6949992 139.2144990  58.6539997  13.0319992 139.7654990  59.9709997
  13.4059992 140.8004990  60.1209997  11.9479992 139.7064990  59.7329997
  13.1879992 138.7274990  61.1029997  12.9709992 137.7224990  60.6819997
  14.2819992 138.8104990  61.2829997  12.3099992 139.0134990  62.2969997
  12.6089992 140.0394990  62.5989997  11.2149992 138.9884990  62.1079997
  12.6289992 138.0154990  63.4209997  12.2349992 137.0404990  63.0639997
  13.7279992 138.0164990  63.5849997  11.8949992 138.3234990  64.7499997
  12.4279992 139.1754990  65.2229997  10.8169992 138.4894990  64.5339997
  12.0979992 137.1804990  65.7629997  11.6409992 137.6844990  66.6409997
  11.5779992 136.2144990  65.5879997  13.5139992 136.8654990  66.1279997
  13.4229992 136.0734990  66.9019997  13.9329992 136.3374990  65.2449997
  14.3729992 138.0584990  66.4889997  15.4339992 137.7434990  66.5869997
  14.4119992 138.9574990  65.8379997  13.9169992 138.3534990  67.9659997
  13.2049992 137.5974990  68.6029997  14.3709992 139.5234990  68.3949997
  14.1109992 139.8934990  69.6839997  14.1689992 139.0684990  70.4259997
  14.8209992 140.6854990  70.0039997  12.8039992 140.7494990  69.7809997
  13.0019992 141.6364990  69.1429997  12.5689992 141.2464990  71.2819997
  13.2489992 142.1034990  71.4759997  11.5649992 141.6694990  71.4989997
  12.8489992 140.3004990  72.2309997  11.7639992 139.3284990  72.8089997
  11.4379992 139.9994990  74.1679997  12.3149992 139.9434990  75.2949997
  13.3579992 139.9514990  74.9109997  12.2219992 140.9284990  75.8009997
  12.0699992 138.7054990  76.2379997  12.1389992 137.7854990  75.6769997
  12.8509992 138.6514990  76.9809997  10.7689992 138.6464990  76.9839997
  10.7399992 137.3934990  77.8019997  10.0139992 137.4434990  78.5999997
  10.5509992 136.4914990  77.2389997  11.6589992 137.3964990  78.3689997
  10.6019992 139.9084990  77.8679997  11.4729992 140.1194990  78.4719997
  10.4859992 140.8594990  77.3709997   9.7139992 139.6804990  78.4399997
   9.6319992 138.5284990  76.0279997   9.8299992 137.7134990  75.3479997
   9.7499992 139.4044990  75.4069997   8.6529992 138.5604990  76.4819997
  10.5279992 139.3594990  72.0269997  12.4029992 137.9904990  73.0209997
  11.7199992 139.9994990  69.2049997  10.5029992 140.5724990  69.0439997
  10.2029992 141.7044990  69.3219997   9.6569992 139.4124990  68.5249997
   9.6679992 138.5614990  69.2389997  10.1459992 138.9294990  67.6529997
   8.1709992 139.6284990  68.4189997   7.9019992 140.5034990  69.0479997
   7.6649992 138.6834990  68.7139997   7.6359992 140.0054990  66.9979997
   8.0229992 140.9984990  66.6839997   6.5399992 140.1444990  67.1169997
   8.0129992 138.9404990  65.9259997   9.1109992 138.7904990  65.8459997
   7.7449992 139.2514990  64.8929997   7.2299992 137.6434990  66.1539997
   6.2139992 138.0464990  66.3559997   7.5089992 137.3064990  67.1749997
   7.2509992 136.5864990  65.0709997   6.6059992 136.8504990  64.2059997
   6.7889992 135.6484990  65.4459997   8.6629992 136.2824990  64.5559997
   9.1339992 135.6064990  65.3009997   9.3389992 137.1554990  64.4359997
   8.5409992 135.5744990  63.1939997   8.3969992 134.4854990  63.2529997
   8.4799992 136.0544990  61.9249997   8.3009992 135.3254990  61.1209997
   8.5609992 137.5274990  61.5279997   9.3449992 137.7674990  60.7789997
   8.8419992 138.1114990  62.4309997   7.2919992 138.2094990  60.9829997
   6.5079992 138.0914990  61.7609997   6.9979992 137.6194990  60.0879997
   7.4289992 139.7544990  60.8019997   8.0279992 140.1334990  61.6569997
   6.3939992 140.1564990  60.8259997   8.0979992 140.1304990  59.4769997
   9.0559992 139.5804990  59.3589997   8.2319992 141.2224990  59.3259997
   7.2009992 139.6304990  58.3039997   6.2009992 140.1024990  58.4109997
   7.0939992 138.5364990  58.1399997   7.6839992 140.1054990  56.8849997
   7.8499992 141.1974990  56.9949997   6.8549992 139.9194990  56.1679997
   9.0449992 139.5024990  56.4889997   9.3169992 138.5124990  56.9139997
   9.8009992 140.1524990  56.9789997   9.3929992 139.4694990  55.0459997
   8.8799992 140.3194990  54.5459997   8.9559992 138.5454990  54.6109997
  10.4469992 139.6434990  54.7419997 135.0389992   8.4154990  53.5519997
 135.2889992   9.1944990  54.3029997 133.9749992   8.0974990  53.5419997
 135.3499992   8.7374990  52.5349997 136.0379992   7.3304990  53.9889997
 135.8069992   6.4644990  53.3319997 137.0789992   7.6894990  53.8449997
 135.7939992   6.7944990  55.4149997 136.5939992   6.0754990  55.6939997
 135.9379992   7.6034990  56.1629997 134.3809992   6.1574990  55.6119997
 133.5519992   6.8924990  55.5329997 134.2179992   5.3864990  54.8289997
 134.2509992   5.4174990  56.9629997 133.2209992   5.0274990  57.1039997
 134.9379992   4.5454990  56.9289997 134.6089992   6.3054990  58.2319997
 135.6789992   6.6034990  58.2069997 134.1239992   7.3004990  58.1399997
 134.3969992   5.5134990  59.5489997 133.3139992   5.3834990  59.7639997
 134.8769992   4.5464990  59.2879997 135.1189992   6.0524990  60.7829997
 135.8489992   5.2724990  61.0859997 135.7819992   6.9044990  60.5209997
 134.2279992   6.4014990  61.9719997 133.6779992   7.3114990  61.6509997
 133.4309992   5.6454990  62.1329997 135.1209992   6.8174990  63.1729997
 135.7639992   7.7074990  63.0059997 134.5019992   7.1134990  64.0469997
 136.0259992   5.7054990  63.6709997 135.4659992   4.7654990  63.8669997
 136.8859992   5.5394990  62.9869997 136.5549992   5.9904990  65.1079997
 135.8589992   6.2824990  65.9229997 137.0819992   5.0644990  65.4229997
 137.4739992   7.2264990  65.0959997 138.2269992   7.0944990  64.2899997
 137.0159992   8.2364990  65.0349997 138.3699992   7.1774990  66.3309997
 138.7829992   6.1464990  66.3629997 139.2799992   7.7924990  66.1659997
 137.5929992   7.4504990  67.6329997 137.1929992   8.4864990  67.6639997
 136.7699992   6.7054990  67.6859997 138.5769992   7.4094990  68.8339997
 139.8009992   7.4594990  68.7579997 137.8969992   7.2824990  69.9599997
 138.6269992   7.4984990  71.1639997 138.9939992   6.5114990  71.5189997
 139.5719992   8.0764990  71.0849997 137.8109992   8.0794990  72.2239997
 138.5259992   8.3344990  73.0359997 136.6879992   7.0684990  72.6769997
 136.3589992   6.3514990  71.8939997 137.1019992   6.4204990  73.4769997
 135.5429992   7.8144990  73.0749997 134.2289992   7.1134990  73.4359997
 133.9539992   7.6644990  74.8069997 135.0759992   7.7004990  75.7629997
 134.6809992   7.6444990  76.7999997 135.7619992   6.8304990  75.6789997
 135.8609992   9.0404990  75.6249997 136.7619992   8.8304990  76.1829997
 135.9149992   9.2304990  74.5639997 135.2699992  10.2304990  76.3009997
 135.4869992  10.2634990  77.7769997 136.5479992  10.2114990  77.9729997
 135.1239992  11.2204990  78.1229997 135.0399992   9.4074990  78.2599997
 135.8239992  11.4654990  75.6339997 135.3009992  12.2534990  76.1559997
 136.9039992  11.4454990  75.6519997 135.4799992  11.5444990  74.6129997
 133.7959992  10.3774990  76.0269997 133.8109992  10.4864990  74.9529997
 133.3709992  11.2864990  76.4259997 133.3309992   9.4304990  76.2619997
 133.1849992   7.5754990  72.5319997 134.5059992   5.6514990  73.4939997
 137.1909992   9.3214990  71.7089997 137.7909992  10.4844990  72.0809997
 138.8409992  10.6674990  72.6209997 136.8639992  11.6304990  71.7829997
 136.8049992  11.8884990  70.7039997 137.3169992  12.4444990  72.3879997
 135.4069992  11.4154990  72.2919997 135.0589992  12.3984990  72.6759997
 135.2849992  10.6614990  73.0989997 134.4149992  10.9384990  71.1619997
 133.4399992  10.6304990  71.5979997 134.8029992  10.0334990  70.6489997
 134.1149992  12.0154990  70.0349997 134.9189992  11.8604990  69.2849997
 134.3539992  12.9984990  70.4939997 132.7839992  11.9404990  69.5009997
 132.6419992  12.8284990  68.8489997 131.9979992  11.8794990  70.2839997
 132.5119992  10.7064990  68.5379997 131.4169992  10.5704990  68.4079997
 132.8929992   9.7984990  69.0529997 133.2559992  10.7934990  67.2479997
 133.0239992   9.8664990  66.6809997 134.3609992  10.8614990  67.3459997
 132.7379992  11.8904990  66.3729997 131.6609992  12.0924990  66.4699997
 133.4499992  12.5424990  65.5289997 132.9529992  13.2314990  64.8309997
 134.8749992  12.3194990  65.2559997 135.1829992  11.3204990  65.6339997
 135.4959992  13.1234990  65.7059997 135.0359992  12.2014990  63.7799997
 135.3889992  13.1694990  63.3629997 134.0699992  12.1234990  63.2369997
 136.0149992  11.1174990  63.3759997 135.6799992  10.1474990  63.8019997
 136.9409992  11.3244990  63.9529997 136.4069992  11.1264990  61.8939997
 136.5459992  12.1944990  61.6219997 135.5949992  10.7734990  61.2229997
 137.5949992  10.2784990  61.4269997 137.1239992   9.2774990  61.5239997
 138.4459992  10.3624990  62.1359997 138.0769992  10.6544990  59.9989997
 138.4449992  11.7024990  60.0299997 137.2909992  10.4684990  59.2369997
 139.3479992   9.8914990  59.6609997 139.2199992   8.8264990  59.9499997
 140.2379992  10.3074990  60.1789997 139.7409992   9.8764990  58.1879997
 138.9269992   9.4584990  57.5569997 140.5869992   9.1794990  58.0079997
 139.8799992  10.8694990  57.7109997 133.8089992 133.4434990  54.4279997
 133.8749992 132.6934990  55.2439997 134.5339992 133.0654990  53.6759997
 132.8019992 133.4944990  53.9599997 134.3269992 134.7894990  54.8249997
 135.4149992 134.7364990  55.0429997 134.2269992 135.3994990  53.9029997
 133.5329992 135.4064990  56.0329997 133.7679992 136.4744990  56.2289997
 132.4359992 135.4254990  55.8539997 133.5739992 134.6104990  57.3459997
 133.0669992 135.2144990  58.1289997 133.0469992 133.6324990  57.3229997
 134.9989992 134.3204990  57.9659997 135.4879992 133.7874990  57.1229997
 135.4599992 135.3094990  58.1739997 134.8449992 133.7134990  59.3579997
 134.1799992 132.8334990  59.2249997 135.8229992 133.3124990  59.7019997
 134.3709992 134.6884990  60.4329997 135.0879992 135.5334990  60.4959997
 133.3269992 135.0244990  60.2539997 134.2849992 133.9254990  61.8679997
 133.7279992 132.9644990  61.8599997 135.2929992 133.7404990  62.2979997
 133.3589992 134.6904990  62.9199997 132.4129992 135.1454990  62.5589997
 133.0699992 134.0314990  63.7669997 134.1479992 135.8934990  63.5359997
 135.0919992 135.5374990  64.0009997 134.5059992 136.5974990  62.7549997
 133.1829992 136.8914990  64.2529997 133.8489992 137.7374990  64.5259997
 132.2599992 137.1394990  63.6869997 132.8369992 136.4244990  65.6589997
 132.4369992 135.3904990  65.5939997 133.7379992 136.5054990  66.3049997
 131.8159992 137.3014990  66.4239997 132.1609992 138.3064990  66.7469997
 130.8879992 137.3274990  65.8119997 131.2279992 136.4494990  67.6439997
 130.1239992 136.5734990  67.6799997 131.4819992 135.3824990  67.4659997
 131.8329992 136.9314990  68.9339997 132.9219992 137.0674990  68.7629997
 131.4699992 137.9504990  69.1879997 131.4619992 135.8844990  70.0159997
 130.3409992 135.4304990  70.2719997 132.5879992 135.6284990  70.7099997
 132.4769992 134.4624990  71.5609997 131.7449992 134.7034990  72.3619997
 132.0869992 133.6124990  70.9629997 133.8389992 134.1974990  72.1999997
 133.7969992 133.2594990  72.7949997 134.3569992 135.4334990  72.9909997
 133.5959992 135.7044990  73.7539997 135.1329992 134.9934990  73.6519997
 134.7769992 136.4414990  72.0829997 134.8639992 137.8414990  72.6429997
 134.7389992 137.7334990  74.2259997 134.1579992 138.8924990  74.9609997
 134.4149992 139.8964990  74.5599997 133.0589992 138.8164990  74.8179997
 134.2559992 138.9124990  76.5049997 134.3529992 139.9164990  76.8909997
 133.2919992 138.5404990  76.8179997 135.3519992 138.1204990  77.1559997
 136.6759992 138.3194990  76.4909997 137.1019992 139.3114990  76.4619997
 137.3459992 137.5564990  76.8599997 136.6369992 137.9954990  75.4619997
 135.5199992 138.5324990  78.6249997 135.9749992 139.5114990  78.6489997
 134.5289992 138.5584990  79.0559997 136.0329992 137.7434990  79.1529997
 134.9589992 136.6594990  77.1659997 135.7779992 136.0624990  77.5389997
 134.6769992 136.2954990  76.1889997 134.1149992 136.5424990  77.8299997
 136.1929992 138.4844990  72.3909997 133.6109992 138.6104990  72.2229997
 134.8109992 133.9924990  71.1229997 134.8099992 132.8644990  70.4349997
 133.8729992 132.0994990  70.3729997 136.0729992 132.6544990  69.5549997
 136.3179992 131.5784990  69.6809997 136.9849992 133.1954990  69.8869997
 135.8179992 133.0674990  68.1559997 134.9109992 132.6344990  67.6819997
 136.6529992 132.7174990  67.5129997 135.6909992 134.6754990  68.0379997
 135.4449992 135.1704990  69.0009997 134.8639992 134.9294990  67.3409997
 136.9469992 135.4464990  67.5189997 137.5369992 135.0124990  66.6839997
 137.5529992 135.3694990  68.4469997 136.7629992 136.9624990  67.4899997
 135.7999992 137.0394990  66.9429997 137.5969992 137.5364990  67.0329997
 136.4719992 137.5994990  68.9219997 137.2969992 137.4284990  69.6449997
 135.5299992 137.1994990  69.3539997 136.2839992 139.1344990  68.7689997
 137.1649992 139.5014990  68.1989997 136.1749992 139.6434990  69.7509997
 135.0329992 139.4234990  67.9889997 134.1269992 139.0024990  68.4499997
 134.9199992 139.9924990  66.7439997 133.9029992 140.0804990  66.3339997
 136.0559992 140.4024990  65.7949997 136.9519992 140.7064990  66.3769997
 135.7449992 141.3134990  65.2399997 136.4759992 139.3744990  64.7179997
 135.5329992 138.8894990  64.3859997 137.0749992 138.5544990  65.1669997
 137.0449992 140.1404990  63.5429997 138.0169992 140.5934990  63.8299997
 136.4569992 141.0734990  63.4069997 137.1569992 139.4804990  62.1099997
 137.6889992 138.5054990  62.1329997 137.6059992 140.2164990  61.4089997
 135.8009992 139.2654990  61.4189997 135.3529992 140.2064990  61.0349997
 135.2229992 138.7484990  62.2139997 135.8849992 138.3284990  60.2279997
 134.8559992 137.9494990  60.0489997 136.7399992 137.6564990  60.4559997
 136.2119992 139.0644990  58.8489997 137.1299992 139.6744990  58.9869997
 135.3589992 139.7264990  58.5869997 136.4579992 138.1084990  57.6699997
 135.4749992 137.7634990  57.2839997 137.0169992 137.2174990  58.0279997
 137.0419992 138.6384990  56.8869997   6.1319992 134.1724990  53.7499997
   5.1459992 133.8404990  53.3599997   6.7379992 133.2684990  53.9739997
   6.5989992 134.5944990  52.8349997   6.1059992 135.1994990  54.8429997
   7.1499992 135.5264990  55.0329997   5.3639992 135.9844990  54.5799997
   5.5829992 134.5194990  56.1209997   5.1499992 135.3664990  56.6949997
   4.7109992 133.8594990  55.9199997   6.6859992 133.6504990  56.8319997
   6.8129992 132.7434990  56.2029997   7.6399992 134.1964990  56.9989997
   6.3339992 133.3384990  58.2709997   7.1949992 132.7564990  58.6609997
   6.2649992 134.3164990  58.7939997   5.1639992 132.3644990  58.4939997
   4.1929992 132.8324990  58.2209997   5.3639992 131.4064990  57.9689997
   5.1469992 131.9804990  59.9739997   6.0439992 131.3834990  60.2449997
   4.9439992 132.8354990  60.6539997   3.9689992 130.9494990  60.3389997
   3.0619992 131.5904990  60.3369997   4.0019992 130.1644990  59.5529997
   4.0829992 130.3804990  61.7169997   3.2919992 129.6054990  61.6279997
   5.1179992 129.9804990  61.7599997   3.8489992 131.4354990  62.6889997
   4.6629992 132.1844990  62.5789997   2.9739992 132.0944990  62.5059997
   3.8169992 131.0134990  64.1479997   3.4819992 131.8334990  64.8189997
   2.9739992 130.2964990  64.2379997   5.0639992 130.3874990  64.7459997
   5.1399992 129.3754990  64.2939997   5.9749992 130.9544990  64.4599997
   5.0509992 130.3644990  66.2329997   6.0799992 130.2704990  66.6399997
   4.8309992 131.3734990  66.6439997   3.9579992 129.4804990  66.8349997
   2.9329992 129.9024990  66.7599997   3.9969992 128.4804990  66.3519997
   4.0449992 129.1184990  68.3389997   3.4819992 128.1754990  68.5069997
   5.1129992 129.0374990  68.6359997   3.3819992 130.3524990  69.0619997
   3.2919992 131.4974990  68.6399997   3.0849992 129.9254990  70.3269997
   2.2889992 130.8414990  71.0129997   1.8529992 131.6034990  70.3329997
   1.5119992 130.2284990  71.5169997   3.0169992 131.6264990  72.1479997
   3.6989992 131.0104990  72.7729997   1.9559992 132.3034990  73.0939997
   1.4029992 133.0064990  72.4349997   1.2899992 131.5494990  73.5649997
   2.6579992 133.1294990  74.0019997   2.7059992 132.5824990  75.5269997
   3.5819992 133.7314990  76.3069997   3.2239992 135.0794990  75.9939997
   2.4179992 135.2814990  75.2549997   2.8859992 135.4434990  76.9879997
   4.5069992 135.8754990  75.5329997   4.2689992 136.9264990  75.4659997
   5.2749992 135.8574990  76.2919997   5.2599992 135.5644990  74.2149997
   4.1459992 135.5184990  73.1159997   3.7519992 136.5184990  73.0109997
   4.5779992 135.3134990  72.1469997   3.4119992 134.7674990  73.3669997
   6.2849992 136.6164990  73.8309997   5.7689992 137.4634990  73.4039997
   6.8769992 136.9164990  74.6839997   7.0039992 136.1614990  73.1659997
   5.8699992 134.2064990  74.2989997   6.7339992 134.2334990  74.9469997
   6.2649992 133.8334990  73.3659997   5.0139992 133.6884990  74.7039997
   1.3769992 132.6714990  76.1329997   3.3239992 131.2164990  75.5149997
   3.7799992 132.7464990  71.4779997   5.0319992 132.5234990  71.3889997
   5.6139992 131.5384990  71.9159997   5.7989992 133.5924990  70.6439997
   6.4959992 134.1244990  71.3259997   5.0709992 134.3204990  70.2259997
   6.5859992 132.9804990  69.5239997   5.8139992 132.5444990  68.8539997
   7.0859992 132.0594990  69.8929997   7.7149992 133.9224990  68.8449997
   8.4539992 133.2884990  68.3089997   8.2579992 134.2984990  69.7379997
   7.2289992 135.1624990  68.0519997   8.0059992 135.7964990  67.5739997
   6.7119992 135.8584990  68.7459997   6.1669992 134.7764990  66.9659997
   5.3369992 134.4304990  67.6179997   6.4639992 133.9334990  66.3059997
   5.7419992 135.9694990  66.2449997   6.6359992 136.4154990  65.7599997
   5.5049992 136.7674990  66.9809997   4.5419992 135.6994990  65.2949997
   3.7559992 135.1654990  65.8699997   4.8049992 134.9854990  64.4849997
   3.9719992 136.9734990  64.7989997   3.7019992 137.7214990  65.5589997
   3.7069992 137.3154990  63.5239997   3.3919992 138.3584990  63.3749997
   3.8509992 136.6534990  62.1929997   4.6119992 135.8494990  62.2879997
   4.2949992 137.3554990  61.4549997   2.5819992 136.0664990  61.5829997
   1.8079992 136.8544990  61.7049997   2.3009992 135.0914990  62.0359997
   2.7009992 135.5684990  60.0939997   3.5119992 134.8134990  60.0149997
   3.0469992 136.3774990  59.4159997   1.4739992 134.9484990  59.4219997
   0.6629992 135.7034990  59.3499997   1.1429992 134.2684990  60.2359997
   1.7499992 134.1524990  58.1439997   2.3059992 133.2284990  58.4099997
   2.4569992 134.7144990  57.4969997   0.4519992 133.7674990  57.4729997
   0.0019992 134.6814990  57.0299997  -0.2910008 133.4754990  58.2459997
   0.6039992 132.6044990  56.5039997  -0.3780008 132.2404990  56.1329997
   1.2339992 131.8164990  56.9699997   1.3919992 133.0044990  55.2899997
   1.0399992 133.9404990  54.8069997   1.4459992 132.2334990  54.4919997
   2.4669992 133.1924990  55.4999997  87.4349992  91.8224990  55.2169997
  88.4659992  92.1484990  54.9629997  87.3729992  90.7694990  55.5659997
  86.9999992  92.3984990  56.0619997  86.5169992  91.9134990  53.9809997
  85.5979992  91.3294990  54.2019997  86.0909992  92.9334990  53.8729997
  87.0679992  91.1104990  52.7779997  88.0379992  91.4294990  52.3409997
  87.0939992  90.0844990  53.2029997  86.0799992  90.9494990  51.6149997
  85.0659992  90.6974990  51.9949997  86.0519992  91.9394990  51.1109997
  86.4769992  89.8794990  50.6049997  87.5399992  90.0054990  50.3059997
  86.3949992  88.8934990  51.1099997  85.4729992  89.7914990  49.4079997
  84.4669992  89.7064990  49.8699997  85.5039992  90.7884990  48.9189997
  85.6939992  88.6014990  48.5029997  85.3619992  87.7184990  49.0899997
  84.9749992  88.7154990  47.6639997  87.1629992  88.2914990  47.9769997
  87.8949992  88.3284990  48.8119997  87.1479992  87.2894990  47.4979997
  87.7519992  89.3064990  46.9409997  87.8699992  90.3074990  47.4099997
  88.7969992  89.0614990  46.6519997  86.9499992  89.4534990  45.6179997
  86.0499992  88.8354990  45.8239997  86.4639992  90.4214990  45.3729997
  87.4809992  88.8094990  44.2569997  87.4019992  87.7164990  44.4389997
  86.7439992  89.0554990  43.4639997  88.8349992  89.1704990  43.7519997
  89.1719992  90.1784990  44.0749997  89.6069992  88.4764990  44.1489997
  88.8699992  89.1994990  42.2839997  88.1169992  89.9024990  41.8699997
  89.8389992  89.4864990  41.8219997  88.6369992  87.7624990  41.6049997
  89.6219992  87.2814990  41.7859997  87.7879992  87.2494990  42.1039997
  88.3219992  87.9804990  40.1089997  87.4479992  88.6514990  39.9669997
  89.1119992  88.4734990  39.5029997  88.0629992  86.6134990  39.5009997
  88.5569992  85.5804990  39.9459997  87.2299992  86.7444990  38.4869997
  86.3759992  85.6094990  38.2589997  86.3979992  85.3254990  37.1849997
  86.6029992  84.7104990  38.8699997  84.9479992  86.1424990  38.5619997
  84.1879992  85.3344990  38.5029997  84.5099992  87.0404990  37.3339997
  85.3089992  87.8084990  37.2689997  84.4219992  86.3574990  36.4619997
  83.3319992  87.7674990  37.6989997  82.7049992  88.6984990  36.5029997
  83.5779992  90.0064990  36.5529997  83.9729992  90.6044990  37.7669997
  83.6519992  91.6674990  37.8199997  83.4959992  90.0544990  38.6059997
  85.5639992  90.6224990  38.0779997  85.7709992  91.0124990  39.0639997
  85.8699992  89.5874990  38.0479997  86.4539992  91.4444990  37.1729997
  87.8369992  91.5984990  37.7859997  87.7149992  92.0024990  38.7799997
  88.3379992  90.6414990  37.7849997  88.5129992  92.2244990  37.2229997
  86.6499992  90.7824990  35.8599997  85.7249992  90.9454990  35.3279997
  87.3289992  91.3614990  35.2509997  86.9689992  89.7584990  35.9949997
  85.7949992  92.7944990  36.9619997  86.4999992  93.2854990  36.3079997
  85.6929992  93.2594990  37.9309997  84.8239992  92.6444990  36.5129997
  82.9409992  88.1054990  35.1809997  81.3239992  89.1294990  36.9109997
  84.8409992  87.0214990  39.6859997  84.9799992  86.3454990  40.8659997
  85.1539992  85.1374990  40.9199997  84.7289992  87.2424990  42.0729997
  84.8179992  88.2964990  41.7329997  85.4739992  86.9964990  42.8589997
  83.2539992  86.9784990  42.6029997  83.0309992  85.9794990  43.0349997
  82.5589992  86.9354990  41.7369997  82.7159992  87.9834990  43.6319997
  81.6299992  87.7774990  43.7449997  82.8149992  88.9984990  43.1909997
  83.5089992  87.9494990  44.9289997  83.0269992  88.5884990  45.6989997
  84.4919992  88.4184990  44.7119997  83.8089992  86.5734990  45.5749997
  84.7839992  86.5884990  46.1079997  83.9849992  85.7034990  44.9069997
  82.6469992  86.1464990  46.5419997  81.9399992  85.4414990  46.0549997
  81.9579992  86.9684990  46.8289997  83.1909992  85.3154990  47.7909997
  82.3959992  85.1154990  48.5399997  83.8699992  86.0784990  48.2289997
  84.0939992  84.2194990  47.4619997  83.7729992  83.5584990  46.6429997
  85.2369992  83.7494990  48.0769997  85.8789992  82.9634990  47.6509997
  85.8879992  84.3854990  49.2849997  85.5349992  85.4324990  49.4059997
  86.9979992  84.3904990  49.2599997  85.3319992  83.7044990  50.5979997
  85.4429992  82.6104990  50.4389997  84.2219992  83.7164990  50.6459997
  86.2329992  84.0664990  51.8099997  87.2539992  83.9554990  51.3849997
  86.0059992  83.3104990  52.5909997  86.2959992  85.5124990  52.3389997
  86.5989992  86.1374990  51.4719997  87.1259992  85.5514990  53.0769997
  85.0449992  86.0014990  53.0079997  84.9039992  85.2864990  53.8469997
  84.1849992  85.9374990  52.3079997  85.1219992  87.4824990  53.5129997
  84.9889992  88.1324990  52.6219997  86.1239992  87.7374990  53.9189997
  83.8979992  87.8114990  54.4519997  83.9489992  88.8324990  54.8859997
  83.8499992  87.0554990  55.2639997  82.5899992  87.7274990  53.6679997
  81.7139992  87.8834990  54.3329997  82.4479992  86.6824990  53.3199997
  82.5299992  88.4114990  52.7939997  47.0669992  68.7144990  54.6849997
  46.8569992  69.7974990  54.5489997  47.4469992  68.4474990  55.6939997
  46.1119992  68.1474990  54.7129997  47.9949992  68.2934990  53.5139997
  48.9629992  68.8384990  53.5389997  48.2249992  67.2064990  53.5139997
  47.4239992  68.5624990  52.1289997  47.1309992  69.6344990  52.1489997
  48.2569992  68.4154990  51.4079997  46.1709992  67.6634990  51.8709997
  46.4209992  66.6144990  52.1379997  45.3879992  68.0324990  52.5679997
  45.6149992  67.5634990  50.4279997  45.0879992  68.5104990  50.1829997
  46.5089992  67.3754990  49.7949997  44.5219992  66.3944990  50.2319997
  44.9489992  65.4154990  50.5369997  43.7039992  66.5464990  50.9669997
  44.0159992  66.4184990  48.7769997  43.5279992  65.4344990  48.6129997
  43.2159992  67.1804990  48.6559997  45.0689992  66.5184990  47.6529997
  45.5099992  67.5264990  47.8049997  45.9389992  65.8454990  47.8089997
  44.4769992  66.4294990  46.2879997  44.1639992  65.3634990  46.3109997
  43.4689992  66.8544990  46.0949997  45.4669992  66.6144990  45.1699997
  46.5239992  66.5694990  45.5089997  45.1249992  65.8314990  44.4599997
  45.2159992  67.9504990  44.4579997  45.8099992  68.0004990  43.5199997
  44.1439992  67.9584990  44.1669997  45.3839992  69.2554990  45.3409997
  44.6939992  70.0114990  44.9089997  45.1649992  69.1254990  46.4219997
  46.7459992  69.9664990  45.1539997  46.9739992  70.5174990  44.2169997
  46.7099992  70.7154990  45.9729997  47.9199992  68.9864990  45.4379997
  47.7499992  68.5614990  46.4509997  47.8459992  68.1124990  44.7549997
  49.3399992  69.6224990  45.5269997  49.1169992  70.4704990  46.2109997
  50.0579992  68.9784990  46.0779997  50.0119992  69.9494990  44.2119997
  50.8579992  70.7974990  44.0789997  49.5109992  69.1174990  43.3039997
  50.2399992  69.0754990  42.0739997  50.1879992  70.0784990  41.5989997
  51.3239992  68.8324990  42.0839997  49.5249992  68.1594990  40.9959997
  50.1459992  68.0234990  40.0839997  48.2269992  68.8654990  40.4069997
  47.8139992  69.5214990  41.2029997  48.5929992  69.5824990  39.6409997
  47.0779992  67.9904990  40.1959997  46.7529992  67.0264990  39.0229997
  46.5189992  68.0064990  37.7949997  45.4869992  67.7744990  36.9009997
  44.4629992  67.4764990  37.2119997  45.2319992  68.6914990  36.3289997
  45.8189992  66.7524990  35.7449997  45.9299992  65.7094990  36.0039997
  45.0209992  66.9194990  35.0369997  47.0979992  67.0134990  34.9639997
  46.9439992  66.1464990  33.7259997  46.0609992  66.4494990  33.1819997
  47.8209992  66.1174990  33.0959997  46.8179992  65.1224990  34.0479997
  47.2989992  68.3634990  34.4659997  47.7449992  68.9824990  35.2299997
  48.0139992  68.3764990  33.6569997  46.3689992  68.8334990  34.1789997
  48.3959992  66.5734990  35.5519997  48.1489992  65.6834990  36.1139997
  48.7109992  67.3164990  36.2699997  49.1619992  66.4254990  34.8049997
  47.9639992  66.2024990  38.6949997  45.4369992  66.4454990  39.4069997
  49.1239992  66.8784990  41.5349997  50.0459992  65.9944990  41.6989997
  51.2779992  66.1094990  41.4839997  49.3569992  64.6854990  42.2709997
  49.2939992  63.9404990  41.4489997  48.3239992  64.8254990  42.6569997
  49.9829992  64.1614990  43.5389997  51.0869992  64.0734990  43.4549997
  49.6869992  63.0924990  43.5819997  49.4919992  64.8834990  44.7969997
  48.5939992  64.2834990  45.0579997  49.1509992  65.9034990  44.5169997
  50.5059992  64.8784990  45.9239997  50.7159992  63.8134990  46.1619997
  49.9469992  65.3574990  46.7559997  51.7209992  65.8104990  45.5659997
  51.3219992  66.8154990  45.8239997  51.9339992  65.6424990  44.4879997
  53.0109992  65.6334990  46.4779997  53.8539992  66.1624990  45.9849997
  53.2049992  64.5394990  46.5119997  52.8439992  66.1454990  47.9369997
  53.7009992  65.8104990  48.5599997  51.8979992  65.8174990  48.4179997
  52.8519992  67.6334990  47.8599997  53.7599992  68.0974990  47.4479997
  51.8329992  68.4274990  48.3029997  52.1379992  69.4834990  48.2639997
  50.4779992  68.0764990  48.9149997  49.8439992  67.6384990  48.1149997
  50.0109992  69.0834990  48.9469997  50.5479992  67.2864990  50.1679997
  51.0889992  66.3204990  50.0769997  49.4939992  67.0664990  50.4419997
  51.0109992  68.1534990  51.3539997  50.3729992  67.9064990  52.2299997
  50.7739992  69.2184990  51.1459997  52.4569992  67.8754990  51.9079997
  53.1399992  68.2794990  51.1309997  52.4969992  66.7874990  52.1309997
  52.8939992  68.6354990  53.2109997  52.6419992  69.7104990  53.0839997
  54.0029992  68.6124990  53.2739997  52.1439992  68.0324990  54.4209997
  52.5609992  67.0134990  54.5689997  51.0509992  68.0824990  54.2279997
  52.4149992  68.8584990  55.6709997  53.5079992  69.0244990  55.7789997
  52.1199992  68.2094990  56.5229997  51.6999992  70.1934990  55.6809997
  51.9759992  70.6834990  56.6389997  50.6069992  70.0484990  55.8169997
  51.9339992  70.8134990  54.7889997  61.3059992  50.7824990  53.8049997
  60.3899992  51.3534990  54.0679997  62.0749992  51.5734990  53.6779997
  61.4919992  50.0484990  54.6179997  61.3159992  50.0284990  52.4609997
  60.5589992  49.2174990  52.5179997  60.9639992  50.8104990  51.7539997
  62.6849992  49.5554990  51.8969997  63.2869992  50.4494990  51.6259997
  63.2259992  48.9544990  52.6589997  62.4909992  48.6444990  50.6529997
  62.1859992  47.6714990  51.0949997  61.6549992  49.1064990  50.0859997
  63.7979992  48.4794990  49.8749997  64.3749992  49.4234990  49.7709997
  64.4619992  47.9204990  50.5689997  63.8009992  47.5764990  48.6119997
  63.2199992  47.9814990  47.7559997  64.8329992  47.5284990  48.2019997
  63.3879992  46.0674990  48.6819997  63.8699992  45.7724990  49.6389997
  62.3169992  46.0524990  48.9789997  63.6219992  45.2114990  47.3819997
  62.9719992  45.7214990  46.6389997  64.6779992  45.4404990  47.1259997
  63.3519992  43.7164990  47.4859997  63.7859992  43.2004990  48.3689997
  62.2459992  43.6184990  47.5139997  64.0019992  42.9634990  46.3389997
  65.1119992  43.0054990  46.3319997  63.7529992  41.8934990  46.5059997
  63.4679992  43.3624990  44.9449997  62.4179992  43.6984990  45.0849997
  64.1159992  44.1434990  44.4929997  63.4239992  42.1744990  44.0189997
  64.4539992  41.7574990  43.9879997  62.6989992  41.4454990  44.4399997
  63.1079992  42.4704990  42.5869997  63.2729992  41.5534990  41.9819997
  62.0039992  42.5994990  42.5739997  63.6869992  43.7194990  41.9609997
  63.1669992  44.5944990  42.4059997  64.7699992  43.8184990  42.1859997
  63.4829992  43.8814990  40.4169997  63.6579992  44.9474990  40.1579997
  64.1449992  43.2664990  39.7709997  62.0449992  43.4354990  39.9789997
  61.7859992  42.4254990  39.3839997  61.1619992  44.3734990  40.3359997
  59.8109992  44.1114990  39.8199997  59.8759992  43.4784990  38.9089997
  59.2319992  43.5654990  40.5949997  59.1169992  45.3604990  39.3179997
  58.0209992  45.1804990  39.3259997  59.3809992  45.7104990  37.8249997
  59.0589992  44.7714990  37.3239997  58.7509992  46.4954990  37.3539997
  60.7259992  45.9454990  37.6229997  61.6059992  45.4924990  36.3519997
  62.9019992  46.3924990  36.3359997  63.6989992  46.6834990  37.5359997
  63.1809992  46.5034990  38.5029997  64.5419992  45.9634990  37.4759997
  64.1549992  48.2104990  37.4629997  64.6599992  48.3984990  38.3989997
  64.8479992  48.3544990  36.6469997  63.0119992  49.1814990  37.4249997
  62.2759992  48.9734990  36.1479997  62.9959992  49.2724990  35.4009997
  62.0169992  47.9294990  36.0469997  61.3519992  49.5314990  36.1929997
  62.0989992  49.2024990  38.5899997  61.8419992  48.1804990  38.8269997
  62.5559992  49.6374990  39.4669997  61.2839992  49.8584990  38.3219997
  63.5879992  50.5604990  37.3069997  64.4629992  50.5544990  36.6749997
  63.8029992  51.0414990  38.2499997  62.8309992  51.1824990  36.8519997
  62.1769992  44.1024990  36.6449997  60.9259992  45.7684990  35.0459997
  59.4679992  46.4794990  40.1629997  58.8949992  46.3474990  41.4169997
  58.1899992  45.4704990  41.9009997  59.0119992  47.5894990  42.2459997
  58.0759992  47.6504990  42.8409997  58.9439992  48.4664990  41.5679997
  60.3549992  47.5044990  43.1229997  61.2009992  47.5854990  42.4079997
  60.5309992  46.5084990  43.5819997  60.4569992  48.6714990  44.1059997
  60.0609992  49.5564990  43.5649997  61.5129992  48.8534990  44.3979997
  59.6949992  48.4414990  45.4469997  58.5939992  48.3444990  45.3279997
  59.7739992  49.3794990  46.0359997  60.1659992  47.2914990  46.3539997
  61.2589992  47.2104990  46.1709997  59.7199992  46.3884990  45.8869997
  59.7619992  47.5474990  47.7869997  60.0709992  48.6024990  47.9469997
  60.3889992  46.9294990  48.4659997  58.2859992  47.3464990  48.0999997
  57.7849992  47.7534990  47.1949997  58.1489992  48.0134990  48.9779997
  57.9889992  45.8584990  48.4279997  57.6849992  45.3244990  47.5149997
  58.2289992  45.2034990  49.5829997  57.8719992  44.1634990  49.6119997
  58.8659992  45.8484990  50.8349997  58.0289992  46.1904990  51.4809997
  59.5019992  46.7514990  50.7139997  59.6569992  44.8384990  51.7019997
  58.9869992  43.9534990  51.7419997  59.6909992  45.3094990  52.7069997
  61.0639992  44.6344990  51.3199997  61.5359992  45.6314990  51.1899997
  61.1939992  44.1654990  50.3219997  61.8539992  43.8234990  52.3819997
  61.5449992  42.7714990  52.2059997  61.4769992  44.0994990  53.3899997
  63.3749992  43.9874990  52.0659997  63.3789992  44.1554990  50.9679997
  63.9369992  43.0824990  52.3809997  63.9469992  45.2354990  52.8139997
  64.0369992  44.9214990  53.8759997  63.2649992  46.1094990  52.7429997
  65.3559992  45.6364990  52.4439997  65.4379992  46.0574990  51.4189997
  66.0369992  44.7894990  52.6749997  65.7779992  46.7684990  53.4189997
  65.8889992  46.3284990  54.4329997  65.0989992  47.6404990  53.3059997
  66.7489992  47.1974990  53.0909997  48.8539992  79.5594990  55.1219997
  49.2199992  79.8654990  54.1179997  49.7189992  79.1974990  55.7159997
  48.4289992  80.4384990  55.6519997  47.8489992  78.4324990  55.0479997
  48.1899992  77.7184990  54.2679997  47.6589992  78.1434990  56.1029997
  46.3959992  78.9344990  54.7389997  45.7539992  78.0454990  54.5609997
  46.0349992  79.5444990  55.5939997  46.4089992  79.7684990  53.4659997
  46.9279992  80.7454990  53.5659997  46.7419992  79.1294990  52.6199997
  45.0769992  80.1684990  53.0249997  44.3119992  79.4424990  53.3749997
  44.7509992  81.1774990  53.3549997  45.0699992  80.3174990  51.4979997
  45.9169992  80.9244990  51.1119997  45.2839992  79.2714990  51.1919997
  43.7449992  80.8244990  50.9209997  43.4919992  81.8504990  51.2619997
  43.7049992  80.9984990  49.8249997  42.5189992  79.9824990  51.3449997
  42.3719992  80.0964990  52.4399997  41.6769992  80.3674990  50.7319997
  42.5449992  78.5454990  50.9319997  43.3829992  77.9664990  51.3759997
  41.6779992  77.9524990  51.2939997  42.5479992  78.2774990  49.4729997
  41.6489992  78.7854990  49.0639997  43.4359992  78.5564990  48.8669997
  42.4079992  76.7294990  49.1729997  43.2619992  76.1394990  49.5689997
  41.4229992  76.3894990  49.5579997  42.4369992  76.4214990  47.6549997
  41.9439992  75.4694990  47.3619997  41.9129992  77.3244990  47.2739997
  43.8399992  76.5434990  47.0389997  44.4569992  77.1914990  47.6969997
  44.4029992  75.5934990  47.1629997  43.8219992  77.0394990  45.5679997
  43.5919992  78.1264990  45.5779997  44.7989992  76.8584990  45.0709997
  42.7149992  76.5194990  44.6019997  42.7189992  75.4104990  44.5319997
  41.6959992  76.8224990  44.9259997  43.0819992  76.9374990  43.1879997
  43.2589992  76.1424990  42.2869997  43.2239992  78.2604990  43.1429997
  43.5619992  78.7624990  41.8459997  43.0589992  78.2374990  41.0059997
  43.2969992  79.8404990  41.8879997  45.1669992  78.6604990  41.5469997
  45.5939992  79.0334990  42.5029997  45.6379992  79.7284990  40.4669997
  44.9139992  80.5684990  40.5349997  46.5549992  80.2584990  40.8019997
  45.5629992  79.1684990  39.1979997  44.5109992  79.4764990  38.1269997
  45.0249992  78.6024990  36.9569997  44.8989992  77.1704990  36.8749997
  45.3319992  76.7964990  37.8279997  43.8179992  76.9474990  37.0029997
  45.6659992  76.5534990  35.7229997  45.2919992  75.5564990  35.5439997
  45.5079992  77.1424990  34.8309997  47.1629992  76.5114990  35.8069997
  47.6909992  77.8624990  36.2409997  47.4379992  78.6284990  35.5229997
  47.2449992  78.0744990  37.2009997  48.7679992  77.8034990  36.2859997
  47.5459992  75.5244990  36.9549997  48.5979992  75.5844990  37.1899997
  47.0199992  75.9324990  37.8049997  47.2309992  74.4994990  36.8279997
  47.7119992  76.1064990  34.5439997  47.1739992  76.7664990  33.8799997
  47.4729992  75.0594990  34.4279997  48.7629992  76.3114990  34.4029997
  43.2289992  78.9024990  38.5209997  44.6259992  80.8044990  37.5249997
  45.4449992  77.2764990  41.2509997  46.7499992  76.9504990  41.0959997
  47.7329992  77.6714990  41.1569997  46.9559992  75.4414990  40.8699997
  47.7759992  75.3424990  40.1269997  45.9979992  75.0334990  40.4819997
  47.2809992  74.8244990  42.2479997  48.0829992  75.4494990  42.6969997
  47.7849992  73.8504990  42.0689997  46.0649992  74.8284990  43.1539997
  45.3249992  74.1374990  42.6949997  45.6079992  75.8314990  43.2889997
  46.2289992  74.3304990  44.6059997  46.5419992  73.2644990  44.5999997
  45.2729992  74.5004990  45.1449997  47.1999992  75.1054990  45.5569997
  46.7719992  76.1144990  45.7389997  48.0019992  75.5374990  44.9209997
  47.7029992  74.3314990  46.7489997  48.4089992  73.5044990  46.5219997
  46.8639992  74.0094990  47.4029997  48.6929992  75.2084990  47.6059997
  49.4989992  75.4894990  46.8949997  49.1959992  74.5054990  48.3049997
  48.2669992  76.5534990  48.1889997  48.1669992  77.2404990  47.3359997
  48.1789992  77.0124990  49.4699997  47.8889992  78.0584990  49.6439997
  48.5109992  76.1954990  50.6499997  48.9599992  76.7774990  51.4819997
  49.1879992  75.3274990  50.5009997  47.2239992  75.5464990  51.2019997
  47.5559992  74.6874990  51.8239997  46.6879992  75.0714990  50.3519997
  46.3299992  76.4394990  51.9709997  46.1319992  77.3794990  51.4119997
  46.9479992  76.7374990  52.8439997  44.9349992  75.8964990  52.3739997
  44.5229992  75.5454990  51.4039997  44.1859992  76.6604990  52.6729997
  44.9689992  74.6794990  53.3089997  45.4319992  74.8364990  54.3069997
  45.5619992  73.8624990  52.8459997  43.5629992  74.1714990  53.6689997
  43.0529992  73.9314990  52.7109997  42.8909992  74.9594990  54.0699997
  43.4509992  72.8574990  54.4539997  42.3789992  72.5984990  54.5829997
  43.8199992  73.2014990  55.4439997  44.2529992  71.7134990  53.7919997
  44.2199992  71.8254990  52.6869997  43.9119992  70.7274990  54.1739997
  45.3079992  71.6594990  54.1369997  50.2279992  81.4124990  53.7639997
  49.5649992  80.5304990  53.8889997  50.5069992  81.3184990  52.6929997
  49.5979992  82.3204990  53.8779997  51.4999992  81.3444990  54.6569997
  52.0719992  82.2834990  54.4949997  51.2779992  81.2224990  55.7389997
  52.6109992  80.2954990  54.3379997  52.8669992  79.8984990  55.3439997
  52.0999992  79.5604990  53.6799997  53.8359992  80.8604990  53.6879997
  54.2589992  81.5354990  54.4629997  54.3879992  79.9734990  53.3109997
  53.5449992  81.6234990  52.3929997  52.7239992  82.3284990  52.6419997
  54.3829992  82.3154990  52.1589997  53.0779992  80.7554990  51.1179997
  53.8889992  80.0964990  50.7399997  52.1799992  80.1354990  51.3269997
  52.5569992  81.5764990  49.9419997  52.1939992  80.8084990  49.2249997
  51.7539992  82.3324990  50.0749997  53.7339992  82.3134990  49.3089997
  53.3039992  83.0304990  48.5779997  54.2699992  82.9984990  49.9999997
  54.8419992  81.5944990  48.5459997  55.3929992  82.3974990  48.0109997
  55.6439992  81.0714990  49.1079997  54.4129992  80.4564990  47.6529997
  53.9839992  79.5584990  48.1459997  53.5839992  80.8464990  47.0239997
  55.4259992  80.0114990  46.5979997  56.2929992  80.6984990  46.4989997
  55.9569992  79.0544990  46.7879997  54.7979992  79.7454990  45.2059997
  55.3989992  79.0494990  44.5819997  53.8989992  79.1124990  45.3669997
  54.4129992  81.0084990  44.4029997  54.4689992  81.8574990  45.1179997
  55.2439992  81.2814990  43.7189997  53.1429992  80.9604990  43.6609997
  52.3559992  80.8084990  44.4299997  52.8839992  81.9594990  43.2479997
  52.9909992  79.9174990  42.6519997  53.5909992  80.0454990  41.7259997
  53.3329992  78.9494990  43.0779997  51.5359992  79.7704990  42.2479997
  50.5529992  79.9064990  42.9329997  51.5359992  79.2514990  40.9309997
  50.3399992  79.5784990  40.2439997  50.2059992  78.7964990  39.4659997
  49.4159992  79.5914990  40.8599997  50.4509992  80.8294990  39.3979997
  49.5969992  80.7634990  38.6899997  51.7509992  80.9004990  38.5309997
  51.9019992  79.8764990  38.1269997  51.5439992  81.6714990  37.7579997
  52.8899992  81.3244990  39.3149997  53.8439992  82.6664990  39.0609997
  54.2719992  82.5984990  37.5889997  53.8589992  83.3474990  36.4729997
  52.7829992  83.0784990  36.4039997  53.9519992  84.4494990  36.5809997
  54.5399992  82.8104990  35.1289997  53.9399992  83.1334990  34.2919997
  55.5289992  83.2214990  34.9899997  54.6189992  81.3454990  34.9789997
  53.3069992  80.6434990  35.2689997  52.9199992  80.7684990  36.2689997
  52.6299992  80.9314990  34.4779997  53.4499992  79.5734990  35.2339997
  54.9449992  80.9804990  33.6189997  54.4369992  81.6214990  32.9149997
  56.0249992  80.9664990  33.6149997  54.7239992  79.9404990  33.4289997
  55.7809992  80.8494990  35.8809997  56.3459992  81.6704990  36.2969997
  56.4599992  80.2314990  35.3129997  55.3689992  80.3564990  36.7489997
  53.1209992  83.9474990  39.2229997  55.0459992  82.4174990  39.9349997
  50.4879992  81.9224990  40.3179997  49.6849992  82.9224990  39.9759997
  48.9999992  83.0434990  38.9749997  49.6359992  83.9354990  41.1719997
  48.7069992  83.6604990  41.7159997  49.5459992  84.9414990  40.7089997
  50.8999992  83.9174990  42.1189997  51.7369992  84.3114990  41.5029997
  51.2169992  82.8944990  42.4149997  50.7029992  84.7734990  43.4749997
  49.9739992  84.1414990  44.0269997  50.1809992  85.7374990  43.2949997
  52.0209992  84.8434990  44.3089997  52.8299992  85.4084990  43.7969997
  52.4419992  83.8284990  44.4689997  51.6139992  85.5934990  45.5669997
  50.9119992  85.0824990  46.2599997  51.2109992  86.5584990  45.1909997
  52.8419992  85.9674990  46.5109997  53.5829992  86.5144990  45.8889997
  53.2869992  85.0474990  46.9469997  52.5239992  86.7524990  47.8099997
  51.6249992  86.2344990  48.2079997  52.1229992  87.6804990  47.3489997
  53.5669992  87.0564990  48.8609997  54.5289992  87.4354990  48.4869997
  53.2639992  86.9564990  50.1629997  53.9599992  87.2004990  50.9789997
  51.8959992  86.5814990  50.6869997  51.7849992  85.4764990  50.6849997
  51.0669992  87.0084990  50.0829997  51.7789992  86.8244990  52.2029997
  50.7239992  86.7334990  52.5379997  52.0479992  87.8834990  52.4059997
  52.7159992  85.9304990  53.0759997  53.7539992  86.0584990  52.6999997
  52.4329992  84.8614990  52.9669997  52.7479992  86.3004990  54.5989997
  51.7169992  86.2464990  55.0079997  53.1059992  87.3454990  54.7209997
  53.7929992  85.4654990  55.3569997  54.7719992  85.9784990  55.4659997
  53.9779992  84.5514990  54.7529997  53.2929992  84.9474990  56.8009997
  52.5069992  84.1974990  56.5719997  52.7979992  85.7974990  57.3179997
  54.4529992  84.4584990  57.6479997  55.2219992  85.2434990  57.4829997
  54.7409992  83.4944990  57.1779997  54.2399992  84.1374990  59.1459997
  55.1429992  83.5944990  59.4989997  53.3399992  83.4864990  59.1739997
  54.0189992  85.0814990  59.6889997  88.2469992  45.8264990  57.3489997
  87.4079992  45.1274990  57.1439997  87.9629992  46.1884990  58.3599997
  89.2519992  45.3564990  57.2999997  88.1589992  46.9574990  56.3299997
  87.2819992  47.5924990  56.5779997  89.0019992  47.5834990  56.6939997
  88.2039992  46.4934990  54.8789997  89.2039992  46.1114990  54.5809997
  87.4949992  45.6594990  54.6889997  87.8929992  47.5704990  53.8429997
  86.9799992  48.0754990  54.2259997  88.6689992  48.3524990  53.9849997
  88.0019992  47.1584990  52.3529997  89.0329992  46.8154990  52.1239997
  87.2809992  46.3234990  52.2249997  87.5349992  48.2324990  51.3979997
  86.5779992  48.7154990  51.6919997  88.1979992  49.1024990  51.5919997
  87.5979992  47.8044990  49.8889997  88.6849992  47.7714990  49.6629997
  87.1869992  46.7984990  49.6609997  86.9669992  48.7784990  48.8949997
  85.9039992  48.9274990  49.1799997  87.6009992  49.6614990  48.6629997
  86.8939992  48.1574990  47.4639997  87.9329992  47.9004990  47.1649997
  86.2239992  47.2734990  47.5289997  86.1889992  49.0964990  46.4909997
  85.2219992  49.5064990  46.8539997  86.9149992  49.9314990  46.3989997
  86.0449992  48.5734990  44.9869997  86.9559992  48.0044990  44.7039997
  85.1869992  47.8814990  44.8449997  85.8679992  49.5414990  43.8619997
  84.9629992  50.1784990  43.9639997  86.6519992  50.3234990  43.9539997
  85.9259992  49.0034990  42.4489997  85.5109992  47.9984990  42.2189997
  85.3469992  49.7564990  41.8729997  87.4259992  48.8854990  41.9839997
  87.8989992  49.8334990  42.3179997  87.7599992  48.1014990  42.6959997
  87.7769992  48.6894990  40.4819997  87.0849992  47.8754990  40.1749997
  87.4269992  49.5924990  39.9359997  89.2899992  48.4584990  40.2169997
  90.2329992  48.6184990  40.9949997  89.3649992  48.1254990  38.9819997
  90.7139992  47.9264990  38.4139997  90.6219992  48.2394990  37.3519997
  91.4779992  48.5694990  38.9019997  91.0679992  46.4544990  38.2539997
  92.0149992  46.3814990  37.6769997  90.0439992  45.6684990  37.4129997
  89.7419992  46.2694990  36.5289997  90.6009992  44.8044990  36.9919997
  88.8629992  45.2244990  38.0889997  87.9689992  43.9864990  37.5679997
  86.5589992  44.6144990  37.4249997  86.3019992  45.7934990  38.1709997
  85.2059992  45.8314990  38.3489997  86.6669992  45.7154990  39.2179997
  86.8669992  47.0544990  37.4579997  86.7249992  47.9314990  38.0729997
  87.9449992  46.9894990  37.4299997  86.2909992  47.4714990  36.0839997
  86.7839992  48.8424990  35.7729997  86.3859992  49.5604990  36.4739997
  87.8619992  48.8844990  35.8369997  86.4359992  49.2494990  34.8349997
  86.8209992  46.5844990  34.9519997  86.4959992  45.5864990  35.2059997
  86.4149992  46.7234990  33.9609997  87.8929992  46.6984990  34.9009997
  84.7389992  47.3204990  36.1139997  84.5109992  46.3434990  36.5119997
  84.3349992  47.5354990  35.1349997  84.3649992  48.0234990  36.8429997
  88.3549992  43.4864990  36.1959997  88.0119992  42.9684990  38.6409997
  91.1629992  45.9104990  39.5639997  91.6539992  44.6934990  39.6519997
  92.1839992  44.0924990  38.7629997  91.8519992  44.3714990  41.1499997
  91.9159992  45.2614990  41.8109997  92.8089992  43.8124990  41.2369997
  90.7899992  43.3254990  41.6799997  91.0819992  42.9154990  42.6699997
  90.6869992  42.4104990  41.0579997  89.3219992  43.8914990  41.8839997
  88.6399992  43.1034990  42.2699997  89.0439992  44.2794990  40.8809997
  89.1879992  45.1164990  42.8419997  88.1729992  45.5384990  42.6809997
  89.8229992  46.0014990  42.6259997  89.5539992  44.6614990  44.2849997
  89.4499992  45.5394990  44.9589997  90.5819992  44.2404990  44.3139997
  88.5689992  43.6314990  44.8559997  88.8999992  42.6144990  44.5549997
  87.5309992  43.7284990  44.4709997  88.4869992  43.6384990  46.3869997
  87.8429992  42.8054990  46.7439997  88.0999992  44.6074990  46.7699997
  89.7569992  43.5574990  47.1159997  90.6539992  43.9564990  46.6209997
  89.9989992  42.9044990  48.2469997  91.0079992  43.0464990  48.6619997
  89.0669992  42.0374990  49.2039997  89.5869992  41.0684990  49.3629997
  88.0269992  41.9484990  48.8229997  88.9929992  42.6674990  50.6369997
  88.4929992  41.9104990  51.2779997  88.2589992  43.4994990  50.5819997
  90.3349992  43.0474990  51.2889997  90.7459992  43.8274990  50.6129997
  90.9669992  42.1414990  51.4039997  90.3479992  43.7074990  52.6749997
  89.3769992  44.2064990  52.8829997  91.1879992  44.4354990  52.6779997
  90.5819992  42.7254990  53.8919997  91.4289992  42.0354990  53.6909997
  89.7029992  42.0464990  53.8679997  90.6439992  43.4144990  55.2539997
  90.2839992  42.7144990  56.0379997  89.8799992  44.2204990  55.2529997
  92.0379992  44.0364990  55.7209997  92.7659992  43.2174990  55.9079997
  91.8199992  44.5174990  56.6979997  92.5939992  45.0414990  54.8159997
  92.9919992  44.5654990  53.8939997  93.4549992  45.6144990  55.2229997
  91.7499992  45.7114990  54.5479997  90.5609992  87.6424990  56.2879997
  90.5199992  86.5654990  56.0199997  89.6509992  87.9854990  56.8269997
  91.4449992  87.7904990  56.9439997  90.5399992  88.3524990  54.8939997
  89.6339992  87.9944990  54.3589997  90.4249992  89.4484990  55.0379997
  91.7529992  88.1054990  54.0639997  92.5789992  88.7094990  54.4959997
  92.1119992  87.0694990  54.2399997  91.5509992  88.2344990  52.5319997
  91.1139992  89.1894990  52.1719997  92.5889992  88.2364990  52.1349997
  90.8739992  86.9364990  51.9739997  91.3929992  86.0464990  52.3909997
  89.8609992  86.9014990  52.4289997  90.7089992  86.9184990  50.4269997
  90.0239992  87.7594990  50.1859997  91.6559992  86.9404990  49.8479997
  90.0469992  85.6254990  50.0469997  90.8039992  84.8274990  49.8919997
  89.4169992  85.3304990  50.9139997  89.0249992  85.9464990  48.8909997
  88.4819992  84.9954990  48.7049997  88.4539992  86.7984990  49.3179997
  89.7149992  86.3134990  47.5379997  90.5439992  87.0424990  47.6609997
  90.0399992  85.3294990  47.1379997  88.7619992  86.9064990  46.5699997
  87.8239992  86.3114990  46.5329997  88.5459992  87.9554990  46.8649997
  89.3629992  87.1164990  45.1399997  90.0559992  87.9814990  45.2029997
  90.0859992  86.2964990  44.9419997  88.3409992  87.3644990  44.1109997
  87.5439992  86.6004990  43.9809997  87.8389992  88.2884990  44.4679997
  88.7759992  87.6074990  42.6869997  89.7479992  88.1404990  42.6129997
  89.0189992  86.5884990  42.3159997  87.5839992  87.9894990  41.8369997
  86.8399992  87.1774990  41.9839997  87.0659992  88.9264990  42.1329997
  87.9149992  87.9544990  40.3329997  88.3819992  86.9754990  40.0909997
  86.9749992  88.0884990  39.7559997  88.7959992  89.1174990  39.9939997
  89.2219992  89.8764990  40.7739997  88.9799992  89.1044990  38.6939997
  89.8409992  90.0504990  38.0769997  89.7959992  90.0564990  36.9669997
  89.5699992  91.0904990  38.3579997  91.3019992  89.5664990  38.3019997
  91.8149992  90.2304990  37.5739997  91.3439992  88.0784990  37.9059997
  90.9309992  87.2904990  38.5709997  90.7489992  87.9304990  36.9789997
  92.7329992  87.9704990  37.4119997  93.6619992  86.8554990  38.1159997
  93.6109992  85.5874990  37.1329997  93.2199992  85.7594990  35.8139997
  92.3959992  86.4994990  35.7289997  94.0549992  86.0774990  35.1529997
  92.6199992  84.4244990  35.2309997  92.2019992  84.6114990  34.2539997
  93.4759992  83.7664990  35.2759997  91.4419992  83.8304990  36.1079997
  91.9519992  83.0434990  37.2689997  92.3679992  82.1224990  36.8879997
  92.7549992  83.5874990  37.7439997  91.0759992  82.9434990  37.8929997
  90.4799992  84.8134990  36.6729997  91.1179992  85.5684990  37.1089997
  89.8949992  85.3064990  35.9109997  89.7789992  84.5584990  37.4549997
  90.7439992  82.9684990  35.0599997  89.8839992  82.4214990  35.4179997
  91.5299992  82.2894990  34.7649997  90.5029992  83.6004990  34.2189997
  95.0719992  87.3114990  38.2889997  93.0539992  86.3994990  39.3669997
  91.7589992  89.7274990  39.6659997  92.9229992  90.3144990  39.9149997
  93.8549992  90.5064990  39.1629997  92.9089992  90.6904990  41.3929997
  92.1539992  91.4874990  41.5599997  93.9119992  91.1114990  41.6179997
  92.4969992  89.5424990  42.3639997  91.6299992  88.8984990  42.1029997
  92.2339992  90.0184990  43.3329997  93.5899992  88.4224990  42.8139997
  94.4269992  89.1374990  42.9589997  93.8839992  87.8384990  41.9159997
  93.3049992  87.4934990  43.9649997  92.6819992  86.6554990  43.5859997
  92.5509992  87.9264990  44.6559997  94.4409992  86.8634990  44.7779997
  95.0199992  87.6084990  45.3639997  95.1429992  86.5054990  43.9939997
  93.9569992  85.7954990  45.7119997  93.2719992  85.1364990  45.1379997
  93.4279992  86.3124990  46.5409997  95.0109992  84.9064990  46.4189997
  95.5379992  84.2744990  45.6719997  94.5709992  84.2954990  47.2359997
  96.1279992  85.6494990  47.1029997  97.0809992  85.3854990  46.6199997
  96.0739992  86.4684990  48.1109997  97.0269992  87.0024990  48.2389997
  94.8369992  86.9304990  48.8799997  93.9169992  87.1454990  48.2959997
  95.0219992  87.8424990  49.4879997  94.3709992  85.8374990  49.9329997
  94.1839992  84.8944990  49.3769997  93.4029992  86.1684990  50.3659997
  95.3059992  85.5264990  51.1009997  96.2549992  85.1394990  50.6729997
  94.9479992  84.6334990  51.6569997  95.7069992  86.7484990  52.0349997
  94.7439992  87.0784990  52.4799997  96.2369992  87.5004990  51.4109997
  96.5469992  86.3454990  53.2429997  97.5679992  85.9204990  53.1349997
  95.9539992  85.5104990  53.6729997  96.6199992  87.5474990  54.2359997
  95.7599992  88.1954990  53.9619997  97.5459992  88.1554990  54.1559997
  96.4019992  87.2554990  55.7519997  95.3369992  86.9974990  55.9379997
  96.7369992  88.1804990  56.2679997  97.2459992  86.0474990  56.2259997
  96.6799992  85.1834990  55.8159997  97.2169992  85.9274990  57.3299997
  98.2399992  86.0714990  55.7319997  50.9429992  49.4234990  54.8829997
  51.6509992  49.0424990  55.6499997  49.9569992  49.4244990  55.3949997
  51.2049992  50.4834990  54.6799997  50.9759992  48.6734990  53.5559997
  50.9359992  47.5744990  53.7129997  50.1019992  48.9494990  52.9279997
  52.3249992  48.8534990  52.7579997  52.3889992  49.9574990  52.6479997
  53.1739992  48.3714990  53.2879997  52.2399992  48.1824990  51.3839997
  53.1759992  48.3374990  50.8059997  52.2459992  47.0964990  51.6199997
  51.0419992  48.6094990  50.5879997  50.8289992  47.9224990  49.7409997
  50.1099992  48.4904990  51.1809997  51.1589992  49.9934990  49.8759997
  51.2649992  50.7374990  50.6939997  52.0619992  50.0474990  49.2309997
  49.9749992  50.4754990  49.0299997  49.6109992  49.5694990  48.4989997
  49.0799992  50.7224990  49.6399997  50.2039992  51.6664990  48.0429997
  49.2099992  52.1404990  47.8979997  50.8479992  52.4134990  48.5549997
  50.8779992  51.4254990  46.6149997  51.9759992  51.5464990  46.7349997
  50.6969992  50.3594990  46.3599997  50.2779992  52.3644990  45.5689997
  49.2259992  52.0284990  45.4459997  50.2559992  53.4494990  45.8029997
  50.8809992  52.1424990  44.1899997  50.7569992  53.1174990  43.6719997
  51.9629992  51.8924990  44.2069997  50.1659992  51.1194990  43.3179997
  50.0269992  50.1764990  43.8889997  49.1089992  51.4374990  43.1889997
  50.7849992  50.8944990  41.8679997  51.7599992  50.4104990  42.0919997
  50.1579992  50.1334990  41.3569997  51.0409992  52.1194990  40.9799997
  50.1259992  52.7454990  40.9009997  51.6729992  52.9104990  41.4369997
  51.6229992  51.7544990  39.6159997  51.1389992  50.8964990  39.1019997
  51.4229992  52.5184990  38.8349997  53.0829992  51.4194990  39.6189997
  53.8529992  51.3524990  40.6429997  53.4329992  51.2544990  38.4169997
  54.8449992  50.8854990  38.2099997  55.0349992  51.2164990  37.1669997
  55.5119992  51.3254990  38.9819997  54.9539992  49.3784990  38.2079997
  55.9819992  49.1314990  37.8679997  53.9519992  48.7944990  37.1839997
  53.9839992  49.4934990  36.3219997  54.4789992  47.8594990  36.8959997
  52.6189992  48.5504990  37.7699997  51.7809992  47.6904990  36.7829997
  50.3929992  47.7684990  37.3989997  49.5789992  46.5894990  37.7239997
  49.5739992  45.9514990  36.8149997  50.0119992  46.1084990  38.6269997
  48.1269992  47.0724990  37.8989997  47.4629992  46.2314990  38.0339997
  48.2459992  47.5264990  38.8709997  47.4959992  48.0064990  36.9069997
  48.2489992  49.3134990  36.6959997  49.3009992  49.1924990  36.4829997
  47.9079992  49.9634990  35.9039997  48.2599992  49.9424990  37.5739997
  47.4809992  47.3674990  35.5129997  48.4909992  47.1284990  35.2139997
  47.0259992  46.3884990  35.4749997  46.9979992  48.0394990  34.8189997
  46.1829992  48.1594990  37.4859997  45.6709992  48.8134990  36.7949997
  46.1359992  48.7264990  38.4039997  45.8139992  47.1444990  37.5079997
  51.8169992  48.3914990  35.4899997  52.3489992  46.3114990  36.8059997
  54.8049992  48.8504990  39.5019997  54.9579992  47.5184990  39.5989997
  55.3979992  46.8334990  38.7179997  54.7049992  47.1014990  41.0259997
  55.5929992  47.2424990  41.6779997  54.4929992  46.0214990  41.1799997
  53.6059992  48.0154990  41.7599997  52.9389992  48.1614990  40.8839997
  54.0409992  48.9904990  42.0679997  52.7969992  47.3444990  42.9039997
  52.0419992  46.6094990  42.5529997  52.2899992  48.2394990  43.3219997
  53.6779992  46.8224990  44.0149997  54.5869992  47.4394990  44.1779997
  54.1709992  45.8644990  43.7429997  52.9769992  46.7164990  45.3649997
  52.1349992  45.9994990  45.2579997  52.4319992  47.6394990  45.6549997
  53.9459992  46.3424990  46.4419997  54.6079992  47.2304990  46.5299997
  54.4109992  45.3954990  46.0949997  53.2999992  46.1364990  47.8239997
  52.5809992  46.9664990  47.9919997  53.9969992  46.4364990  48.6349997
  52.6799992  44.8424990  48.0329997  51.9089992  44.5914990  47.2889997
  53.0739992  43.9214990  48.9319997  52.4639992  43.0064990  48.9589997
  54.2559992  44.0804990  49.8219997  55.0829992  44.7024990  49.4189997
  54.7599992  43.0974990  49.9419997  54.0809992  44.5814990  51.2769997
  53.3679992  45.4324990  51.2329997  55.1059992  44.8274990  51.6309997
  53.5579992  43.4574990  52.1769997  54.4569992  42.9834990  52.6259997
  52.9459992  42.7384990  51.5909997  52.7509992  43.8954990  53.3729997
  52.2789992  43.0404990  53.9009997  51.8689992  44.4604990  53.0029997
  53.4789992  44.7134990  54.4629997  54.0459992  45.5924990  54.0879997
  54.3179992  44.1284990  54.8969997  52.5229992  45.2144990  55.5949997
  52.2289992  44.3914990  56.2809997  51.5989992  45.4744990  55.0359997
  53.1439992  46.4174990  56.3409997  53.3709992  47.1924990  55.5779997
  54.1199992  46.1674990  56.8089997  52.2999992  46.8654990  57.5089997
  52.8549992  47.5324990  58.2029997  51.9219992  45.9024990  57.9149997
  51.4229992  47.4434990  57.1489997  95.1289992  82.5494990  54.2869997
  95.8339992  83.2054990  53.7339997  95.0889992  82.7624990  55.3769997
  94.1329992  82.8004990  53.8639997  95.5249992  81.1224990  54.0199997
  96.5349992  81.1934990  54.4769997  94.9329992  80.5054990  54.7299997
  95.4809992  80.5114990  52.6439997  94.4009992  80.4274990  52.3999997
  95.8899992  81.1094990  51.8009997  96.2239992  79.1744990  52.7049997
  97.2909992  79.2464990  53.0049997  95.8409992  78.5034990  53.5039997
  96.0629992  78.3144990  51.4429997  96.5379992  77.3294990  51.6369997
  94.9669992  78.2614990  51.2749997  96.9259992  78.7354990  50.2629997
  96.6719992  78.1374990  49.3619997  96.6729992  79.7454990  49.8749997
  98.4709992  78.3494990  50.3439997  98.9239992  78.9194990  51.1829997
  98.4949992  77.2684990  50.5999997  99.2889992  78.5714990  49.0159997
 100.3349992  78.2714990  49.2439997  98.8969992  77.9504990  48.1819997
  99.3819992  80.0604990  48.7039997  98.4129992  80.5484990  48.9439997
 100.1229992  80.4634990  49.4269997  99.9309992  80.3414990  47.3309997
  99.8769992  81.4474990  47.2399997 100.9829992  80.0094990  47.2059997
  99.1229992  79.7394990  46.1599997  99.3129992  78.6484990  46.0809997
  98.0349992  79.8914990  46.3289997  99.4619992  80.4064990  44.7539997
  99.4339992  81.5154990  44.8229997 100.5029992  80.0634990  44.5759997
  98.7069992  79.9724990  43.4749997  97.9339992  80.7004990  43.1509997
  99.4789992  79.8324990  42.6879997  97.8219992  78.6834990  43.3949997
  98.4389992  77.8674990  43.8259997  96.9609992  78.7264990  44.0959997
  97.4379992  78.3554990  41.8999997  98.3399992  78.4824990  41.2649997
  97.2279992  77.2694990  41.7939997  96.2629992  79.2074990  41.4269997
  95.5749992  79.9154990  42.1139997  96.1939992  79.1244990  40.0889997
  95.3429992  80.1814990  39.5699997  94.9129992  79.9194990  38.5789997
  94.4189992  80.3214990  40.1699997  96.1169992  81.5244990  39.2769997
  95.4219992  82.1394990  38.6659997  97.4029992  81.2454990  38.3779997
  97.3529992  80.3814990  37.6809997  97.5329992  82.0694990  37.6429997
  98.5819992  81.1504990  39.2859997  99.7219992  80.2034990  38.9459997
 100.4309992  81.1304990  37.8839997 101.2109992  80.6284990  36.7859997
 102.2399992  80.3834990  37.1239997 100.7769992  79.6614990  36.4519997
 101.3259992  81.4384990  35.4329997 102.0459992  82.2154990  35.6419997
 101.5889992  80.7194990  34.6699997 100.1349992  82.2464990  35.0499997
 100.0889992  83.3604990  35.9769997 100.8639992  84.0914990  35.7969997
  99.2779992  83.9994990  35.6609997 100.1519992  83.0864990  37.0199997
 100.4399992  82.8064990  33.6569997 100.7799992  81.9494990  33.0949997
  99.5429992  83.2544990  33.2559997 101.2859992  83.4744990  33.7219997
  98.9259992  81.3684990  34.9749997  99.1899992  80.6964990  34.1709997
  98.0799992  82.0104990  34.7799997  98.7899992  80.9224990  35.9489997
 100.5469992  80.0364990  40.1769997  99.3309992  78.9044990  38.3009997
  96.3639992  82.1014990  40.5329997  96.8849992  83.3324990  40.6389997
  97.2409992  84.0114990  39.7009997  97.1739992  83.6404990  42.1039997
  97.7959992  82.8244990  42.5289997  96.1969992  83.7224990  42.6259997
  98.1229992  84.7904990  42.2409997  98.2019992  85.0844990  43.3089997
  97.8359992  85.7034990  41.6759997  99.5899992  84.6014990  41.8369997
 100.0289992  85.5504990  42.2129997  99.7019992  84.5624990  40.7319997
 100.4079992  83.4034990  42.4369997 100.2009992  82.4024990  42.0009997
 100.2089992  83.3224990  43.5269997 101.9659992  83.5724990  42.2869997
 102.1439992  84.6654990  42.3809997 102.2609992  83.2234990  41.2739997
 102.8889992  82.9364990  43.3769997 103.9389992  83.2004990  43.1299997
 102.8909992  81.8264990  43.3349997 102.7779992  83.3934990  44.8319997
 103.5219992  82.8634990  45.4639997 101.7559992  83.0844990  45.1379997
 102.8589992  84.8664990  45.1089997 103.8409992  85.3444990  44.9759997
 101.9439992  85.5824990  45.7179997 102.2509992  86.6304990  45.8549997
 100.5749992  85.2814990  46.2299997 100.0509992  84.4774990  45.6709997
  99.8849992  86.1484990  46.1459997 100.5199992  84.9764990  47.6649997
  99.5499992  84.5004990  47.9259997 100.4669992  85.9344990  48.2239997
 101.6259992  84.0424990  48.2309997 102.5809992  84.6094990  48.2559997
 101.6609992  83.2644990  47.4389997 101.2919992  83.3784990  49.5749997
 101.8489992  82.4184990  49.5829997 100.2079992  83.1894990  49.7309997
 101.7829992  84.2654990  50.7579997 101.3819992  85.2804990  50.5529997
 102.8739992  84.4664990  50.7969997 101.5119992  83.6404990  52.1699997
 101.8529992  82.5844990  52.1059997 100.4059992  83.5364990  52.2119997
 102.0289992  84.3214990  53.3929997 101.3259992  84.1104990  54.2269997
 101.9499992  85.4234990  53.2709997 103.4339992  83.9374990  53.9089997
 104.1169992  83.9854990  53.0349997 103.4969992  82.8764990  54.2309997
 103.7939992  84.6454990  54.6859997 109.0259992  65.5504990  54.0889997
 108.9819992  64.7334990  53.3379997 107.9729992  65.8004990  54.3379997
 109.6359992  65.1624990  54.9329997 109.7169992  66.8044990  53.5289997
 109.8489992  67.5984990  54.2939997 110.7519992  66.5814990  53.1919997
 109.0379992  67.5774990  52.3339997 108.8659992  68.6394990  52.6109997
 109.7789992  67.6744990  51.5109997 107.7429992  66.9604990  51.7339997
 107.8599992  65.8554990  51.7059997 106.8639992  67.0414990  52.4089997
 107.2539992  67.5764990  50.4149997 106.4539992  66.9304990  49.9949997
 106.9159992  68.6334990  50.4689997 108.2999992  67.5244990  49.2569997
 107.6279992  67.6924990  48.3879997 109.0829992  68.3114990  49.2989997
 108.9469992  66.1574990  49.1369997 109.7079992  65.8904990  49.9009997
 108.1039992  65.4394990  49.2319997 109.5979992  65.8314990  47.8079997
 109.7419992  64.7464990  47.6189997 108.8729992  66.2254990  47.0639997
 110.9589992  66.4784990  47.6129997 110.8109992  67.5744990  47.7149997
 111.6479992  66.1754990  48.4299997 111.6319992  66.1524990  46.3029997
 112.4129992  66.9374990  46.2179997 112.1279992  65.1584990  46.2629997
 110.7329992  66.1474990  44.9809997 111.4539992  65.9694990  44.1539997
 109.9439992  65.3664990  44.9919997 110.0729992  67.5034990  44.7149997
 109.2739992  67.6714990  45.4689997 110.9199992  68.2074990  44.8559997
 109.4889992  67.5354990  43.2339997 110.2449992  67.3844990  42.4339997
 108.7909992  66.6714990  43.1859997 108.7639992  68.8194990  43.0439997
 107.9399992  68.8904990  43.7859997 109.4879992  69.6324990  43.2639997
 108.1049992  68.9834990  41.6819997 107.6099992  69.9484990  41.4389997
 108.8199992  68.8304990  40.8459997 106.9429992  67.9394990  41.4819997
 106.4549992  67.1374990  42.3669997 106.5909992  67.8184990  40.2269997
 105.4879992  67.0134990  39.8629997 105.6849992  65.9264990  39.9819997
 104.6709992  67.2604990  40.5739997 105.1639992  67.3354990  38.3579997
 104.0679992  67.2024990  38.2309997 105.9639992  66.3964990  37.4219997
 106.0069992  65.3664990  37.8339997 105.4629992  66.2284990  36.4449997
 107.3179992  66.8424990  37.2569997 108.2309992  66.6914990  36.1229997
 109.2179992  67.9354990  36.2749997 108.8749992  69.3064990  35.8919997
 109.4549992  69.6124990  34.9949997 107.8109992  69.3424990  35.5749997
 108.8799992  70.2554990  37.0999997 108.6419992  71.2544990  36.7669997
 108.1379992  70.0804990  37.8649997 110.1579992  70.3694990  37.9119997
 111.4089992  70.5344990  37.0219997 111.3889992  71.4464990  36.4449997
 112.2929992  70.5414990  37.6419997 111.3679992  69.6334990  36.4269997
 110.1749992  71.5634990  38.8959997 109.7179992  71.2784990  39.8329997
 111.2169992  71.6524990  39.1669997 109.7229992  72.4364990  38.4479997
 110.3079992  69.1434990  38.7729997 109.4249992  68.9294990  39.3579997
 111.1439992  69.2984990  39.4379997 110.6539992  68.3754990  38.0979997
 108.9639992  65.4064990  36.3649997 107.4619992  66.8664990  34.8569997
 105.5319992  68.6554990  37.9529997 104.8009992  69.6534990  38.4449997
 103.8849992  69.5374990  39.2559997 105.3359992  71.0274990  37.9199997
 104.9639992  71.0674990  36.8739997 106.4409992  71.1074990  38.0029997
 104.6879992  72.1174990  38.7469997 103.6039992  71.9784990  38.9479997
 104.8829992  73.0974990  38.2619997 105.4169992  72.2964990  40.1359997
 105.4709992  73.3764990  40.3899997 106.4499992  71.8874990  40.1359997
 104.6099992  71.6314990  41.3549997 104.8309992  70.5424990  41.3459997
 103.5319992  71.7344990  41.1059997 104.8629992  72.1814990  42.7479997
 104.5289992  73.2374990  42.8369997 105.9249992  72.2074990  43.0719997
 104.2959992  71.1604990  43.8319997 104.5969992  70.1044990  43.6579997
 103.2019992  71.2894990  43.6879997 104.4869992  71.8664990  45.2439997
 103.7559992  71.3784990  45.9239997 104.1549992  72.9144990  45.0819997
 105.9059992  71.7834990  45.7289997 106.6789992  71.7734990  44.9469997
 106.3499992  71.5614990  46.9909997 107.4399992  71.5034990  47.1269997
 105.5969992  71.3324990  48.2479997 105.8909992  70.4184990  48.8069997
 104.5249992  71.2084990  47.9809997 105.7019992  72.4964990  49.2659997
 105.5849992  73.4934990  48.7899997 106.7199992  72.4434990  49.7069997
 104.5659992  72.4584990  50.2719997 103.6149992  72.7304990  49.7669997
 104.6319992  73.1654990  51.1269997 104.4169992  71.0634990  51.0059997
 104.2209992  70.2684990  50.2549997 103.5449992  71.1764990  51.6839997
 105.6349992  70.4594990  51.6809997 106.5069992  70.5234990  50.9959997
 105.6089992  69.3504990  51.7549997 106.0159992  71.2154990  52.9639997
 105.1829992  71.1014990  53.6899997 106.1809992  72.2724990  52.6629997
 107.2959992  70.7094990  53.6629997 108.1839992  70.9824990  53.0539997
 107.2299992  69.6024990  53.7389997 107.5399992  71.3674990  55.0139997
 108.5479992  71.1324990  55.4189997 106.7889992  70.9144990  55.6959997
 107.4399992  72.4454990  54.7669997  62.2089992 100.0594990  53.7799997
  62.9149992 100.7504990  54.2889997  62.6779992  99.1614990  53.3239997
  61.4739992  99.6704990  54.5169997  61.5039992 100.7974990  52.6909997
  60.9449992 101.5384990  53.3009997  62.2209992 101.3934990  52.0869997
  60.5599992  99.8754990  51.9099997  61.1829992  99.1164990  51.3909997
  60.1089992  99.2474990  52.7069997  59.5629992 100.6284990  51.0179997
  59.1309992 101.3794990  51.7149997  60.1849992 100.8774990  50.1319997
  58.5089992  99.5984990  50.6369997  58.9479992  98.6204990  50.3439997
  57.9229992  99.4714990  51.5719997  57.5529992 100.0974990  49.5789997
  57.1299992 101.0624990  49.9319997  58.1809992 100.2584990  48.6769997
  56.4149992  99.1354990  49.2149997  56.4489992  98.4384990  50.0799997
  55.3609992  99.4844990  49.2509997  56.6979992  98.3404990  47.9749997
  56.9929992  99.0844990  47.2039997  57.5739992  97.6794990  48.1489997
  55.5659992  97.4454990  47.4749997  55.4299992  96.6364990  48.2249997
  54.6129992  98.0174990  47.5119997  55.8259992  96.6484990  46.2059997
  55.2269992  95.7134990  46.1869997  55.4749992  97.3924990  45.4589997
  57.2289992  96.2844990  45.7949997  57.7609992  97.2564990  45.7039997
  57.6529992  95.6694990  46.6169997  57.4129992  95.4764990  44.4929997
  58.2579992  94.7554990  44.4699997  56.5039992  94.8374990  44.5189997
  57.3509992  96.2494990  43.1019997  56.4569992  96.9014990  43.1999997
  58.2289992  96.9084990  42.9289997  57.1189992  95.2454990  42.0049997
  57.9369992  94.4974990  42.0889997  56.1919992  94.6494990  41.8659997
  57.4209992  95.8914990  40.6719997  58.3769992  96.4474990  40.7789997
  57.5259992  95.0754990  39.9259997  56.2749992  96.8284990  40.2299997
  55.2779992  96.9174990  40.9469997  56.5149992  97.4364990  39.0339997
  55.6579992  98.4344990  38.4959997  55.4979992  98.3904990  37.3969997
  54.6629992  98.4784990  38.9889997  56.3229992  99.8164990  38.8299997
  55.5049992 100.5424990  38.6309997  57.5459992 100.1274990  37.9119997
  57.2449992  99.6234990  36.9689997  57.7779992 101.1914990  37.6959997
  58.7179992  99.4934990  38.4079997  60.0119992  99.3884990  37.4279997
  59.9799992  97.8854990  36.9599997  59.1799992  97.4504990  35.8859997
  58.6149992  98.3054990  35.4589997  59.7439992  97.1474990  34.9779997
  58.2039992  96.3524990  36.3839997  57.6889992  96.6794990  37.2749997
  57.4689992  96.3094990  35.5929997  58.7989992  95.0314990  36.6579997
  57.6499992  93.9804990  36.8439997  56.7619992  94.3984990  36.3949997
  58.0489992  93.0064990  36.6009997  57.3209992  93.8654990  37.8659997
  59.6899992  94.6044990  35.5139997  59.9519992  93.5574990  35.5429997
  59.1559992  94.8564990  34.6099997  60.5439992  95.2654990  35.5349997
  59.5339992  95.0324990  37.9429997  58.7379992  95.2224990  38.6479997
  60.1559992  95.9134990  37.9919997  59.9789992  94.0694990  38.1429997
  59.8819992 100.1874990  36.1739997  61.1959992  99.6594990  38.2709997
  56.6109992  99.7754990  40.2399997  57.0899992 100.8674990  40.7459997
  57.1089992 101.9694990  40.1879997  57.7169992 100.5694990  42.0669997
  56.9789992 100.1904990  42.8059997  58.1279992 101.5214990  42.4669997
  58.8219992  99.5354990  41.8739997  59.5169992  99.8464990  41.0649997
  58.4519992  98.5904990  41.4209997  59.6069992  99.3754990  43.2279997
  58.8689992  98.8134990  43.8409997  59.9799992 100.2894990  43.7359997
  60.8139992  98.3834990  42.9589997  61.5559992  98.8324990  42.2639997
  60.4619992  97.4194990  42.5329997  61.3639992  98.0204990  44.3459997
  60.7319992  97.2814990  44.8839997  61.5069992  98.9204990  44.9809997
  62.7879992  97.4594990  44.1769997  63.5539992  98.2444990  43.9999997
  62.8539992  96.7464990  43.3269997  63.3349992  96.7384990  45.4429997
  64.4449992  96.7324990  45.3929997  62.9879992  95.6834990  45.4299997
  62.9689992  97.2834990  46.8359997  63.3259992  98.3074990  47.0179997
  62.4299992  96.6504990  47.8909997  62.3469992  97.1524990  48.8669997
  62.0389992  95.2134990  48.0739997  62.1599992  94.8134990  49.1029997
  62.3349992  94.6074990  47.1909997  60.4659992  95.1474990  48.0749997
  60.0719992  94.1084990  48.0779997  59.9919992  95.5334990  47.1469997
  59.8109992  95.9674990  49.1569997  59.5189992  96.9904990  48.8359997
  60.5139992  96.1124990  50.0049997  58.5379992  95.3344990  49.7599997
  58.7419992  94.2514990  49.9039997  57.7979992  95.2864990  48.9329997
  58.0159992  95.9444990  51.0759997  57.8249992  97.0294990  50.9269997
  59.0079992  95.8724990  51.5709997  56.9179992  95.1264990  51.7869997
  56.2419992  94.5824990  51.0929997  56.2929992  95.8094990  52.3989997
  57.4349992  94.0974990  52.8919997  58.1789992  93.4954990  52.3289997
  56.5479992  93.4704990  53.1289997  58.0329992  94.8644990  54.0479997
  58.8479992  95.4914990  53.6279997  58.3189992  94.1364990  54.8359997
  57.3469992  95.5674990  54.5669997  42.1979992  53.5714990  54.8109997
  41.4739992  54.2854990  54.3649997  43.1379992  54.1374990  54.9799997
  41.9119992  53.2124990  55.8229997  42.5269992  52.3744990  53.9539997
  43.3069992  51.7644990  54.4589997  41.7309992  51.6034990  53.8809997
  43.1479992  52.7154990  52.6169997  42.3789992  53.2454990  52.0139997
  44.0729992  53.3304990  52.6259997  43.6799992  51.4034990  51.9489997
  44.3159992  51.6654990  51.0769997  44.3609992  50.7984990  52.5849997
  42.4679992  50.4974990  51.5019997  42.0399992  49.8164990  52.2679997
  41.7039992  51.2424990  51.1919997  42.8999992  49.6054990  50.3259997
  43.4889992  50.1674990  49.5689997  43.6049992  48.8574990  50.7459997
  41.5989992  48.8704990  49.6179997  41.2099992  48.1094990  50.3269997
  40.8419992  49.6634990  49.4339997  41.8739992  48.0654990  48.2899997
  42.5759992  47.2144990  48.4239997  40.8799992  47.6374990  48.0399997
  41.9959992  48.8624990  46.9789997  41.6939992  48.1164990  46.2129997
  41.1799992  49.5974990  47.1489997  43.3639992  49.4764990  46.6819997
  43.6469992  50.0744990  47.5749997  44.2049992  48.7804990  46.4809997
  43.3279992  50.4134990  45.4879997  42.7859992  49.7674990  44.7649997
  42.7339992  51.3044990  45.7859997  44.7469992  50.8324990  44.9949997
  45.0469992  51.8094990  45.4299997  45.4169992  49.9924990  45.2769997
  44.8939992  50.9904990  43.4859997  44.0129992  51.6464990  43.3159997
  45.8449992  51.4994990  43.2199997  44.8379992  49.7314990  42.7589997
  45.7799992  49.1654990  42.9219997  43.9599992  49.1234990  43.0659997
  44.6919992  50.1244990  41.2439997  43.9069992  50.9094990  41.1979997
  45.6749992  50.5064990  40.8939997  44.2079992  48.9114990  40.4279997
  44.0509992  47.7674990  40.8579997  43.9469992  49.3154990  39.2169997
  43.8319992  48.2594990  38.1799997  44.7479992  48.2054990  37.5539997
  43.6969992  47.2194990  38.5459997  42.6689992  48.5264990  37.2219997
  42.5809992  47.6144990  36.5939997  43.0489992  49.7184990  36.2539997
  43.3909992  50.6264990  36.7949997  43.8689992  49.3294990  35.6139997
  41.8419992  50.0324990  35.4999997  41.4119992  51.4984990  35.3299997
  40.4839992  51.7074990  36.4979997  39.4469992  52.6824990  36.4379997
  39.0849992  53.0424990  35.4519997  38.5529992  52.2404990  36.9289997
  39.8689992  54.0904990  37.1799997  40.6969992  54.4784990  36.6049997
  38.9869992  54.6974990  37.0379997  40.3779992  54.0534990  38.6219997
  41.5689992  53.1714990  38.6809997  42.0059992  53.1514990  39.6689997
  41.1799992  52.1884990  38.4609997  42.3429992  53.4334990  37.9739997
  40.6689992  55.4734990  39.1559997  40.9799992  55.3724990  40.1859997
  41.3599992  55.9784990  38.4979997  39.7379992  56.0124990  39.0619997
  39.3709992  53.6184990  39.5389997  39.6369992  53.7424990  40.5779997
  39.0659992  52.5944990  39.3829997  38.5039992  54.2454990  39.3969997
  42.5779992  52.3924990  35.4449997  40.6139992  51.6824990  34.0819997
  41.5489992  48.7884990  38.1099997  40.4279992  48.1044990  37.8889997
  40.2899992  47.2044990  37.0759997  39.3029992  48.5884990  38.7589997
  38.8929992  47.7454990  39.3549997  38.4379992  48.8924990  38.1309997
  39.7279992  49.7294990  39.6559997  38.7889992  50.2214990  39.9889997
  40.3259992  50.5294990  39.1709997  40.4659992  49.3484990  41.0139997
  41.4239992  48.8414990  40.7699997  39.7599992  48.6554990  41.5209997
  40.9039992  50.4604990  42.0489997  41.5349992  51.3104990  41.7119997
  41.5489992  49.8934990  42.7539997  39.8069992  51.1274990  42.7929997
  39.1259992  50.3494990  43.1989997  39.2899992  51.8224990  42.0979997
  40.3139992  52.0364990  43.8839997  40.9339992  52.7704990  43.3259997
  40.8899992  51.4924990  44.6619997  39.3399992  52.8164990  44.8049997
  38.8909992  52.0964990  45.5229997  38.6319992  53.3184990  44.1109997
  40.2219992  53.8374990  45.5009997  40.5809992  54.6224990  44.8189997
  40.5969992  53.8874990  46.8179997  41.1659992  54.7654990  47.1569997
  40.1739992  52.8534990  47.8749997  40.8309992  53.0344990  48.7519997
  40.2919992  51.8234990  47.4759997  38.7549992  53.0294990  48.2549997
  38.1129992  52.8264990  47.3709997  38.5499992  54.0334990  48.6839997
  38.2969992  52.0464990  49.3139997  38.8039992  51.0804990  49.1039997
  37.2209992  51.7874990  49.2159997  38.5979992  52.6074990  50.7509997
  38.1179992  53.6014990  50.8779997  39.6789992  52.8294990  50.8779997
  38.1159992  51.6344990  51.9129997  38.7469992  50.7214990  51.9719997
  37.2069992  51.1384990  51.5109997  37.8249992  52.3464990  53.1919997
  37.0949992  53.1724990  53.0519997  38.7609992  52.7974990  53.5859997
  37.1559992  51.3824990  54.2739997  36.3819992  50.7814990  53.7499997
  36.7609992  51.9404990  55.1489997  38.1429992  50.3294990  54.7709997
  38.5119992  49.6114990  54.0079997  37.8989992  49.7064990  55.6579997
  39.0219992  50.8464990  55.2119997  96.4079992  52.8744990  55.9729997
  97.0419992  53.7724990  55.8169997  96.8499992  51.9324990  55.5829997
  96.2909992  52.6764990  57.0599997  94.9569992  53.1004990  55.5259997
  94.2939992  52.2354990  55.7439997  94.6209992  54.0634990  55.9669997
  94.8859992  53.2864990  53.9519997  95.5679992  54.1264990  53.7009997
  95.4089992  52.3814990  53.5749997  93.4879992  53.3354990  53.2979997
  92.7479992  53.0944990  54.0899997  93.3589992  54.4254990  53.1209997
  93.1749992  52.3694990  52.1679997  93.3069992  51.3254990  52.5269997
  92.1249992  52.6314990  51.9209997  93.8709992  52.6884990  50.7869997
  93.4029992  53.5564990  50.2759997  94.8459992  53.0884990  51.1379997
  94.0699992  51.5044990  49.8109997  94.4709992  50.5874990  50.2919997
  93.0899992  51.2654990  49.3459997  94.9849992  51.8904990  48.6299997
  94.5589992  52.8224990  48.1999997  95.9599992  52.2154990  49.0519997
  95.2689992  50.7514990  47.6489997  95.9739992  50.1864990  48.2949997
  94.3439992  50.1744990  47.4349997  95.9769992  51.2654990  46.3969997
  95.3089992  51.9824990  45.8729997  96.8839992  51.8124990  46.7329997
  96.5059992  50.1104990  45.5379997  97.5009992  49.7184990  45.8389997
  95.7949992  49.2584990  45.5919997  96.6309992  50.6174990  44.0449997
  97.2469992  51.5354990  43.9359997  97.1929992  49.8344990  43.4919997
  95.3389992  50.8424990  43.2839997  94.7779992  51.6734990  43.7629997
  95.5599992  51.1544990  42.2409997  94.4349992  49.6164990  43.0139997
  94.9889992  49.0624990  42.2259997  94.4529992  48.9994990  43.9379997
  93.0289992  49.8704990  42.5419997  92.3749992  48.9804990  42.6629997
  92.5979992  50.5764990  43.2839997  93.0239992  50.2044990  41.0799997
  92.5429992  49.5834990  40.1709997  93.5279992  51.4744990  40.9309997
  93.5079992  51.8354990  39.5249997  93.8209992  51.0494990  38.8049997
  92.4639992  52.1374990  39.2919997  94.3969992  53.1334990  39.4189997
  93.9439992  53.9504990  40.0199997  94.4559992  53.6824990  37.9549997
  93.4569992  53.8084990  37.4839997  94.8429992  54.7234990  37.9359997
  95.2729992  52.7964990  37.2109997  94.6469992  52.1374990  35.8229997
  95.3289992  50.7204990  35.6859997  94.8419992  49.5424990  36.3519997
  94.1309992  49.7994990  37.1659997  94.3109992  48.8994990  35.6179997
  96.0779992  48.7834990  36.8629997  95.8879992  47.7194990  36.8799997
  96.7499992  48.8174990  36.0189997  96.8429992  49.1194990  38.1129997
  95.9339992  49.1754990  39.3969997  95.6829992  48.1444990  39.5979997
  96.3239992  49.5814990  40.3189997  94.9959992  49.6914990  39.2529997
  97.8829992  48.0344990  38.3799997  98.6679992  48.1884990  37.6539997
  98.1989992  48.0984990  39.4109997  97.3839992  47.1034990  38.1569997
  97.5369992  50.5144990  37.9589997  98.2159992  50.3774990  37.1299997
  97.9719992  50.7374990  38.9219997  96.8399992  51.2924990  37.6869997
  93.1689992  51.8664990  35.8789997  95.1639992  53.0294990  34.8089997
  95.6999992  52.8194990  39.8629997  96.5749992  53.8084990  40.0979997
  96.2819992  54.9954990  40.0769997  97.8569992  53.1934990  40.5439997
  98.6979992  53.2934990  39.8249997  97.7739992  52.1184990  40.8099997
  98.3189992  53.9524990  41.8549997  97.4789992  53.8634990  42.5779997
  98.6489992  54.9974990  41.6709997  99.4939992  53.3204990  42.5289997
 100.3629992  53.2104990  41.8459997  99.0999992  52.3014990  42.7299997
  99.8389992  53.9324990  43.8119997  98.9199992  54.1444990  44.3979997
 100.3499992  54.8854990  43.5549997 100.7019992  53.0044990  44.7359997
 101.2839992  53.4854990  45.5519997 101.5689992  52.6194990  44.1569997
 100.0109992  51.8114990  45.4249997  99.3879992  51.2434990  44.7009997
  99.3379992  52.2014990  46.2189997 101.0109992  50.7444990  46.0629997
 101.4349992  50.3794990  45.1039997 100.5109992  49.8394990  46.4679997
 102.0029992  51.2404990  47.0539997 103.0739992  51.1494990  46.8199997
 101.6339992  51.6454990  48.2979997 102.3929992  52.1004990  48.9509997
 100.2109992  51.6984990  48.9199997  99.4639992  51.3524990  48.1739997
  99.9909992  52.7484990  49.2069997  99.9949992  50.8704990  50.1569997
 100.8139992  51.1474990  50.8539997 100.0909992  49.7984990  49.8829997
  98.7029992  51.0324990  51.0099997  97.8249992  51.3524990  50.4089997
  98.8519992  51.7924990  51.8069997  98.2089992  49.6554990  51.7149997
  98.9789992  49.4004990  52.4739997  98.4159992  48.9614990  50.8719997
  96.8629992  49.7984990  52.3449997  96.1169992  49.4854990  51.5849997
  96.6399992  50.8454990  52.6419997  96.5759992  49.0964990  53.6989997
  97.4649992  49.2004990  54.3569997  96.5719992  48.0024990  53.5049997
  95.3789992  49.6334990  54.4809997  94.4789992  49.5614990  53.8339997
  95.6429992  50.6754990  54.7649997  95.1359992  48.7924990  55.6879997
  94.7829992  47.7644990  55.4539997  94.4159992  49.3874990  56.2909997
  96.0679992  48.5734990  56.2519997  76.9849992  93.4804990  56.1869997
  77.1199992  94.4064990  55.5879997  77.4949992  93.6134990  57.1649997
  75.9279992  93.3594990  56.5049997  77.5249992  92.2674990  55.3799997
  78.5219992  92.5694990  54.9939997  77.5729992  91.5454990  56.2239997
  76.6509992  91.5154990  54.4069997  76.9559992  90.4534990  54.2849997
  75.6579992  91.3774990  54.8849997  76.4129992  92.2094990  53.0639997
  75.3149992  92.2464990  52.8949997  76.8739992  93.2204990  53.0549997
  77.0749992  91.4084990  51.8809997  78.1669992  91.6134990  51.8929997
  76.8939992  90.3124990  51.9039997  76.5949992  91.9294990  50.5029997
  76.7419992  93.0304990  50.5229997  77.2169992  91.5464990  49.6659997
  75.0979992  91.7544990  50.1359997  75.0239992  90.6464990  50.1259997
  74.4479992  92.0604990  50.9829997  74.6889992  92.4894990  48.8179997
  73.5839992  92.4174990  48.7399997  74.9689992  93.5534990  48.9749997
  75.4179992  91.9214990  47.6109997  76.5009992  92.0454990  47.8269997
  75.0319992  90.8894990  47.4709997  75.2319992  92.7494990  46.3339997
  75.5409992  93.8134990  46.4199997  75.7979992  92.3044990  45.4879997
  73.7819992  92.8284990  45.8729997  73.2409992  91.8624990  45.9609997
  73.2329992  93.5114990  46.5559997  73.6039992  93.4134990  44.5069997
  74.1999992  92.8284990  43.7749997  72.5349992  93.3534990  44.2089997
  73.9419992  94.9284990  44.3039997  73.2629992  95.6084990  44.8609997
  74.9779992  95.1724990  44.6229997  73.7429992  95.3394990  42.8449997
  74.4589992  94.6914990  42.2949997  72.7039992  95.1594990  42.4959997
  74.1579992  96.8054990  42.4479997  73.8369992  97.0904990  41.4229997
  73.6179992  97.4674990  43.1569997  75.6109992  97.0534990  42.5489997
  76.1399992  97.9594990  43.1629997  76.2769992  96.2304990  41.7629997
  77.6609992  96.5004990  41.5619997  77.8059992  97.2504990  40.7549997
  78.1379992  96.7134990  42.5419997  78.3609992  95.1474990  41.0899997
  79.4059992  95.3924990  40.8009997  77.5919992  94.4024990  39.9529997
  77.4259992  95.0724990  39.0819997  78.1459992  93.4864990  39.6549997
  76.2429992  94.1254990  40.3119997  75.1769992  93.9204990  39.1419997
  76.0399992  93.5324990  37.9019997  75.8219992  92.4424990  36.9909997
  76.7909992  91.9264990  36.8209997  75.0819992  91.6784990  37.3129997
  75.3199992  93.0084990  35.6609997  74.8979992  92.1734990  35.1209997
  74.4759992  93.6724990  35.7769997  76.2219992  93.7184990  34.7649997
  77.6009992  93.1604990  34.5609997  77.9669992  92.8534990  35.5299997
  77.6379992  92.4184990  33.7779997  78.1949992  94.0334990  34.3319997
  75.5049992  93.9474990  33.4569997  75.9949992  94.6474990  32.7969997
  75.5129992  92.9984990  32.9429997  74.4629992  94.1944990  33.6019997
  76.5159992  95.0924990  35.3169997  75.9699992  95.8224990  34.7369997
  77.5719992  95.3134990  35.2569997  76.1299992  95.2554990  36.3119997
  74.3179992  92.7304990  39.5489997  74.4629992  95.2184990  38.8149997
  78.4009992  94.2994990  42.2739997  79.1269992  93.1894990  42.2029997
  79.9829992  92.9204990  41.3709997  78.7119992  92.3304990  43.4249997
  79.4719992  91.5264990  43.5279997  77.6929992  91.9244990  43.2459997
  78.7059992  93.3014990  44.6219997  78.2299992  92.7354990  45.4519997
  78.0109992  94.1634990  44.5309997  79.9989992  93.8394990  45.1919997
  80.5689992  94.4304990  44.4439997  80.7109992  93.0304990  45.4649997
  79.7219992  94.5664990  46.5799997  80.6599992  95.0364990  46.9449997
  79.3639992  93.8664990  47.3649997  78.6669992  95.6984990  46.5809997
  77.6809992  95.2444990  46.3429997  79.0939992  96.2614990  45.7239997
  78.4189992  96.3324990  47.9349997  79.4049992  96.4484990  48.4329997
  77.8199992  95.6744990  48.5999997  77.6909992  97.6364990  47.7209997
  78.2319992  98.4084990  47.1339997  77.6699992  98.0534990  48.7509997
  76.2739992  97.3634990  47.1599997  76.2249992  97.0434990  46.1079997
  75.0909992  97.4714990  47.8209997  74.2379992  97.0504990  47.2699997
  74.7189992  97.8114990  49.2529997  73.9779992  98.6354990  49.1779997
  75.5379992  98.2174990  49.8839997  74.1909992  96.6544990  50.0289997
  75.0349992  95.9884990  50.3129997  73.4549992  96.0714990  49.4349997
  73.5669992  97.1494990  51.3789997  72.7139992  97.8204990  51.1409997
  74.2309992  97.8874990  51.8779997  73.0499992  96.0774990  52.3509997
  72.3629992  95.4614990  51.7319997  72.4449992  96.4354990  53.2119997
  74.1769992  95.2914990  52.9939997  75.1419992  95.7954990  53.2139997
  74.3899992  94.4544990  52.2949997  73.6769992  94.7434990  54.3709997
  74.5619992  94.1174990  54.6139997  72.7429992  94.2204990  54.0729997
  73.4639992  95.7924990  55.4899997  72.8729992  96.6374990  55.0779997
  74.3979992  96.1664990  55.9609997  72.6099992  95.2154990  56.7069997
  73.2159992  94.3724990  57.1009997  71.6629992  94.8764990  56.2359997
  72.3609992  95.8754990  57.5649997 103.5879992  56.1824990  57.9239997
 103.2039992  55.4564990  58.6719997 103.8049992  57.1744990  58.3769997
 104.6199992  55.8454990  57.6889997 102.6599992  56.2214990  56.7539997
 102.6819992  55.1914990  56.3359997 101.6169992  56.3634990  57.1069997
 103.0889992  57.2664990  55.6809997 103.0229992  58.2494990  56.1949997
 104.0679992  57.1184990  55.1789997 101.9869992  57.2724990  54.5529997
 102.0019992  56.2474990  54.1249997 101.0299992  57.6964990  54.9259997
 102.5399992  58.2154990  53.4309997 102.6309992  59.2414990  53.8479997
 103.5419992  57.8514990  53.1169997 101.5499992  58.3354990  52.2389997
 100.7599992  59.0984990  52.4019997 102.2189992  58.8114990  51.4899997
 101.0709992  56.9644990  51.6969997 101.9969992  56.3524990  51.6629997
 100.3209992  56.5674990  52.4149997 100.4769992  57.0594990  50.3169997
  99.6389992  57.7884990  50.3239997 101.2349992  57.3434990  49.5569997
  99.8989992  55.6074990  50.1049997  99.3119992  55.3064990  50.9989997
  99.1729992  55.6344990  49.2649997 100.8449992  54.5424990  49.7359997
 101.2439992  54.8784990  48.7549997 101.6219992  54.4354990  50.5239997
 100.2279992  53.0694990  49.4769997 101.0139992  52.2924990  49.5949997
  99.3829992  52.8094990  50.1499997  99.7289992  52.8634990  47.9799997
  99.3609992  51.8244990  47.8379997  98.7729992  53.4234990  47.9079997
 100.7359992  53.0844990  46.8199997 100.1839992  52.8374990  45.8879997
 100.7489992  54.1934990  46.7489997 102.1419992  52.5724990  47.1609997
 102.4649992  52.9434990  48.1569997 102.1749992  51.4714990  47.0119997
 103.2509992  53.1774990  46.3079997 103.2409992  54.2804990  46.4389997
 104.2829992  52.8254990  46.5219997 102.9649992  52.8484990  44.7799997
 102.5089992  51.8384990  44.2879997 103.2169992  53.9974990  44.0839997
 102.9449992  53.8794990  42.6539997 103.8729992  54.2664990  42.1809997
 102.7749992  52.8564990  42.2539997 101.7439992  54.8254990  42.2439997
 100.8849992  54.3174990  42.7319997 101.4739992  54.7664990  40.7099997
 101.3849992  53.7104990  40.3749997 100.5469992  55.3394990  40.4959997
 102.6239992  55.2594990  40.0109997 102.4289992  56.1864990  38.7239997
 101.8679992  55.0794990  37.6939997 102.6289992  53.9024990  37.3179997
 102.9149992  53.3024990  38.2089997 101.9879992  53.3414990  36.6049997
 103.9499992  54.1554990  36.5219997 104.5409992  54.8944990  37.0419997
 104.5689992  53.2894990  36.3389997 103.7599992  54.7104990  35.0959997
 103.1229992  56.1234990  34.9699997 102.0669992  56.2084990  35.1789997
 103.5869992  56.7784990  35.6929997 103.3179992  56.4804990  33.9689997
 105.1749992  54.8114990  34.5419997 105.8199992  53.9784990  34.7789997
 105.0909992  54.8334990  33.4659997 105.6049992  55.7404990  34.8879997
 102.9919992  53.8054990  34.2489997 103.3479992  52.7874990  34.3179997
 103.1219992  54.0624990  33.2079997 101.9369992  53.7764990  34.4819997
 101.2929992  57.1534990  39.0889997 103.7829992  56.6314990  38.2559997
 102.0059992  56.2394990  42.5779997 101.5209992  56.6614990  43.7489997
 100.9299992  55.9654990  44.5259997 101.9319992  58.0924990  43.8999997
 101.0289992  58.7384990  43.9289997 102.4939992  58.3824990  42.9859997
 102.7519992  58.2244990  45.2349997 102.0889992  57.8384990  46.0389997
 103.0609992  59.2734990  45.4329997 104.0119992  57.5194990  45.2499997
 104.5799992  57.5974990  44.2979997 103.8479992  56.4254990  45.3589997
 104.9029992  57.9404990  46.4319997 104.3089992  57.8004990  47.3599997
 105.2299992  59.0014990  46.3979997 106.2649992  57.2384990  46.3079997
 106.7419992  57.3414990  45.3099997 106.0819992  56.2054990  46.6739997
 107.2329992  58.0374990  47.2149997 107.1369992  59.1444990  47.2109997
 108.2409992  57.6854990  46.9089997 107.1119992  57.7734990  48.7079997
 106.0509992  57.9294990  48.9999997 107.6729992  58.5964990  49.2009997
 107.5869992  56.3814990  49.0729997 108.5829992  56.1834990  48.6489997
 107.0539992  55.5204990  49.9719997 107.6629992  54.6584990  50.2819997
 105.8399992  55.7984990  50.7939997 105.1249992  56.1524990  50.0209997
 105.9549992  56.7074990  51.4229997 105.2019992  54.4944990  51.3859997
 104.8989992  53.8494990  50.5329997 104.1969992  54.7724990  51.7709997
 105.9919992  53.6904990  52.4339997 106.3879992  54.4644990  53.1259997
 106.8609992  53.2454990  51.9049997 105.2479992  52.5754990  53.1999997
 104.5279992  53.0734990  53.8839997 105.9269992  52.0694990  53.9199997
 104.4839992  51.5894990  52.3099997 105.1249992  51.1554990  51.5129997
 103.6569992  52.1824990  51.8649997 103.8779992  50.3974990  52.9649997
 104.6489992  49.6964990  53.3519997 103.3369992  49.6934990  52.2969997
 102.8839992  50.6844990  54.0739997 103.3699992  51.4114990  54.7599997
 102.7289992  49.6984990  54.5629997 101.5429992  51.2804990  53.5129997
 101.1319992  50.4334990  52.9239997 101.8139992  52.1074990  52.8219997
 100.7809992  51.5614990  54.2709997  77.2869992  46.5144990  56.7699997
  76.6929992  45.6104990  56.5119997  76.5699992  47.3454990  56.9419997
  77.8609992  46.3734990  57.7099997  78.2049992  46.7834990  55.5869997
  78.3819992  47.8724990  55.4609997  79.2139992  46.3414990  55.7319997
  77.6979992  46.3084990  54.1619997  78.4589992  45.6694990  53.6639997
  76.8069992  45.6744990  54.3549997  77.4089992  47.5444990  53.3069997
  76.4919992  48.0724990  53.6439997  78.2829992  48.2214990  53.1969997
  77.0109992  47.1124990  51.8569997  77.8719992  46.4734990  51.5659997
  76.1669992  46.3994990  51.9709997  76.8559992  48.2404990  50.7929997
  76.1469992  49.0024990  51.1809997  77.8569992  48.5544990  50.4249997
  76.1409992  47.7634990  49.5599997  76.7659992  47.0274990  49.0109997
  75.2369992  47.1734990  49.8249997  75.7699992  48.9844990  48.5799997
  75.0399992  49.7244990  48.9709997  76.6709992  49.5934990  48.3519997
  75.1479992  48.2864990  47.2389997  75.7179992  47.3594990  47.0139997
  74.0889992  48.1294990  47.5369997  74.9689992  49.2004990  46.0429997
  74.2979992  50.0414990  46.3209997  75.9869992  49.5974990  45.8459997
  74.3269992  48.5044990  44.8109997  74.1069992  47.4414990  45.0499997
  73.3119992  48.9314990  44.6669997  75.2249992  48.5844990  43.4939997
  75.6589992  49.5964990  43.3489997  76.0429992  47.8564990  43.6819997
  74.4849992  47.9784990  42.2649997  74.4029992  46.9034990  42.5349997
  73.4549992  48.3924990  42.2349997  75.2079992  48.2784990  40.9019997
  76.2119992  47.8484990  41.1059997  74.7639992  47.5844990  40.1569997
  75.2809992  49.7214990  40.4279997  74.2819992  50.1254990  40.1599997
  75.7189992  50.3614990  41.2239997  76.2629992  49.5304990  39.2389997
  75.8449992  49.1654990  38.1369997  77.5069992  49.8724990  39.6299997
  78.6049992  49.7424990  38.7479997  78.2829992  49.1284990  37.8799997
  79.0669992  50.6954990  38.4129997  79.8649992  48.8904990  39.3749997
  80.5179992  49.6704990  39.8209997  80.6519992  48.2884990  38.2729997
  80.9799992  48.9764990  37.4649997  81.5909992  47.8354990  38.6579997
  80.0109992  47.2064990  37.6889997  80.2159992  46.9024990  36.1359997
  79.0339992  45.8504990  35.8729997  77.7379992  46.4184990  35.9899997
  77.5909992  47.4994990  35.7779997  77.1449992  45.9374990  35.1839997
  77.1189992  46.1454990  37.4179997  77.7649992  46.6284990  38.1369997
  76.2389992  46.7534990  37.2709997  76.7399992  44.7714990  37.8769997
  75.7819992  44.1604990  36.8969997  74.7889992  44.5744990  36.9829997
  76.1829992  44.2184990  35.8959997  75.5979992  43.1054990  37.0349997
  77.9799992  43.8374990  38.0749997  78.4489992  43.9574990  39.0409997
  77.6579992  42.8074990  38.0539997  78.7799992  44.0554990  37.3819997
  76.1219992  44.9154990  39.2229997  75.7039992  43.9734990  39.5459997
  75.3789992  45.6994990  39.2309997  76.8789992  45.1994990  39.9389997
  79.9329992  48.1184990  35.3609997  81.4999992  46.2324990  35.9329997
  79.2859992  48.0344990  40.3509997  80.1099992  47.8334990  41.4259997
  81.2319992  48.2704990  41.5929997  79.2749992  46.9304990  42.3539997
  78.4029992  47.5604990  42.6349997  79.9159992  46.7854990  43.2499997
  78.8199992  45.6054990  41.6919997  78.3819992  45.8234990  40.6939997
  78.0489992  45.2364990  42.4009997  79.8949992  44.5064990  41.6219997
  80.7099992  44.9584990  41.0179997  79.5679992  43.5604990  41.1389997
  80.6559992  44.0424990  42.9739997  81.3669992  44.8934990  43.0459997
  81.3039992  43.1554990  42.8059997  79.8339992  43.8754990  44.2159997
  79.3099992  42.9064990  44.3589997  78.9519992  44.5474990  44.1569997
  80.5739992  43.9974990  45.5189997  81.4899992  43.3694990  45.4939997
  79.9359992  43.7514990  46.3939997  81.1929992  45.3704990  45.7519997
  81.7429992  45.7264990  44.8549997  82.0259992  45.1724990  46.4589997
  80.1619992  46.3064990  46.2049997  79.4379992  46.4954990  45.3989997
  80.0169992  46.7824990  47.4169997  79.1379992  47.3984990  47.6579997
  80.8849992  46.4864990  48.5719997  81.9629992  46.3414990  48.3489997
  80.5019992  45.5604990  49.0519997  80.8919992  47.5264990  49.7389997
  79.8579992  47.6944990  50.1089997  81.2169992  48.4514990  49.2179997
  81.8859992  47.3124990  50.9259997  82.8869992  47.1154990  50.4869997
  81.5979992  46.3014990  51.2849997  81.9359992  48.4954990  51.9269997
  80.9279992  48.6364990  52.3709997  82.1499992  49.3634990  51.2669997
  83.1049992  48.2864990  52.8949997  83.1789992  49.1234990  53.6219997
  84.0299992  48.2714990  52.2799997  83.1889992  46.9424990  53.6169997
  84.1949992  47.0384990  54.0799997  83.3549992  46.0984990  52.9129997
  82.0129992  46.4484990  54.4139997  81.1559992  46.2194990  53.7459997
  81.6689992  47.2734990  55.0739997  82.2939992  45.1814990  55.2089997
  82.7049992  44.4974990  54.4369997  81.3279992  44.7944990  55.5989997
  83.0619992  45.3144990  56.0009997  66.8039992  99.4124990  53.7909997
  65.8099992  99.2734990  54.2679997  67.0769992 100.4664990  54.0129997
  67.6109992  98.7324990  54.1389997  66.6579992  99.0214990  52.3279997
  66.3559992  97.9554990  52.2509997  65.8629992  99.6244990  51.8399997
  67.9719992  99.2724990  51.5259997  68.8569992  99.2274990  52.1969997
  68.0149992  98.6204990  50.6269997  67.9129992 100.6864990  50.8299997
  67.5309992 101.4114990  51.5799997  68.8829992 101.1414990  50.5379997
  66.8779992 100.8174990  49.5879997  65.8449992 100.5654990  49.9109997
  66.8939992 101.8984990  49.3319997  67.2529992  99.9994990  48.4039997
  67.2279992  98.9214990  48.6719997  66.3869992 100.1994990  47.7379997
  68.5839992 100.4484990  47.8169997  68.7419992 101.5294990  48.0169997
  69.4409992  99.8604990  48.2089997  68.5689992 100.0944990  46.2719997
  68.3309992  99.0104990  46.2239997  67.7509992 100.5634990  45.6849997
  69.9519992 100.2954990  45.5619997  70.3139992 101.3454990  45.6089997
  70.6239992  99.7794990  46.2819997  69.8999992  99.7164990  44.1449997
  69.6829992  98.6264990  44.1639997  69.0569992 100.2674990  43.6759997
  71.1699992 100.1014990  43.3419997  70.9039992 100.1044990  42.2629997
  71.3789992 101.1524990  43.6359997  72.3919992  99.3364990  43.7079997
  73.3569992  99.8604990  43.8739997  72.1209992  98.8134990  44.6509997
  72.7969992  98.2984990  42.6449997  73.1319992  98.8924990  41.7679997
  73.5989992  97.6554990  43.0669997  71.7129992  97.2144990  42.1089997
  72.3399992  96.3734990  41.7439997  71.1509992  96.8294990  42.9869997
  70.7539992  97.7514990  41.0219997  69.9929992  98.4754990  41.3839997
  71.3929992  98.2504990  40.2619997  70.1199992  96.5074990  40.3759997
  70.2129992  96.1654990  39.2389997  69.2749992  95.9734990  41.3159997
  68.3309992  94.9174990  40.8579997  68.7309992  94.2664990  40.0509997
  68.0859992  94.2804990  41.7349997  66.8939992  95.4954990  40.5089997
  66.1779992  94.6894990  40.7799997  66.8369992  95.7674990  39.0009997
  67.3529992  94.9214990  38.4989997  65.7849992  95.7624990  38.6439997
  67.4209992  96.9784990  38.5589997  66.7609992  98.4464990  38.5199997
  67.2709992  99.0684990  37.1499997  67.2209992  98.4194990  35.9119997
  66.7259992  97.4424990  36.0959997  66.6159992  99.0124990  35.1919997
  68.6219992  98.1364990  35.3359997  68.9339992  97.2634990  35.8899997
  68.7009992  97.9314990  34.2779997  69.7659992  99.0404990  35.6299997
  69.4919992 100.6074990  35.5229997  70.4339992 101.1004990  35.7099997
  69.0999992 100.7944990  34.5339997  68.8979992 100.8594990  36.3879997
  70.1809992  98.7944990  37.0489997  70.4839992  97.7614990  37.1269997
  71.0879992  99.3144990  37.3219997  69.3649992  99.0004990  37.7249997
  70.9969992  98.7854990  34.7899997  71.8089992  99.4864990  34.9129997
  70.6979992  98.7164990  33.7549997  71.3939992  97.8114990  35.0379997
  65.3049992  98.2704990  38.4459997  67.4329992  99.2774990  39.5579997
  66.7139992  96.6994990  41.3769997  65.4569992  96.9934990  41.5939997
  64.4499992  96.3764990  41.2069997  65.3359992  98.3474990  42.3469997
  64.2459992  98.4714990  42.5209997  65.7189992  99.1174990  41.6429997
  66.0749992  98.3904990  43.6249997  66.0849992  99.4294990  44.0179997
  67.1829992  98.3194990  43.5829997  65.5599992  97.5234990  44.7199997
  64.5109992  97.2004990  44.5479997  65.7929992  97.9374990  45.7239997
  66.2539992  96.0844990  44.6569997  66.0099992  95.4674990  43.7659997
  65.9509992  95.4474990  45.5159997  67.8139992  96.2024990  44.7859997
  68.0939992  97.1104990  45.3609997  68.1299992  96.4154990  43.7429997
  68.5339992  94.9644990  45.4299997  68.2359992  94.0674990  44.8449997
  68.1009992  94.7824990  46.4379997  70.0789992  95.1554990  45.4469997
  70.3319992  95.2194990  44.3669997  70.5989992  94.2584990  45.8449997
  70.6489992  96.4724990  45.9999997  70.8159992  97.1924990  45.1849997
  70.9709992  96.8434990  47.2519997  71.4059992  97.8384990  47.4239997
  70.8209992  95.9584990  48.4659997  71.5519992  95.1324990  48.3339997
  69.7629992  95.6224990  48.4969997  71.3529992  96.6264990  49.8149997
  71.0629992  97.6864990  49.9769997  72.4639992  96.5994990  49.8069997
  70.8369992  95.7694990  51.0389997  71.3249992  94.7754990  50.9419997
  69.7319992  95.6574990  51.0379997  71.1699992  96.4944990  52.3419997
  70.7299992  97.5114990  52.4289997  72.2659992  96.6564990  52.2649997
  70.9559992  95.7404990  53.6409997  69.8619992  95.5664990  53.7249997
  71.2939992  96.3004990  54.5399997  71.5759992  94.3044990  53.5999997
  71.8299992  94.0764990  54.6569997  72.5519992  94.3424990  53.0689997
  70.6679992  93.1144990  53.1519997  70.8409992  92.9514990  52.0669997
  69.6299992  93.4344990  53.3819997  70.9959992  91.8734990  53.9039997
  70.5369992  91.0144990  53.3689997  70.4329992  91.9604990  54.8569997
  72.0369992  91.7474990  54.2719997  52.0529992  92.4014990  58.2469997
  51.5469992  92.7034990  57.3059997  51.3249992  92.5194990  59.0769997
  52.3459992  91.3324990  58.1749997  53.3009992  93.2564990  58.4649997
  52.8819992  94.2404990  58.7639997  53.8439992  92.8184990  59.3299997
  54.2479992  93.4234990  57.2619997  55.1599992  93.9734990  57.5779997
  54.5399992  92.4104990  56.9139997  53.5409992  94.1894990  56.1269997
  52.5739992  93.7134990  55.8569997  53.2619992  95.2114990  56.4619997
  54.3299992  94.2034990  54.7329997  54.8819992  95.1674990  54.7699997
  54.8479992  93.2214990  54.7079997  53.3299992  94.1924990  53.5169997
  52.7559992  93.2424990  53.5759997  52.5769992  95.0014990  53.6219997
  54.1229992  94.2514990  52.2829997  54.3419992  95.3254990  52.1019997
  55.1459992  93.8234990  52.3489997  53.5179992  93.6024990  50.9859997
  53.1979992  92.5914990  51.3159997  52.6999992  94.2694990  50.6389997
  54.4869992  93.6184990  49.8419997  53.9849992  93.0984990  48.9979997
  54.6779992  94.6814990  49.5819997  55.6499992  92.6524990  49.9089997
  56.5419992  93.1144990  50.3839997  55.3059992  91.7304990  50.4239997
  56.0419992  92.1094990  48.5279997  55.2349992  91.4094990  48.2219997
  56.0039992  92.9824990  47.8409997  57.2919992  91.2074990  48.3189997
  58.2499992  91.7644990  48.4029997  57.3739992  90.5374990  49.2019997
  57.2099992  90.4464990  46.9839997  58.0209992  89.6874990  46.9779997
  56.2269992  89.9354990  46.9059997  57.2989992  91.3134990  45.6909997
  56.5159992  92.1004990  45.6499997  58.2849992  91.8104990  45.8119997
  57.3269992  90.5574990  44.3679997  58.1569992  89.8204990  44.3209997
  56.3239992  90.1394990  44.1389997  57.6609992  91.4874990  43.1759997
  57.6789992  92.7034990  43.1579997  57.7409992  90.6934990  42.1009997
  57.9449992  91.3554990  40.8259997  58.4259992  92.3554990  40.8969997
  58.5319992  90.7114990  40.1369997  56.4889992  91.6134990  40.1309997
  56.0889992  90.6384990  39.7799997  56.5819992  92.5624990  38.8589997
  57.3459992  93.3404990  39.0679997  57.0029992  91.8764990  38.0919997
  55.2649992  93.0524990  38.5699997  54.4059992  92.4484990  37.3619997
  54.5589992  90.9144990  37.4639997  53.7619992  90.1514990  38.3149997
  54.3869992  89.5404990  38.9999997  53.0889992  90.7784990  38.9379997
  52.9749992  89.0724990  37.4499997  53.7089992  88.3194990  37.2029997
  52.2829992  88.5784990  38.1149997  52.2289992  89.5534990  36.1659997
  53.2289992  89.9524990  35.1269997  53.6469992  90.9064990  35.4119997
  54.0359992  89.2504990  34.9749997  52.6909992  90.1474990  34.2109997
  51.4339992  88.3044990  35.7599997  52.2029992  87.5764990  35.5479997
  50.7739992  88.1224990  36.5949997  50.9479992  88.4764990  34.8109997
  51.2299992  90.6824990  36.5269997  51.8209992  91.5084990  36.8919997
  50.5689992  90.3034990  37.2919997  50.8579992  91.0694990  35.5889997
  53.0399992  92.8324990  37.6069997  55.1009992  92.9034990  36.1249997
  55.5799992  92.2434990  41.0329997  54.8959992  91.4234990  41.7779997
  55.0499992  90.2154990  41.8529997  53.8029992  92.2664990  42.5329997
  53.5179992  93.0914990  41.8459997  54.4349992  92.6834990  43.3459997
  52.6349992  91.5094990  43.2269997  52.9259992  90.8654990  44.0849997
  52.1999992  90.8974990  42.4079997  51.4929992  92.4184990  43.6639997
  51.2449992  93.0444990  42.7809997  51.7659992  93.1604990  44.4439997
  50.2319992  91.6614990  44.1149997  49.8839992  91.1564990  43.1879997
  49.3669992  92.2364990  44.5089997  50.5099992  90.5474990  45.2159997
  50.9589992  90.9614990  46.1429997  51.1949992  89.8064990  44.7509997
  49.2499992  89.6854990  45.6159997  48.8359992  89.4014990  44.6239997
  48.4609992  90.3744990  45.9869997  49.5709992  88.5894990  46.5579997
  48.5729992  88.1514990  46.7719997  49.9369992  89.0994990  47.4749997
  50.5639992  87.5334990  46.0399997  50.1069992  86.9254990  45.2449997
  51.8329992  87.2954990  46.2919997  52.3989992  86.4834990  45.8129997
  52.7169992  88.0774990  47.2059997  52.4259992  89.1484990  47.2319997
  53.7799992  88.1194990  46.8859997  52.6199992  87.6764990  48.6989997
  52.8679992  86.5954990  48.7539997  51.6259992  87.8734990  49.1549997
  53.7299992  88.4564990  49.4129997  53.5429992  89.5324990  49.2109997
  54.7389992  88.2804990  48.9839997  53.7509992  88.2364990  50.9719997
  54.1439992  87.2084990  51.1219997  52.7449992  88.2114990  51.4419997
  54.7079992  89.2064990  51.6989997  54.2239992  90.1944990  51.5469997
  55.7199992  89.3584990  51.2659997  54.9299992  88.7194990  53.1769997
  55.6809992  87.9164990  53.0129997  53.9729992  88.3284990  53.5839997
  55.5849992  89.8544990  54.0119997  55.5059992  89.5544990  55.0789997
  54.9629992  90.7664990  53.8849997  57.0379992  90.2904990  53.6429997
  57.7649992  89.4524990  53.6869997  57.2809992  91.1964990  54.2389997
  57.1269992  90.6494990  52.5959997 109.0059992  77.9694990  54.9559997
 109.9229992  77.6074990  55.4669997 108.3899992  77.0464990  54.9069997
 108.5919992  78.7454990  55.6349997 109.2679992  78.5204990  53.6399997
 108.5589992  79.3714990  53.5569997 110.2199992  79.0784990  53.5099997
 109.1499992  77.4794990  52.5409997 109.5929992  77.9964990  51.6629997
 109.7269992  76.5374990  52.6529997 107.7359992  77.0434990  52.1329997
 107.4339992  76.2474990  52.8469997 107.0649992  77.8684990  52.4509997
 107.5509992  76.6494990  50.6199997 108.0849992  77.3524990  49.9459997
 108.0569992  75.6804990  50.4229997 106.1409992  76.5444990  50.0009997
 105.7269992  75.6574990  50.5259997 105.4839992  77.4394990  50.0359997
 106.2109992  76.0134990  48.5769997 106.7429992  75.0384990  48.5979997
 105.1529992  75.9584990  48.2439997 106.9849992  76.7764990  47.4959997
 106.4219992  77.6924990  47.2129997 108.0119992  77.0264990  47.8379997
 107.1759992  75.9734990  46.1849997 107.6149992  76.6584990  45.4289997
 107.7699992  75.0444990  46.3249997 105.9259992  75.4204990  45.4979997
 105.3409992  74.8244990  46.2309997 105.2549992  76.2584990  45.2119997
 106.1649992  74.5884990  44.2229997 106.6939992  73.6194990  44.3439997
 105.1149992  74.2884990  44.0189997 106.7309992  75.3124990  42.9649997
 107.8329992  75.1714990  42.9349997 106.4689992  74.9004990  41.9669997
 106.2329992  76.7474990  42.8089997 105.1319992  76.8264990  42.9289997
 106.8499992  77.3654990  43.4959997 106.4179992  77.3244990  41.3509997
 107.4759992  77.1384990  41.0689997 105.7529992  76.8474990  40.5999997
 106.1349992  78.8764990  41.2549997 105.6649992  79.1034990  40.2739997
 105.5729992  79.1584990  42.1709997 107.4309992  79.6564990  41.5029997
 107.6889992  79.9634990  42.6499997 108.1259992  80.0364990  40.4179997
 109.2659992  80.9014990  40.6359997 109.2849992  81.6394990  39.8049997
 109.2199992  81.5234990  41.5549997 110.6459992  80.1984990  40.4189997
 111.3759992  81.0274990  40.5429997 110.7499992  79.4724990  39.0329997
 110.6709992  80.2094990  38.2059997 111.7599992  79.0334990  38.8829997
 109.6849992  78.5064990  38.9709997 109.8689992  76.9644990  38.8009997
 108.3929992  76.4454990  38.3629997 107.6079992  77.3614990  37.5949997
 106.6379992  76.8354990  37.4719997 107.3469992  78.3054990  38.1199997
 108.1399992  77.7274990  36.1379997 107.7689992  78.6984990  35.8449997
 109.2149992  77.8344990  36.1549997 107.8009992  76.7194990  35.0429997
 106.3839992  76.8644990  34.7249997 106.1689992  77.7924990  34.2169997
 106.0659992  76.1054990  34.0259997 105.7989992  76.8064990  35.6309997
 108.5059992  76.9804990  33.6829997 109.5839992  76.9524990  33.6189997
 108.0949992  76.4414990  32.8419997 108.3459992  78.0334990  33.5029997
 108.0469992  75.2884990  35.3719997 107.3089992  74.9344990  36.0769997
 109.0729992  75.0934990  35.6479997 107.9219992  74.6934990  34.4789997
 110.7549992  76.6484990  37.6309997 110.1639992  76.3454990  40.1479997
 110.8419992  79.2424990  41.4319997 112.0599992  78.8004990  41.7639997
 113.1069992  79.1564990  41.2379997 111.9699992  77.6464990  42.7539997
 112.8069992  77.7294990  43.4799997 112.2379992  76.7624990  42.1349997
 110.5879992  77.5644990  43.4719997 110.6689992  76.6354990  44.0759997
 109.8129992  77.5404990  42.6769997 110.1729992  78.6924990  44.4489997
 109.2139992  78.4754990  44.9649997 110.0719992  79.6184990  43.8429997
 111.2559992  78.9244990  45.4629997 112.1069992  79.5094990  45.0519997
 111.6809992  77.9744990  45.8519997 110.8139992  79.8334990  46.6889997
 111.7419992  79.9884990  47.2789997 110.2679992  79.1544990  47.3779997
 110.2119992  81.1774990  46.4029997 109.1199992  80.9754990  46.4259997
 110.5309992  81.4644990  45.3779997 110.5269992  82.3004990  47.4029997
 110.1779992  83.1804990  46.8219997 111.6329992  82.4084990  47.3959997
 109.7389992  82.2614990  48.7579997 108.7359992  82.7134990  48.7389997
 110.2979992  81.7274990  49.8999997 109.8659992  81.7414990  50.9119997
 111.7149992  81.1734990  49.9059997 112.1299992  81.1094990  48.8779997
 111.5089992  80.0994990  50.1059997 112.7589992  81.6504990  50.9319997
 113.0779992  82.6654990  50.6139997 113.6819992  81.0444990  50.8109997
 112.3009992  81.6344990  52.4089997 112.2619992  80.5794990  52.7549997
 111.2419992  81.9694990  52.4419997 113.2229992  82.3554990  53.4039997
 113.0849992  83.4354990  53.1839997 114.2749992  82.0004990  53.4439997
 112.7839992  82.0964990  54.8619997 111.8089992  82.5134990  55.1949997
 113.4959992  82.4954990  55.6159997 112.8459992  80.5444990  55.2999997
 113.7629992  80.0604990  54.9009997 112.0939992  80.0064990  54.6839997
 112.7519992  80.2124990  56.8019997 113.4909992  80.9124990  57.2459997
 113.0019992  79.1524990  57.0249997 111.4639992  80.4654990  57.5679997
 110.5949992  80.3454990  56.8869997 111.3539992  81.4954990  57.9689997
 111.3309992  79.6914990  58.3539997  69.4249992  42.8014990  55.9189997
  69.8999992  41.8534990  56.2479997  68.3869992  42.7144990  56.3059997
  69.9589992  43.6294990  56.4329997  69.3379992  42.9444990  54.3749997
  69.0069992  43.9584990  54.0649997  70.3119992  42.7814990  53.8659997
  68.4009992  41.8624990  53.7539997  68.9079992  40.8804990  53.8699997
  67.4509992  41.8004990  54.3249997  68.0659992  42.0954990  52.2469997
  67.5089992  41.2974990  51.7109997  67.3209992  42.9184990  52.2119997
  69.3449992  42.4814990  51.4389997  69.6089992  43.5174990  51.7439997
  70.2269992  41.8464990  51.6719997  69.0819992  42.4914990  49.8949997
  69.0969992  41.4454990  49.5199997  68.0619992  42.9054990  49.7479997
  70.0649992  43.2794990  49.0199997  71.0589992  43.3984990  49.5009997
  70.0619992  42.7984990  48.0189997  69.6509992  44.8144990  48.9639997
  68.6229992  44.9184990  48.5569997  69.6859992  45.1034990  50.0359997
  70.6169992  45.7174990  48.1659997  70.7069992  46.7454990  48.5789997
  71.6679992  45.3584990  48.1229997  70.1599992  45.9754990  46.6689997
  69.5629992  45.0894990  46.3639997  69.4089992  46.7914990  46.6049997
  71.2269992  46.3954990  45.6259997  71.5369992  47.3894990  46.0129997
  72.0219992  45.6604990  45.3769997  70.4519992  46.6664990  44.2739997
  70.1599992  45.6474990  43.9419997  69.4279992  47.0154990  44.5269997
  71.1209992  47.5594990  43.2499997  70.4469992  47.5924990  42.3679997
  71.2419992  48.6194990  43.5609997  72.5029992  47.2254990  42.6699997
  73.2639992  47.1214990  43.4729997  72.3399992  46.2754990  42.1179997
  72.9999992  48.2624990  41.5639997  72.1999992  48.5154990  40.8359997
  73.3829992  49.1944990  42.0309997  74.2079992  47.6084990  40.8209997
  75.3299992  47.4094990  41.2279997  73.7439992  47.2544990  39.5149997
  74.7069992  46.4074990  38.9149997  74.7209992  46.7654990  37.8629997
  75.7489992  46.5804990  39.2589997  74.4099992  44.9064990  38.9029997
  75.2359992  44.2924990  38.4849997  73.1999992  44.5434990  37.9559997
  73.2609992  45.2264990  37.0809997  73.2689992  43.5094990  37.5579997
  71.9929992  44.8114990  38.6369997  70.5339992  44.7994990  38.1089997
  70.4949992  43.6094990  37.1589997  69.9509992  42.3784990  37.6969997
  70.3989992  41.8994990  38.5939997  68.9079992  42.5134990  38.0529997
  69.8319992  41.2974990  36.5409997  69.7229992  40.3184990  36.9849997
  68.9849992  41.4644990  35.8919997  71.0249992  41.0114990  35.6109997
  71.5969992  42.2094990  34.7549997  71.5449992  43.1234990  35.3269997
  72.5529992  41.8714990  34.3809997  70.9269992  42.2484990  33.9089997
  72.2209992  40.4204990  36.4559997  71.8449992  39.7344990  37.2009997
  72.8299992  39.9994990  35.6689997  72.6719992  41.2334990  37.0049997
  70.4879992  39.8754990  34.8229997  69.5179992  40.1954990  34.4729997
  70.5179992  38.9114990  35.3079997  71.0659992  39.8044990  33.9129997
  69.6419992  44.5804990  39.3139997  70.3699992  46.0714990  37.3709997
  74.0459992  44.4574990  40.1859997  73.7649992  43.1394990  40.3389997
  73.9079992  42.2904990  39.5179997  73.4069992  42.8624990  41.7879997
  72.3019992  42.9464990  41.7129997  73.9249992  43.4574990  42.5699997
  73.8059992  41.3244990  41.9889997  74.8899992  41.1724990  41.7979997
  73.3189992  40.7384990  41.1799997  73.5319992  40.5824990  43.3599997
  73.5179992  39.4764990  43.2529997  72.5039992  40.8654990  43.6719997
  74.6119992  40.7534990  44.3999997  74.8129992  41.8444990  44.4639997
  75.4989992  40.1244990  44.1729997  74.1189992  40.2294990  45.7989997
  73.8249992  39.1624990  45.7059997  73.1459992  40.7364990  45.9729997
  75.0969992  40.5014990  46.9629997  76.0299992  40.1134990  46.5029997
  74.7109992  39.8224990  47.7539997  75.1329992  41.9384990  47.4839997
  75.1359992  42.5824990  46.5779997  76.1099992  42.0184990  48.0059997
  73.9479992  42.3864990  48.2989997  72.9649992  42.0944990  47.8999997
  73.9709992  42.8594990  49.5419997  73.0139992  43.1654990  49.9889997
  75.1229992  43.1234990  50.5369997  75.9719992  42.4554990  50.2769997
  74.7589992  42.8294990  51.5449997  75.7429992  44.5744990  50.5299997
  76.2259992  44.7254990  49.5409997  76.5079992  44.6354990  51.3339997
  74.7929992  45.7464990  50.7729997  74.0779992  45.7594990  49.9229997
  75.4069992  46.6714990  50.8069997  73.8959992  45.6114990  51.9879997
  74.1979992  46.4084990  52.7009997  73.9429992  44.7184990  52.6469997
  72.4119992  45.7634990  51.6349997  72.3199992  44.9594990  50.8739997
  72.2949992  46.7804990  51.2049997  71.3739992  45.4184990  52.6869997
  71.4669992  44.3764990  53.0609997  70.3879992  45.6224990  52.2169997
  71.5359992  46.2624990  53.9669997  70.4949992  46.0664990  54.3019997
  71.5129992  47.3564990  53.7729997  72.4589992  45.7604990  55.0689997
  73.4679992  46.0774990  54.7289997  72.4959992  44.6614990  55.2259997
  72.2669992  46.4604990  55.9089997  37.4349992  63.7824990  54.1639997
  36.5439992  63.7654990  53.5019997  38.2069992  64.4044990  53.6619997
  37.1929992  64.2634990  55.1359997  37.9319992  62.3654990  54.4009997
  38.9359992  62.3454990  54.8789997  37.2649992  61.8554990  55.1289997
  37.9539992  61.4814990  53.1409997  36.9739992  61.5124990  52.6179997
  38.6629992  61.9034990  52.3969997  38.4619992  60.0324990  53.4889997
  39.4299992  60.1844990  54.0119997  37.7059992  59.5614990  54.1519997
  38.5909992  59.2724990  52.1469997  37.5779992  59.0314990  51.7589997
  39.1219992  59.8864990  51.3889997  39.3059992  57.8884990  52.2549997
  40.3339992  58.2164990  52.5179997  38.7379992  57.2644990  52.9769997
  39.6369992  57.0634990  50.9459997  40.1999992  56.1824990  51.3219997
  38.7089992  56.5414990  50.6279997  40.4509992  57.8094990  49.9709997
  39.8109992  58.6074990  49.5379997  41.3539992  58.3114990  50.3809997
  40.9759992  56.8524990  48.8579997  41.5619992  56.0944990  49.4209997
  40.1749992  56.2724990  48.3519997  41.7789992  57.5294990  47.7729997
  42.7369992  57.9224990  48.1769997  42.0339992  56.8344990  46.9449997
  40.9739992  58.6214990  47.0999997  39.9319992  58.2814990  46.9169997
  40.8249992  59.5434990  47.7009997  41.5299992  59.1584990  45.7019997
  40.9289992  60.0664990  45.4809997  42.5549992  59.4714990  45.9969997
  41.6089992  58.1744990  44.5229997  42.4809992  57.4854990  44.5549997
  40.6409992  57.6284990  44.5249997  41.7719992  58.9084990  43.1379997
  41.0159992  59.7224990  43.0949997  42.7789992  59.3664990  43.2379997
  41.8279992  58.1014990  41.8029997  42.0679992  58.7334990  40.9219997
  42.5839992  57.3034990  41.9629997  40.5229992  57.3794990  41.5049997
  40.3789992  56.2094990  41.4399997  39.5719992  58.2804990  41.2899997
  38.3129992  57.7384990  40.9139997  38.3649992  57.0114990  40.0759997
  37.9489992  57.1674990  41.7949997  37.2909992  58.8274990  40.5069997
  36.2429992  58.4594990  40.5069997  37.5589992  59.2984990  39.0269997
  37.5329992  58.3964990  38.3789997  36.7649992  60.0384990  38.7869997
  38.7409992  60.1054990  38.9589997  39.8829992  59.8084990  37.8689997
  39.5119992  60.8374990  36.6539997  39.4109992  62.1974990  36.8859997
  38.9029992  62.7374990  36.0579997  38.8069992  62.3934990  37.7969997
  40.8049992  62.8824990  37.1209997  40.6289992  63.8954990  37.4509997
  41.2399992  62.3144990  37.9289997  41.9229992  62.8674990  36.0359997
  43.2109992  63.2444990  36.7119997  43.8799992  63.3874990  35.8759997
  42.9889992  64.1804990  37.2019997  43.3409992  62.4454990  37.4269997
  42.0389992  61.5824990  35.3599997  42.5119992  60.8284990  35.9709997
  41.0839992  61.2294990  35.0009997  42.7849992  61.7784990  34.6049997
  41.6199992  63.8494990  34.9639997  41.7269992  64.8274990  35.4089997
  40.6669992  63.6924990  34.4819997  42.4069992  63.8544990  34.2229997
  41.2089992  60.1764990  38.4449997  39.7389992  58.4104990  37.4659997
  37.3219992  59.8304990  41.5219997  36.6959992  59.4454990  42.6849997
  36.1339992  58.4174990  42.9499997  36.8339992  60.6404990  43.6629997
  36.0589992  60.5524990  44.4539997  36.6849992  61.6064990  43.1339997
  38.2369992  60.6204990  44.3039997  39.0039992  60.8964990  43.5499997
  38.4889992  59.5594990  44.5169997  38.3359992  61.5024990  45.5559997
  37.8279992  62.4294990  45.2159997  39.3959992  61.7814990  45.7379997
  37.7149992  60.7784990  46.7959997  38.2179992  59.7914990  46.8799997
  36.6309992  60.5494990  46.7149997  37.9059992  61.5414990  48.1509997
  38.9949992  61.5404990  48.3729997  37.5359992  60.9804990  49.0349997
  37.4539992  63.0274990  48.2259997  36.3559992  63.0114990  48.0549997
  38.0659992  63.6264990  47.5179997  37.5849992  63.5334990  49.6999997
  38.5909992  63.2834990  50.0999997  36.9379992  62.8884990  50.3319997
  37.3949992  65.0194990  49.7459997  36.3589992  65.3864990  49.6869997
  38.3819992  65.8964990  49.9799997  38.2009992  66.9814990  49.9969997
  39.8149992  65.7044990  50.2239997  40.5059992  66.5744990  50.2429997
  40.2829992  65.0684990  49.4419997  40.1389992  65.0304990  51.5879997
  39.6559992  64.0314990  51.6479997  39.5989992  65.5664990  52.3969997
  41.6519992  65.0934990  51.9199997  42.0099992  66.1444990  51.9779997
  42.1529992  64.6264990  51.0449997  42.1299992  64.2734990  53.0689997
  41.6759992  64.6364990  54.0159997  43.2179992  64.3514990  53.2789997
  41.8189992  62.7304990  52.9869997  42.1889992  62.3654990  52.0049997
  40.7099992  62.7844990  53.0039997  42.4449992  61.8394990  53.9979997
  43.5479992  61.7894990  53.8739997  42.0009992  60.8294990  53.8659997
  42.2719992  62.3204990  55.5019997  41.1749992  62.1854990  55.6109997
  42.6969992  63.3444990  55.5779997  42.9549992  61.4024990  56.5449997
  44.0479992  61.5194990  56.3879997  42.6069992  60.3654990  56.3499997
  42.7669992  61.8554990  57.5429997 110.0929992  59.2474990  55.4549997
 109.1609992  58.6464990  55.5159997 109.8079992  60.2924990  55.7029997
 110.8199992  58.9374990  56.2359997 110.6759992  59.3194990  54.0229997
 111.2839992  58.4214990  53.7849997 109.8059992  59.3484990  53.3319997
 111.6869992  60.4964990  53.7919997 111.2069992  61.4274990  54.1629997
 112.5759992  60.4074990  54.4509997 112.2439992  60.6684990  52.4079997
 113.2189992  61.1994990  52.4359997 112.3849992  59.6684990  51.9449997
 111.2949992  61.3644990  51.4479997 110.2939992  60.8864990  51.5029997
 111.2159992  62.4454990  51.6909997 111.7859992  61.3434990  49.9759997
 112.8249992  61.7324990  49.9159997 111.9599992  60.3094990  49.6089997
 110.9139992  62.1734990  48.9929997 110.6249992  63.2084990  49.2769997
 111.3999992  62.3234990  48.0049997 109.6269992  61.3994990  48.6509997
 109.0109992  61.1994990  49.5539997 108.9239992  61.9974990  48.0319997
 109.8749992  60.0184990  47.9209997 110.3009992  59.3154990  48.6689997
 108.8959992  59.5274990  47.7349997 110.8459992  60.0094990  46.7449997
 110.2319992  60.4524990  45.9309997 111.6749992  60.7474990  46.7899997
 111.5119992  58.6304990  46.5609997 111.9459992  58.3354990  47.5399997
 110.7669992  57.8444990  46.3159997 112.6139992  58.6344990  45.4299997
 113.2759992  59.4964990  45.6609997 113.2539992  57.7274990  45.4789997
 112.0779992  58.7934990  44.0649997 111.4539992  59.7124990  44.0539997
 112.8729992  59.0304990  43.3259997 111.3399992  57.6534990  43.3729997
 111.3089992  56.7674990  44.0439997 110.2829992  57.9094990  43.1449997
 111.9939992  57.2434990  42.0789997 111.9419992  58.1604990  41.4529997
 113.0629992  56.9664990  42.1989997 111.2709992  56.0094990  41.5319997
 111.1359992  55.0034990  42.1909997 110.6899992  56.2824990  40.3939997
 109.7209992  55.4334990  39.8109997 109.9139992  55.2134990  38.7389997
 109.7349992  54.4184990  40.2639997 108.3219992  56.0354990  39.9899997
 107.6589992  55.2334990  39.6009997 108.3029992  57.2334990  38.9759997
 109.1709992  57.0744990  38.3009997 107.3329992  57.2974990  38.4399997
 108.5169992  58.6124990  39.5069997 108.6189992  59.8424990  38.4539997
 109.3799992  59.2414990  37.1479997 110.7339992  58.9504990  37.0319997
 111.1559992  58.4684990  37.9399997 110.9739992  58.3594990  36.1219997
 111.4829992  60.2784990  36.8099997 111.0399992  60.9924990  37.4889997
 112.5219992  60.1074990  37.0499997 111.4189992  60.9484990  35.4359997
 111.9319992  60.0624990  34.3879997 112.9429992  59.7964990  34.6599997
 111.3149992  59.2014990  34.1779997 111.9829992  60.5604990  33.4309997
 110.0279992  61.4964990  35.0639997 110.0949992  62.0534990  34.1419997
 109.3269992  60.6834990  34.9439997 109.6609992  62.1624990  35.8309997
 112.3309992  62.1734990  35.4669997 112.2579992  62.6814990  34.5169997
 113.3459992  61.8524990  35.6469997 111.9539992  62.8334990  36.2339997
 107.2349992  60.1944990  37.9789997 109.3489992  60.9034990  39.1849997
 108.0619992  56.3524990  41.3339997 106.8769992  56.9324990  41.6939997
 106.0179992  57.3374990  40.9139997 106.7139992  56.9114990  43.2279997
 107.6459992  56.6114990  43.7539997 105.8129992  56.3444990  43.5469997
 106.5179992  58.4174990  43.7809997 105.4699992  58.6604990  43.5049997
 107.1969992  59.0684990  43.1899997 106.6349992  58.5534990  45.3519997
 106.5389992  59.6454990  45.5329997 107.6789992  58.3524990  45.6739997
 105.5609992  57.7454990  46.0919997 105.6029992  56.7054990  45.7039997
 104.5919992  58.1374990  45.7139997 105.6139992  57.9674990  47.6279997
 105.5559992  59.0684990  47.7679997 106.6809992  57.7054990  47.7939997
 104.5349992  57.1374990  48.3849997 104.8939992  56.0894990  48.4619997
 103.6859992  57.0214990  47.6769997 104.0679992  57.6494990  49.7929997
 103.5739992  56.7384990  50.1939997 103.4359992  58.5634990  49.8189997
 105.2609992  58.0084990  50.6789997 106.0529992  58.5814990  50.1729997
 105.6819992  57.5084990  51.8479997 106.6569992  57.8274990  52.2429997
 104.9599992  56.4094990  52.5159997 103.8869992  56.4424990  52.2289997
 105.1419992  56.5504990  53.6029997 105.3769992  55.0224990  52.0569997
 105.1989992  55.0934990  50.9619997 104.7579992  54.2384990  52.5419997
 106.8449992  54.5974990  52.3139997 107.5349992  55.2454990  51.7309997
 106.9039992  53.5574990  51.9289997 107.3389992  54.6304990  53.8259997
 106.7599992  53.9994990  54.5339997 107.2199992  55.6624990  54.2189997
 108.8219992  54.2604990  54.0269997 108.9649992  53.2174990  53.6739997
 108.8949992  54.1154990  55.1259997 109.8509992  55.1944990  53.4249997
 109.7799992  56.2554990  53.7489997 109.6549992  55.2974990  52.3359997
 111.2639992  54.6704990  53.6619997 111.2669992  53.7434990  53.0489997
 111.4169992  54.3084990  54.7009997 112.3379992  55.5834990  53.1449997
 113.3349992  55.1304990  53.3339997 112.3269992  56.5774990  53.6409997
 112.2799992  55.6984990  52.0409997  57.3329992  37.4594990  55.8689997
  57.1639992  36.4004990  56.1589997  58.3039992  37.7914990  56.2949997
  57.4449992  37.3054990  54.7739997  56.1479992  38.2874990  56.2409997
  55.3359992  37.8554990  55.6169997  55.9989992  38.1664990  57.3349997
  56.2609992  39.8394990  56.1149997  57.2389992  40.1214990  56.5599997
  56.2349992  40.1404990  55.0449997  55.0899992  40.5644990  56.8849997
  55.1129992  40.2534990  57.9509997  55.1769992  41.6654990  56.7639997
  53.6839992  40.3974990  56.3159997  53.4769992  39.3154990  56.4599997
  52.9999992  41.0024990  56.9479997  53.5439992  40.8804990  54.8529997
  52.7759992  41.6674990  55.0099997  54.4949992  41.3614990  54.5399997
  53.2029992  39.7894990  53.8009997  54.0199992  39.0394990  53.8629997
  52.2579992  39.2724990  54.0719997  53.0119992  40.3024990  52.3429997
  52.8649992  39.4014990  51.7119997  52.0849992  40.8904990  52.1709997
  54.0999992  41.1534990  51.7339997  53.8889992  41.3034990  50.6529997
  54.1579992  42.1114990  52.2949997  55.4709992  40.5404990  51.8629997
  55.9709992  41.4764990  51.5339997  55.7299992  40.3244990  52.9209997
  55.6399992  39.3274990  50.8989997  56.6119992  38.8804990  51.1989997
  54.8399992  38.5974990  51.1439997  55.5439992  39.6684990  49.4059997
  54.5009992  39.9864990  49.1969997  56.2189992  40.5254990  49.1949997
  56.1129992  38.5694990  48.4859997  56.9799992  38.0504990  48.9479997
  55.4019992  37.7324990  48.3209997  56.5879992  39.2234990  47.0969997
  57.4499992  39.9184990  47.1879997  57.0249992  38.3304990  46.6009997
  55.5589992  39.9084990  46.2619997  54.7649992  39.2354990  45.8739997
  54.9299992  40.5104990  46.9519997  56.0739992  40.6054990  44.9809997
  56.4019992  41.7394990  44.8419997  56.2169992  39.6764990  44.0269997
  56.7339992  40.0104990  42.7249997  57.2149992  41.0064990  42.6279997
  57.3869992  39.1464990  42.4769997  55.5349992  39.9454990  41.7569997
  55.0389992  38.9654990  41.9289997  55.9929992  40.0134990  40.3059997
  56.8329992  39.2924990  40.2069997  55.1399992  39.7014990  39.6679997
  56.3969992  41.3504990  39.9079997  56.6919992  41.5094990  38.3589997
  55.1879992  41.5834990  37.8649997  54.5409992  42.8574990  37.9849997
  53.4449992  42.7284990  38.1189997  54.9959992  43.5434990  38.7319997
  54.6349992  43.6694990  36.6849997  54.1349992  44.6164990  36.8279997
  55.6899992  43.8794990  36.5819997  54.2219992  43.1864990  35.3079997
  55.0249992  41.9664990  34.9769997  54.4969992  41.1174990  35.3859997
  55.2059992  41.7314990  33.9389997  55.9839992  42.0924990  35.4589997
  52.7249992  42.8184990  35.0779997  52.3309992  42.3104990  35.9459997
  52.2269992  43.7714990  35.1769997  52.5439992  42.3614990  34.1159997
  54.6389992  44.2524990  34.3319997  54.0389992  45.1434990  34.4419997
  54.5639992  43.7814990  33.3629997  55.6899992  44.4384990  34.4959997
  57.4529992  42.7784990  38.2339997  57.3159992  40.3364990  37.7409997
  54.6399992  41.0254990  42.0699997  53.5759992  41.3614990  41.3059997
  53.2159992  40.7384990  40.3529997  52.8009992  42.5934990  41.8319997
  51.6989992  42.4594990  41.8079997  52.9439992  43.3354990  41.0179997
  53.2579992  43.0184990  43.2869997  52.9399992  44.0784990  43.3939997
  54.3579992  42.9894990  43.4369997  52.7459992  42.1264990  44.4189997
  53.0429992  41.0604990  44.3219997  51.6539992  42.1724990  44.2149997
  53.0769992  42.5884990  45.8319997  52.8149992  43.6674990  45.8749997
  54.1739992  42.4154990  45.7919997  52.2079992  41.9644990  46.8989997
  52.1009992  40.8634990  46.7949997  51.1469992  42.2614990  46.7589997
  52.4519992  42.4224990  48.3849997  53.4649992  42.0034990  48.5639997
  51.9349992  41.8144990  49.1579997  52.2389992  43.9474990  48.7459997
  52.2879992  44.0444990  49.8509997  51.1689992  44.1234990  48.5039997
  53.1639992  45.0344990  48.0949997  52.6119992  45.7044990  47.4189997
  54.5249992  45.1674990  48.2869997  55.0489992  45.8914990  47.6459997
  55.3059992  44.3154990  49.1789997  56.0009992  43.6154990  48.6689997
  54.6379992  43.6794990  49.7989997  56.0429992  45.0624990  50.3259997
  56.8279992  45.6604990  49.8139997  56.6089992  44.3004990  50.9029997
  55.1359992  45.8454990  51.2229997  54.1649992  45.3064990  51.2419997
  55.0099992  46.9074990  50.9219997  55.5749992  45.9494990  52.6699997
  54.9409992  46.7114990  53.1699997  56.6449992  46.2444990  52.7239997
  55.2759992  44.6794990  53.4719997  55.8789992  43.8354990  53.0719997
  54.2679992  44.2444990  53.2999997  55.5319992  44.9424990  54.9909997
  55.4729992  43.9364990  55.4589997  54.7109992  45.6354990  55.2749997
  56.8869992  45.6024990  55.2899997  57.0869992  46.6164990  54.8839997
  57.6419992  44.8684990  54.9339997  57.1379992  45.7484990  56.7849997
  57.0569992  44.7454990  57.2559997  56.2939992  46.2934990  57.2599997
  58.1699992  46.1094990  56.9819997  41.6919992  69.4204990  57.9329997
  42.7829992  69.5344990  57.7599997  41.2809992  68.4144990  58.1639997
  41.3029992  70.1564990  58.6689997  41.1089992  69.5734990  56.5509997
  39.9999992  69.5364990  56.5969997  41.2789992  70.5624990  56.0729997
  41.6119992  68.4614990  55.5859997  42.6719992  68.7424990  55.4129997
  41.5419992  67.5284990  56.1849997  40.7109992  68.3624990  54.3069997
  41.2559992  67.7144990  53.5879997  39.7319992  67.9464990  54.6289997
  40.5699992  69.7604990  53.5489997  39.9799992  70.4674990  54.1689997
  41.5799992  70.2004990  53.6959997  40.0019992  69.7274990  52.0689997
  39.9319992  70.7934990  51.7639997  40.6999992  69.1814990  51.3999997
  38.5859992  69.1654990  52.0009997  38.5369992  68.0564990  52.0339997
  37.9409992  69.4894990  52.8449997  37.7779992  69.6194990  50.7689997
  37.4199992  70.6444990  51.0049997  38.4279992  69.8674990  49.9029997
  36.6099992  68.6624990  50.4359997  37.0689992  67.6664990  50.2529997
  35.9399992  68.6614990  51.3219997  35.7739992  69.0414990  49.2019997
  34.7139992  68.7384990  49.3349997  35.6799992  70.1444990  49.2959997
  36.3279992  68.5754990  47.8809997  35.5229992  68.9824990  47.2329997
  37.2479992  69.1374990  47.6099997  36.4629992  67.0464990  47.6749997
  37.4439992  66.7184990  48.0789997  35.6959992  66.4994990  48.2629997
  36.4819992  66.5794990  46.2159997  36.6279992  65.5244990  45.9019997
  35.4529992  66.6774990  45.8089997  37.4609992  67.3354990  45.3149997
  37.3239992  68.4374990  45.3459997  38.4259992  67.3154990  45.8659997
  37.6039992  66.9394990  43.7949997  37.6019992  65.8304990  43.7379997
  36.6789992  67.3234990  43.3129997  38.8139992  67.5414990  43.0649997
  39.5779992  68.3904990  43.4619997  38.9139992  66.9624990  41.9429997
  39.9379992  67.2664990  40.9169997  40.9369992  67.4454990  41.3689997
  40.0609992  66.4164990  40.2139997  39.5529992  68.4464990  40.0309997
  38.8309992  68.0774990  39.2709997  40.7339992  69.0154990  39.1749997
  41.4409992  69.4654990  39.9049997  41.0919992  68.1384990  38.5949997
  40.3789992  70.1264990  38.2819997  40.1199992  69.7314990  36.8239997
  39.8929992  71.0784990  36.1339997  40.5909992  72.2364990  36.5999997
  41.6259992  72.0924990  36.9759997  40.9729992  72.7624990  35.6989997
  39.6829992  72.9404990  37.5859997  39.4119992  72.2654990  38.3839997
  40.2049992  73.7554990  38.0649997  38.3259992  73.4974990  37.1089997
  37.3799992  72.3834990  36.9139997  37.3129992  71.7644990  37.7959997
  36.4469992  72.8954990  36.7289997  37.6569992  71.7444990  36.0889997
  37.9119992  74.4484990  38.1919997  36.8799992  74.7374990  38.0509997
  37.9949992  73.9394990  39.1399997  38.5419992  75.3254990  38.1719997
  38.5059992  74.2814990  35.7499997  39.2919992  75.0064990  35.8989997
  37.5349992  74.7284990  35.6009997  38.7319992  73.5994990  34.9439997
  41.3239992  69.2484990  36.1919997  38.8679992  68.9404990  36.8889997
  38.9849992  69.4864990  40.8009997  37.8459992  70.0334990  40.4269997
  37.2699992  69.8354990  39.3589997  37.4949992  71.0424990  41.5809997
  36.9029992  70.5394990  42.3749997  36.7099992  71.6294990  41.0579997
  38.6699992  71.9744990  42.0019997  39.1289992  72.4124990  41.0899997
  39.5009992  71.3384990  42.3779997  38.3589992  73.2004990  42.9059997
  37.4899992  73.7164990  42.4449997  39.1539992  73.9764990  42.9239997
  37.9739992  72.8314990  44.2979997  37.1049992  72.1404990  44.3369997
  37.6099992  73.7694990  44.7689997  39.1669992  72.1904990  45.0689997
  39.9189992  73.0064990  45.0129997  39.4749992  71.2334990  44.5969997
  38.8929992  71.9024990  46.5169997  38.3799992  70.9164990  46.5379997
  38.2739992  72.6354990  47.0769997  40.1979992  71.8134990  47.3369997
  40.8399992  71.0534990  46.8419997  39.9429992  71.2744990  48.2739997
  40.8989992  73.0854990  47.6429997  41.1509992  73.7174990  46.7789997
  41.3649992  73.4524990  48.8899997  41.9329992  74.3944990  48.9019997
  41.3839992  72.6724990  50.2069997  42.3729992  72.2304990  50.4539997
  40.7179992  71.7854990  50.1449997  40.9309992  73.5364990  51.3649997
  41.5369992  74.4484990  51.5539997  40.9529992  72.7784990  52.1769997
  39.4689992  73.9204990  51.3019997  38.8669992  72.9914990  51.2089997
  39.3819992  74.5984990  50.4259997  39.1569992  74.7584990  52.5159997
  39.8129992  75.6514990  52.6019997  39.4319992  74.1954990  53.4329997
  37.7489992  75.2794990  52.6469997  37.5969992  76.1104990  51.9259997
  37.5749992  75.6524990  53.6789997  36.6579992  74.1584990  52.3859997
  36.6239992  73.8954990  51.3069997  35.7339992  74.6574990  52.7499997
  36.9029992  72.8814990  53.1919997  37.1069992  73.1684990  54.2459997
  37.8639992  72.3954990  52.9179997  35.8489992  71.8084990  53.1199997
  35.0039992  72.0604990  53.7959997  36.3749992  70.9304990  53.5519997
  35.5149992  71.5864990  52.0839997  46.5249992  88.8464990  54.8829997
  47.3269992  88.7894990  55.6499997  45.6249992  88.4434990  55.3949997
  46.3289992  89.9214990  54.6799997  46.8619992  88.1764990  53.5559997
  47.2759992  87.1574990  53.7129997  45.9519992  88.0704990  52.9279997
  48.0189992  88.8934990  52.7579997  47.6249992  89.9264990  52.6479997
  48.9909992  88.8024990  53.2879997  48.2159992  88.2464990  51.3839997
  49.0069992  88.7714990  50.8059997  48.6669992  87.2584990  51.6199997
  46.9479992  88.1444990  50.5879997  47.0359992  87.4314990  49.7409997
  46.1469992  87.6544990  51.1809997  46.4879992  89.4554990  49.8759997
  46.2789992  90.1774990  50.6939997  47.2899992  89.8744990  49.2309997
  45.2099992  89.4094990  49.0299997  45.2499992  88.4344990  48.4989997
  44.2929992  89.2674990  49.6399997  44.9309992  90.5904990  48.0429997
  43.8299992  90.6144990  47.8979997  45.2119992  91.5354990  48.5549997
  45.6439992  90.6464990  46.6149997  46.5959992  91.2064990  46.7349997
  45.9169992  89.6004990  46.3599997  44.7119992  91.2564990  45.5689997
  43.8899992  90.5194990  45.4459997  44.2479992  92.2384990  45.8029997
  45.3529992  91.3014990  44.1899997  44.8409992  92.1404990  43.6719997
  46.4429992  91.5174990  44.2069997  45.1199992  90.0754990  43.3179997
  45.3799992  89.1584990  43.8889997  44.0259992  89.9314990  43.1889997
  45.7769992  90.1234990  41.8679997  46.8649992  90.0824990  42.0919997
  45.5169992  89.1724990  41.3569997  45.5079992  91.3454990  40.9799997
  44.4179992  91.5424990  40.9009997  45.7609992  92.3264990  41.4369997
  46.1889992  91.2514990  39.6159997  46.0989992  90.2704990  39.1019997
  45.6929992  91.8674990  38.8349997  47.6589992  91.5444990  39.6189997
  48.3879992  91.7994990  40.6429997  48.0449992  91.5384990  38.4169997
  49.4849992  91.7804990  38.2099997  49.5209992  92.1594990  37.1669997
  49.9119992  92.4554990  38.9819997  50.2009992  90.4504990  38.2079997
  51.2409992  90.6464990  37.8679997  49.5269992  89.5064990  37.1839997
  49.2699992  90.1574990  36.3219997  50.3909992  88.8694990  36.8959997
  48.4109992  88.7374990  37.7699997  47.9999992  87.6104990  36.7829997
  46.7019992  87.1124990  37.3989997  46.4429992  85.7024990  37.7239997
  46.6989992  85.1184990  36.8149997  47.0349992  85.4414990  38.6269997
  44.9199992  85.5484990  37.8989997  44.6589992  84.5094990  38.0339997
  44.8419992  86.0114990  38.8709997  43.9619992  86.1424990  36.9069997
  44.1119992  87.6414990  36.6959997  45.1209992  87.9624990  36.4829997
  43.5339992  88.0954990  35.9039997  43.8649992  88.2204990  37.5739997
  44.2099992  85.5524990  35.5129997  45.2289992  85.7484990  35.2139997
  44.1959992  84.4734990  35.4749997  43.4939992  85.9674990  34.8189997
  42.7009992  85.7424990  37.4859997  41.9659992  86.1294990  36.7949997
  42.4259992  86.2404990  38.4039997  42.7809992  84.6654990  37.5079997
  47.7449992  88.2644990  35.4899997  49.0829992  86.5854990  36.8059997
  50.2819992  89.9074990  39.5019997  50.9669992  88.7554990  39.5989997
  51.6499992  88.3114990  38.7179997  50.9079992  88.2714990  41.0259997
  51.6599992  88.7644990  41.6779997  51.1579992  87.1994990  41.1799997
  49.5309992  88.6544990  41.7599997  48.8629992  88.5144990  40.8839997
  49.5279992  89.7214990  42.0679997  49.0679992  87.7114990  42.9039997
  48.6799992  86.7304990  42.5529997  48.2379992  88.3194990  43.3219997
  50.0859992  87.5954990  44.0149997  50.6619992  88.5314990  44.1779997
  50.9269992  86.9244990  43.7429997  49.4899992  87.2114990  45.3649997
  49.0149992  86.2124990  45.2579997  48.6139992  87.8304990  45.6549997
  50.5269992  87.2684990  46.4419997  50.7659992  88.3494990  46.5299997
  51.3389992  86.5944990  46.0949997  50.0219992  86.8154990  47.8239997
  49.0259992  87.2774990  47.9919997  50.5349992  87.3744990  48.6349997
  49.9869992  85.3804990  48.0329997  49.3869992  84.8354990  47.2889997
  50.7239992  84.7014990  48.9319997  50.5419992  83.6174990  48.9589997
  51.7369992  85.3314990  49.8219997  52.2359992  86.2384990  49.4189997
  52.5989992  84.6414990  49.9419997  51.3719992  85.7174990  51.2769997
  50.3719992  86.2004990  51.2329997  52.2059992  86.3614990  51.6309997
  51.3559992  84.4774990  52.1769997  52.3699992  84.4134990  52.6259997
  51.0919992  83.5714990  51.5909997  50.4399992  84.5464990  53.3729997
  50.3599992  83.5724990  53.9009997  49.4039992  84.6994990  53.0029997
  50.7679992  85.5904990  54.4629997  50.9249992  86.6244990  54.0879997
  51.7729992  85.4004990  54.8969997  49.6909992  85.6554990  55.5949997
  49.7599992  84.7844990  56.2809997  48.7419992  85.5134990  55.0359997
  49.7649992  87.0074990  56.3409997  49.6539992  87.8074990  55.5779997
  50.7569992  87.1794990  56.8089997  48.8119992  87.0704990  57.5089997
  49.0439992  87.9064990  58.2029997  48.8609992  86.0374990  57.9149997
  47.7739992  87.2384990  57.1489997 106.0109992  83.0354990  58.8929997
 105.9559992  81.9434990  59.0899997 105.6939992  83.6404990  59.7689997
 107.1209992  83.0604990  58.9099997 105.3609992  83.4334990  57.5729997
 104.2769992  83.4574990  57.8159997 105.5309992  84.5254990  57.4569997
 105.6419992  82.6934990  56.2869997 106.5939992  83.0644990  55.8509997
 105.6419992  81.6514990  56.6709997 104.6839992  82.8684990  55.0929997
 104.9969992  82.1824990  54.2769997 103.6299992  82.7624990  55.4289997
 104.7509992  84.3504990  54.5299997 104.1649992  85.0274990  55.1879997
 105.7879992  84.7304990  54.6479997 104.3129992  84.4024990  53.0349997
 105.0349992  83.7924990  52.4529997 103.3399992  83.8754990  52.9339997
 104.2349992  85.7884990  52.3329997 103.3919992  86.2354990  52.9029997
 105.0889992  86.4994990  52.3419997 103.5609992  85.7564990  50.8729997
 102.4959992  85.4384990  50.8819997 103.5079992  86.8294990  50.5919997
 104.4079992  84.9944990  49.8519997 104.3309992  83.9334990  50.1699997
 103.8709992  85.1314990  48.8889997 105.9129992  85.4424990  49.6639997
 105.9129992  86.5204990  49.3939997 106.3169992  85.3544990  50.6959997
 106.7749992  84.7874990  48.7299997 107.6989992  85.4034990  48.7509997
 107.0419992  83.7494990  49.0209997 106.1649992  84.6174990  47.3369997
 105.1189992  84.2514990  47.2589997 106.1289992  85.6394990  46.9029997
 107.0409992  83.6934990  46.4569997 108.0089992  84.2084990  46.2769997
 107.1979992  82.7234990  46.9749997 106.4289992  83.4204990  45.0809997
 105.3649992  83.2334990  45.3409997 106.3619992  84.3704990  44.5099997
 106.9019992  82.1744990  44.3339997 106.8819992  81.2654990  44.9719997
 106.1479992  81.9004990  43.5649997 108.2569992  82.4094990  43.6609997
 109.3569992  82.2074990  44.1679997 108.0589992  82.9474990  42.5039997
 109.2829992  83.1754990  41.7659997 109.7789992  84.1074990  42.1139997
 109.9819992  82.3274990  41.9289997 109.0409992  83.5704990  40.2509997
 108.1969992  83.0234990  39.7799997 110.2499992  83.1794990  39.3929997
 111.1759992  83.5294990  39.8969997 110.3159992  82.0754990  39.4939997
 110.2369992  83.6454990  38.1309997 109.1209992  83.4224990  37.0109997
 108.0879992  84.6194990  37.4369997 108.3039992  85.9034990  36.8599997
 109.2759992  86.2554990  37.2669997 108.3199992  85.7724990  35.7569997
 107.1789992  86.9854990  37.2019997 107.1989992  87.2694990  38.2439997
 107.5149992  87.8674990  36.6769997 105.7489992  86.7094990  36.8899997
 105.7719992  85.9664990  35.5629997 106.3429992  85.0524990  35.6319997
 104.7399992  85.8604990  35.2619997 106.2739992  86.5464990  34.8029997
 105.0219992  85.7404990  37.8139997 103.9939992  85.6754990  37.4909997
 105.4439992  84.8044990  37.4789997 105.0449992  86.0814990  38.8389997
 104.9469992  87.9754990  36.6829997 104.6939992  88.4714990  37.6079997
 104.0919992  87.5974990  36.1419997 105.4769992  88.6304990  36.0069997
 109.6949992  83.7384990  35.7159997 108.5539992  82.0664990  37.1649997
 108.7659992  85.0164990  40.1619997 107.5629992  85.3504990  40.5669997
 106.6729992  84.5354990  40.8289997 107.4799992  86.9694990  40.8349997
 106.6569992  87.3514990  40.1939997 108.4839992  87.4004990  40.6289997
 107.1159992  87.0954990  42.3209997 108.0389992  86.7154990  42.8099997
 106.1679992  86.5994990  42.6209997 106.7879992  88.5894990  42.7239997
 105.9079992  88.9564990  42.1529997 107.6479992  89.2454990  42.4719997
 106.4209992  88.9804990  44.1459997 105.5309992  88.3704990  44.4119997
 106.1499992  90.0334990  44.3719997 107.7429992  88.7074990  44.9679997
 108.5979992  89.2564990  44.5189997 107.8899992  87.6074990  44.9319997
 107.5449992  89.1814990  46.4459997 106.5369992  88.9564990  46.8549997
 107.7179992  90.2754990  46.5349997 108.4539992  88.6044990  47.5279997
 108.2449992  87.5264990  47.6949997 108.2929992  89.1554990  48.4789997
 109.9189992  88.7984990  47.2449997 110.3569992  89.8014990  47.1299997
 110.8919992  87.8304990  46.9849997 111.9099992  88.1824990  46.7599997
 110.7239992  86.3154990  46.9599997 111.1409992  85.7444990  46.1029997
 109.6399992  86.0914990  46.8759997 111.3779992  85.8594990  48.3309997
 112.4099992  86.2694990  48.2869997 111.4199992  84.7494990  48.3529997
 110.6769992  86.3524990  49.6179997 109.6409992  85.9514990  49.6419997
 110.5059992  87.4474990  49.5379997 111.4199992  86.0774990  50.9059997
 112.4639992  86.4544990  50.9609997 111.6919992  85.0114990  51.0639997
 110.6859992  86.5634990  52.2339997 109.7609992  87.0804990  51.8999997
 111.4019992  87.3384990  52.5829997 110.4199992  85.4204990  53.2259997
 111.3299992  84.7904990  53.3259997 109.5759992  84.9284990  52.6969997
 109.9939992  85.9164990  54.6439997 109.7319992  84.9734990  55.1679997
 109.1019992  86.5494990  54.4519997 111.0749992  86.8774990  55.3069997
 111.1099992  87.8884990  54.8469997 112.0249992  86.3024990  55.3179997
 110.7979992  87.0844990  56.3629997  40.0419992  45.5674990  56.6169997
  40.5579992  46.2044990  55.8669997  39.8029992  46.2154990  57.4869997
  39.0369992  45.3544990  56.1939997  40.5129992  44.1734990  56.8899997
  41.6019992  43.9594990  56.9399997  39.9679992  43.9264990  57.8259997
  40.1369992  42.9044990  56.0199997  40.4449992  42.0014990  56.5909997
  39.0299992  42.9744990  55.9629997  40.7589992  42.8834990  54.6189997
  40.5299992  43.8704990  54.1629997  41.8649992  42.8194990  54.7039997
  40.2929992  41.6134990  53.8529997  40.3039992  40.8454990  54.6549997
  39.2269992  41.6554990  53.5409997  41.2609992  41.2134990  52.6719997
  42.3249992  41.1564990  52.9869997  40.8749992  40.1794990  52.5459997
  41.1489992  42.0404990  51.3559997  40.1269992  42.4634990  51.2489997
  41.7309992  42.9814990  51.4559997  41.3219992  41.3344990  50.0979997
  42.3799992  41.0164990  49.9879997  40.6039992  40.4864990  50.0909997
  40.9329992  42.2174990  48.8609997  39.8619992  42.5034990  48.9369997
  41.5229992  43.1584990  48.8889997  41.2139992  41.5074990  47.4669997
  42.1949992  40.9874990  47.4309997  40.4959992  40.6794990  47.2839997
  41.4109992  42.3564990  46.2459997  40.4479992  42.8724990  46.0469997
  42.2209992  43.0984990  46.4129997  41.6969992  41.5104990  44.9919997
  42.5279992  40.8524990  45.3249997  40.8729992  40.8264990  44.6979997
  42.0899992  42.2784990  43.7049997  41.1169992  42.7524990  43.4519997
  42.8149992  43.0974990  43.9019997  42.5419992  41.4064990  42.5539997
  42.6419992  42.0154990  41.6299997  43.5299992  41.0124990  42.8719997
  41.6919992  40.0634990  42.3429997  42.4329992  39.4054990  41.8419997
  41.4189992  39.4964990  43.2589997  40.5429992  40.3554990  41.5129997
  40.4529992  39.8604990  40.3769997  39.6519992  41.1304990  42.1549997
  38.3149992  41.3554990  41.4779997  38.3369992  40.8064990  40.5119997
  37.3979992  40.9584990  41.9619997  38.1649992  42.8524990  41.0349997
  37.1049992  43.1054990  40.8219997  38.9129992  43.1604990  39.6719997
  38.6239992  42.3994990  38.9169997  38.6959992  44.1784990  39.2819997
  40.3139992  42.9884990  39.9559997  41.3249992  43.0104990  38.7239997
  40.7459992  44.0964990  37.7249997  41.0699992  43.9544990  36.2979997
  42.1729992  43.8524990  36.2129997  40.6729992  42.9974990  35.8949997
  40.7089992  45.2124990  35.4739997  41.1929992  46.0974990  35.8589997
  41.0589992  44.9714990  34.4809997  39.2639992  45.6504990  35.3539997
  38.6019992  44.7254990  34.3179997  37.5459992  44.9464990  34.2829997
  39.1339992  44.8414990  33.3849997  38.8369992  43.7054990  34.5819997
  38.5339992  45.5684990  36.6689997  38.4549992  44.5224990  36.9239997
  39.1629992  46.0964990  37.3699997  37.5449992  45.9964990  36.5969997
  39.1639992  47.0404990  34.7909997  39.8309992  47.2094990  33.9589997
  39.4649992  47.7404990  35.5559997  38.1449992  47.3004990  34.5479997
  42.6339992  43.5414990  39.1469997  41.3269992  41.6854990  38.0149997
  38.6489992  43.6434990  42.1599997  37.8089992  43.9164990  43.1979997
  36.6909992  43.4144990  43.3459997  38.3749992  45.0414990  44.0769997
  38.5289992  45.9664990  43.4809997  39.3699992  44.7264990  44.4589997
  37.4999992  45.2084990  45.3369997  37.4969992  44.3464990  46.0379997
  36.4609992  45.3724990  44.9809997  38.0249992  46.3964990  46.1649997
  37.2499992  46.6334990  46.9239997  38.1279992  47.2244990  45.4299997
  39.3999992  46.1604990  46.8779997  40.1029992  47.0054990  46.7189997
  39.8449992  45.1744990  46.6239997  39.1469992  46.0984990  48.4119997
  38.5569992  45.1654990  48.5389997  38.4259992  46.8964990  48.6869997
  40.3899992  46.0554990  49.3049997  40.9709992  47.0024990  49.2829997
  41.0789992  45.2574990  48.9519997  40.1029992  45.7164990  50.8019997
  41.0549992  45.4364990  51.3019997  39.4709992  44.8024990  50.8219997
  39.5189992  46.9374990  51.4129997  40.3429992  47.6344990  51.6249997
  38.3069992  47.0774990  51.9979997  38.0069992  47.9844990  52.5429997
  37.2989992  45.9684990  52.0679997  37.7519992  44.9534990  52.0559997
  36.7329992  45.8564990  51.1189997  36.2039992  45.9964990  53.0669997
  36.7979992  45.8274990  53.9899997  35.6009992  45.0644990  53.0929997
  35.3419992  47.2694990  53.1539997  34.7869992  47.4174990  52.2029997
  36.0269992  48.1434990  53.1979997  34.2959992  47.0904990  54.2379997
  33.5019992  46.4144990  53.8559997  33.8839992  48.1134990  54.3769997
  34.8509992  46.5134990  55.5949997  35.2169992  45.4994990  55.3299997
  33.9899992  46.3204990  56.2699997  35.6909992  47.4714990  56.4459997
  35.3219992  48.5174990  56.3889997  36.7069992  47.4214990  55.9979997
  35.7899992  47.1404990  57.9409997  35.0739992  47.7524990  58.5299997
  36.8119992  47.4874990  58.2059997  35.6779992  45.6824990  58.3079997
  36.1909992  45.4484990  59.2649997  36.2289992  45.0454990  57.5829997
  34.6459992  45.3064990  58.4709997  98.8919992  40.6254990  57.5179997
  97.8239992  40.9254990  57.5889997  99.3869992  40.9444990  58.4589997
  98.9009992  39.5184990  57.4259997  99.6139992  41.4054990  56.4389997
  99.5029992  42.4994990  56.5979997 100.7089992  41.2304990  56.5029997
  99.1169992  41.3064990  54.9239997  99.2949992  40.3144990  54.4579997
  98.0219992  41.4914990  54.9629997  99.6869992  42.3844990  53.9399997
  99.3769992  43.3864990  54.3059997 100.7959992  42.3394990  53.9019997
  99.2159992  42.2844990  52.5199997  99.5149992  43.2334990  52.0259997
  99.5759992  41.3414990  52.0549997  97.6669992  42.2954990  52.3559997
  97.1569992  41.5404990  52.9919997  97.3079992  43.2644990  52.7649997
  97.2469992  42.3834990  50.9069997  98.0029992  41.8844990  50.2629997
  96.2429992  41.9144990  50.8229997  97.0879992  43.8414990  50.3859997
  96.5269992  44.5214990  51.0619997  98.1129992  44.2424990  50.2319997
  96.4989992  43.8564990  48.9399997  97.1069992  43.2314990  48.2509997
  95.5269992  43.3184990  48.9839997  96.3409992  45.2724990  48.4849997
  95.4209992  45.1994990  47.8659997  96.1429992  45.8714990  49.3989997
  97.6849992  45.8524990  47.8209997  97.4289992  46.8294990  47.3559997
  98.4469992  46.0894990  48.5939997  98.3009992  45.0264990  46.6699997
  98.9809992  45.6634990  46.0639997  99.0059992  44.3654990  47.2169997
  97.3129992  44.2544990  45.7989997  96.6019992  43.6504990  46.4019997
  96.6519992  44.9274990  45.2119997  98.0189992  43.3624990  44.9149997
  98.5509992  42.6064990  45.5299997  97.3829992  42.7004990  44.2889997
  99.0149992  44.0444990  43.9729997  98.4269992  44.9234990  43.6299997
  99.9299992  44.3814990  44.5049997  99.4039992  43.1864990  42.7529997
  99.7949992  42.0304990  42.8299997  99.2599992  43.8984990  41.6729997
  99.4559992  43.2084990  40.3799997 100.0749992  43.8904990  39.7589997
  99.9609992  42.2204990  40.3349997  98.1299992  42.9054990  39.6789997
  97.5779992  42.0954990  40.2029997  98.4499992  42.3664990  38.2549997
  99.0769992  43.0494990  37.6419997  98.9369992  41.3724990  38.3549997
  97.2599992  42.2464990  37.4699997  96.7679992  40.9244990  36.7679997
  95.1869992  40.8254990  36.9419997  94.6049992  41.4924990  38.0939997
  93.5919992  41.0484990  38.1949997  95.1539992  41.3404990  39.0469997
  94.3079992  43.0004990  38.0249997  93.7619992  43.1364990  38.9469997
  95.2649992  43.4864990  37.9069997  93.5089992  43.4944990  36.8699997
  92.0809992  42.7874990  36.8129997  91.5139992  43.3964990  36.1239997
  92.0689992  41.7874990  36.4059997  91.7389992  42.8154990  37.8369997
  93.3649992  44.9984990  37.1039997  93.0459992  45.1844990  38.1189997
  94.2899992  45.5054990  36.8719997  92.5369992  45.3764990  36.5219997
  94.1209992  43.1934990  35.5879997  95.0689992  43.7074990  35.5219997
  93.5329992  43.5044990  34.7369997  94.3629992  42.1414990  35.5699997
  97.0799992  41.0534990  35.2939997  97.1269992  39.6954990  37.5049997
  97.3559992  44.0494990  39.6529997  96.5169992  44.2224990  40.6319997
  96.1159992  43.4294990  41.4549997  96.0829992  45.6694990  40.5839997
  95.8659992  45.9054990  39.5199997  96.9039992  46.3554990  40.8839997
  94.6949992  45.9964990  41.3919997  94.0239992  45.1234990  41.2479997
  94.1759992  46.8974990  40.9999997  94.9119992  46.0814990  42.9099997
  95.1019992  47.1224990  43.2499997  95.7829992  45.5614990  43.3639997
  93.7299992  45.6444990  43.7529997  93.4349992  44.6384990  43.3849997
  92.9119992  46.3394990  43.4649997  93.7529992  45.5404990  45.2769997
  93.9699992  46.6084990  45.4919997  94.5769992  44.9454990  45.7269997
  92.4079992  45.0814990  45.9179997  91.6969992  45.8814990  45.6189997
  92.5719992  45.0644990  47.0159997  91.8189992  43.6744990  45.6239997
  91.4209992  43.6384990  44.5879997  90.9599992  43.5474990  46.3169997
  92.8649992  42.5604990  45.8499997  93.7639992  42.7994990  45.2619997
  92.7889992  41.4514990  46.6899997  93.7259992  40.8764990  46.7329997
  91.5609992  41.1164990  47.5589997  91.4179992  40.0194990  47.6649997
  90.6429992  41.4804990  47.0499997  91.7329992  41.5094990  49.0319997
  92.4599992  40.9794990  49.6829997  90.8559992  41.5874990  49.7089997
  92.0609992  42.9814990  49.2729997  91.4849992  43.5654990  48.5239997
  93.1119992  43.1214990  48.9429997  92.0309992  43.5164990  50.8119997
  91.0599992  43.2044990  51.2519997  92.1689992  44.6154990  50.9049997
  93.1259992  42.7734990  51.7209997  94.1569992  43.1034990  51.4689997
  92.9829992  41.6994990  51.4749997  92.8349992  42.8154990  53.2629997
  91.7969992  42.4824990  53.4759997  92.8869992  43.8334990  53.7049997
  93.7669992  41.8284990  54.0819997  94.8119992  42.1964990  54.1529997
  93.7129992  40.8914990  53.4869997  93.3169992  41.4954990  55.5019997
  94.0109992  40.8214990  56.0469997  92.2879992  41.0944990  55.6279997
  93.2699992  42.4754990  56.0219997  63.2829992  38.4104990  56.7129997
  63.5529992  37.3584990  56.4799997  62.4289992  38.5184990  57.4159997
  64.1859992  38.9654990  57.0439997  62.8599992  39.1594990  55.3439997
  61.9239992  38.6884990  54.9759997  62.7019992  40.2524990  55.4659997
  64.0159992  38.9714990  54.3049997  65.0049992  39.2514990  54.7269997
  64.2479992  37.8934990  54.1729997  63.6799992  39.6814990  52.9809997
  63.4699992  40.7344990  53.2689997  64.5159992  39.5434990  52.2629997
  62.5439992  39.0334990  52.2489997  63.0069992  38.1924990  51.6909997
  61.8929992  38.6004990  53.0379997  61.7569992  39.9154990  51.2639997
  60.8419992  39.3144990  51.0729997  61.4049992  40.8754990  51.6979997
  62.5029992  40.2004990  49.9189997  63.5369992  40.5944990  50.0149997
  62.5799992  39.2564990  49.3379997  61.6799992  41.1374990  49.0469997
  61.2099992  41.9504990  49.6399997  62.2529992  41.7194990  48.2939997
  60.3599992  40.4814990  48.4269997  59.7819992  40.0554990  49.2749997
  59.7649992  41.2794990  47.9339997  60.4389992  39.4114990  47.3659997
  61.0809992  38.5844990  47.7379997  59.4719992  38.8964990  47.1779997
  61.1279992  39.8794990  46.0889997  60.5669992  40.7904990  45.7909997
  62.1559992  40.2604990  46.2709997  60.8009992  38.7634990  45.0669997
  61.4459992  37.8774990  45.2519997  59.7349992  38.4584990  44.9899997
  61.3669992  39.1664990  43.6939997  62.4529992  38.9584990  43.5849997
  60.7329992  38.5054990  43.0649997  60.8219992  40.5844990  43.1649997
  59.7129992  40.5544990  43.1049997  61.1739992  41.3494990  43.8899997
  61.3409992  40.8604990  41.7789997  61.4689992  39.8734990  41.2859997
  60.5909992  41.3294990  41.1059997  62.5759992  41.8304990  41.6319997
  62.9489992  42.6934990  42.4189997  63.1039992  41.5614990  40.4849997
  64.2039992  42.2464990  39.9999997  64.0809992  42.2934990  38.8969997
  64.2919992  43.2514990  40.4669997  65.4849992  41.3344990  40.1539997
  66.3149992  41.9834990  39.8009997  65.4039992  39.9704990  39.3369997
  65.1609992  40.2564990  38.2919997  66.4459992  39.5844990  39.3609997
  64.4009992  39.0954990  39.8129997  64.3599992  37.6364990  39.0689997
  63.6179992  38.0994990  37.7779997  64.0669992  37.6974990  36.5449997
  64.8509992  38.3794990  36.1519997  64.6769992  36.7694990  36.5699997
  63.0009992  37.6314990  35.3949997  63.4689992  37.3134990  34.4749997
  62.2829992  36.8514990  35.6019997  62.2179992  38.8994990  34.9599997
  61.0819992  39.2664990  35.9479997  60.4579992  38.4164990  36.1789997
  61.4389992  39.8014990  36.8159997  60.4489992  39.9394990  35.3879997
  63.1269992  40.0114990  34.6469997  62.6809992  40.9904990  34.5589997
  63.7579992  40.1624990  35.5109997  63.6959992  39.7794990  33.7589997
  61.5519992  38.5604990  33.6209997  62.0089992  37.7404990  33.0869997
  61.5079992  39.4294990  32.9809997  60.5879992  38.1804990  33.9249997
  65.7799992  37.1874990  38.8549997  63.4789992  36.7134990  39.8399997
  65.5599992  40.9064990  41.4919997  66.2599992  41.6724990  42.2869997
  66.5149992  42.8624990  42.1769997  66.5869992  40.8314990  43.5149997
  67.3469992  41.2254990  44.2239997  66.9749992  39.8804990  43.0909997
  65.2909992  40.8074990  44.4719997  64.3939992  40.3104990  44.0439997
  64.9199992  41.8374990  44.6619997  65.4909992  40.1764990  45.8689997
  64.4579992  39.9764990  46.2269997  65.9649992  40.9094990  46.5559997
  66.2239992  38.8114990  45.8019997  67.2879992  39.0534990  45.5899997
  65.8289992  38.2334990  44.9399997  66.2469992  37.9584990  47.1459997
  66.4769992  38.6394990  47.9929997  67.0129992  37.1564990  47.0909997
  64.8799992  37.3544990  47.5409997  64.7729992  36.6284990  46.7079997
  64.0839992  38.1284990  47.4969997  64.8079992  36.6014990  48.8799997
  63.8909992  35.9804990  48.9739997  65.0949992  37.3274990  49.6709997
  65.8959992  35.5204990  48.9429997  66.0419992  34.9774990  47.9969997
  66.6639992  35.2914990  50.0189997  67.3779992  34.4564990  50.0839997
  66.6799992  36.0504990  51.3449997  66.4919992  35.3114990  52.1519997
  65.8489992  36.7834990  51.4229997  67.9509992  36.8454990  51.6069997
  68.3469992  37.1534990  50.6159997  68.7319992  36.1984990  52.0609997
  67.5439992  37.9754990  52.5469997  66.9199992  37.4654990  53.3109997
  66.7879992  38.6254990  52.0559997  68.6669992  38.9264990  53.1719997
  69.3349992  39.3224990  52.3769997  69.3359992  38.2064990  53.6909997
  68.1999992  40.0704990  54.0979997  69.0749992  40.2084990  54.7689997
  67.4549992  39.8144990  54.8819997  67.9519992  41.4484990  53.4139997
  67.2709992  41.3564990  52.5419997  68.8879992  41.7584990  52.9029997
  67.5249992  42.5144990  54.4339997  67.7459992  43.4824990  53.9349997
  68.1399992  42.3854990  55.3499997  66.0609992  42.4824990  54.9139997
  65.3439992  42.5444990  54.0669997  65.8169992  43.0774990  55.8199997
  65.9179992  41.4184990  55.1999997 103.4349992  47.8774990  55.2149997
 103.7829992  48.5754990  56.0059997 102.6439992  47.1784990  55.5619997
 103.0769992  48.4354990  54.3229997 104.5909992  46.8664990  54.9319997
 104.8259992  46.3204990  55.8699997 104.3149992  46.0494990  54.2319997
 105.9239992  47.4084990  54.4139997 105.4789992  47.8854990  53.5149997
 106.2719992  48.1564990  55.1569997 106.9599992  46.3314990  54.0869997
 107.5159992  45.9394990  54.9659997 106.4159992  45.4834990  53.6179997
 108.0269992  46.6864990  53.0129997 108.5349992  47.5794990  53.4349997
 108.7799992  45.8694990  53.0159997 107.5749992  46.9384990  51.5909997
 106.6059992  47.4814990  51.5929997 108.2279992  47.6724990  51.0719997
 107.3879992  45.6574990  50.8209997 108.4009992  45.2314990  50.6529997
 106.7799992  44.9484990  51.4219997 106.6869992  45.7094990  49.4379997
 106.2969992  44.6884990  49.2369997 105.8859992  46.3564990  49.8529997
 107.5269992  46.3114990  48.2379997 107.6709992  47.3324990  48.6509997
 108.4719992  45.7624990  48.0379997 106.6419992  46.5034990  46.9849997
 106.4419992  45.4934990  46.5689997 105.6499992  46.8294990  47.3669997
 107.2249992  47.6604990  46.1389997 107.5269992  48.5224990  46.7719997
 108.2469992  47.3334990  45.8529997 106.3879992  48.1374990  44.9389997
 105.9179992  47.2504990  44.4629997 105.6039992  48.8344990  45.3049997
 107.1249992  48.8854990  43.8309997 106.3629992  49.2234990  43.0969997
 107.6989992  49.7114990  44.3029997 108.0249992  47.8454990  43.0519997
 108.8809992  47.6284990  43.7249997 107.4909992  46.9034990  42.8039997
 108.7209992  48.4164990  41.7879997 108.9699992  49.4924990  41.9069997
 109.6359992  47.8364990  41.5439997 107.7219992  48.1314990  40.6809997
 106.5219992  48.4364990  40.7199997 108.2929992  47.6194990  39.6439997
 107.6819992  47.1824990  38.4249997 106.9799992  47.9734990  38.0849997
 108.4549992  47.1794990  37.6259997 107.2049992  45.7454990  38.5939997
 108.0549992  45.1324990  38.9599997 106.7319992  45.1554990  37.2499997
 107.5959992  45.4614990  36.6209997 106.6399992  44.0484990  37.2379997
 105.5149992  45.8624990  36.8709997 104.6959992  45.4244990  35.6029997
 103.2119992  45.8574990  35.8829997 102.8639992  47.2674990  35.9589997
 103.7789992  47.8194990  36.2629997 102.4289992  47.5664990  34.9819997
 101.7189992  47.5524990  37.0069997 101.5659992  48.6144990  37.1229997
 100.8109992  47.1904990  36.5469997 101.8799992  47.0794990  38.3809997
 101.6929992  45.6204990  38.6499997 102.4819992  45.0474990  38.1849997
 101.7459992  45.5264990  39.7239997 100.7009992  45.2844990  38.3899997
 103.2099992  47.4764990  39.0379997 103.1269992  46.9584990  39.9829997
 104.0659992  47.1374990  38.4739997 103.1599992  48.5494990  39.1499997
 100.7979992  47.8934990  39.1269997 101.0639992  48.9194990  38.9209997
 100.9539992  47.7264990  40.1829997  99.8049992  47.6514990  38.7779997
 105.1369992  46.2654990  34.4889997 104.7479992  43.9494990  35.4649997
 106.1409992  45.7334990  39.5509997 105.9419992  44.6114990  40.2999997
 106.5519992  43.5724990  40.1179997 104.8019992  44.7054990  41.2789997
 103.8359992  44.8064990  40.7389997 104.8799992  45.6454990  41.8669997
 104.7329992  43.4884990  42.2699997 104.6069992  42.5094990  41.7599997
 103.7589992  43.6614990  42.7749997 105.8819992  43.3634990  43.2939997
 105.4569992  43.8464990  44.1989997 106.7649992  43.8974990  42.8809997
 106.2559992  41.9074990  43.6109997 107.2349992  41.8194990  44.1309997
 106.4589992  41.4574990  42.6159997 105.2239992  41.0724990  44.2699997
 105.4399992  39.9874990  44.1639997 104.2829992  41.2614990  43.7109997
 105.1039992  41.2404990  45.8589997 106.1639992  41.2254990  46.1949997
 104.5039992  40.4254990  46.3169997 104.4969992  42.5534990  46.3579997
 105.2739992  43.3374990  46.2279997 104.2949992  42.5264990  47.4499997
 103.1759992  42.8544990  45.6469997 102.8189992  42.0404990  44.9989997
 102.6389992  44.1044990  45.5999997 101.6809992  44.2704990  45.0849997
 103.2249992  45.2674990  46.2499997 103.5389992  46.0804990  45.5599997
 104.1789992  45.1224990  46.8009997 102.4919992  45.8464990  47.4629997
 101.4639992  46.1834990  47.2099997 102.9949992  46.8134990  47.6779997
 102.5369992  45.0934990  48.7359997 103.5969992  45.0454990  49.0649997
 102.2979992  44.0384990  48.4829997 101.6179992  45.7144990  49.8279997
 100.5369992  45.5134990  49.6679997 101.5609992  46.8214990  49.7579997
 102.0489992  45.4384990  51.3039997 101.7019992  46.3164990  51.8899997
 103.1559992  45.4354990  51.3889997 101.3499992  44.1784990  51.8799997
 100.7319992  43.6924990  51.0949997 100.7249992  44.5014990  52.7399997
 102.2489992  43.0324990  52.4389997 102.6679992  42.3644990  51.6559997
 101.4489992  42.5024990  52.9999997 103.5329992  43.3284990  53.1639997
 103.7079992  42.4374990  53.8039997 103.4389992  44.1944990  53.8529997
 104.3399992  43.4114990  52.4059997  82.6099992  95.9094990  54.4099997
  83.7179992  95.9014990  54.3329997  82.2109992  94.8874990  54.5869997
  82.2499992  96.5254990  55.2619997  82.1409992  96.5744990  53.0929997
  81.0529992  96.7734990  53.1999997  82.5499992  97.6054990  53.0359997
  82.5329992  95.6934990  51.9309997  83.6009992  95.4414990  52.1059997
  81.8569992  94.8154990  51.9989997  82.3939992  96.3484990  50.5229997
  81.4569992  96.8994990  50.2919997  83.2729992  97.0054990  50.3499997
  82.5419992  95.2734990  49.4259997  83.4229992  94.6884990  49.7639997
  81.6969992  94.5664990  49.5669997  82.8129992  95.7034990  47.9449997
  83.8589992  96.0784990  47.9389997  82.8399992  94.7854990  47.3199997
  81.7149992  96.4514990  47.1579997  80.7849992  95.8524990  47.0569997
  81.4319992  97.3714990  47.7129997  82.1399992  96.8064990  45.7279997
  82.8379992  97.6674990  45.7999997  82.7429992  95.9564990  45.3409997
  80.9809992  97.0744990  44.7779997  81.2969992  97.2244990  43.7239997
  80.3219992  96.1854990  44.8759997  80.0669992  98.2854990  45.0879997
  79.4469992  98.4914990  44.1899997  79.3859992  97.9604990  45.9029997
  80.6969992  99.6194990  45.4079997  80.8869992  99.5594990  46.5009997
  81.7029992  99.7704990  44.9599997  79.8099992 100.8534990  45.2449997
  79.5159992 100.9604990  44.1779997  78.8509992 100.7144990  45.7869997
  80.4989992 102.1834990  45.6969997  79.7559992 103.0094990  45.6579997
  80.8589992 102.1254990  46.7459997  81.8069992 102.5124990  44.9269997
  82.4939992 103.1644990  45.5079997  82.3539992 101.5544990  44.7939997
  81.6359992 103.1594990  43.4989997  80.7429992 103.8194990  43.5259997
  82.5009992 103.8094990  43.2449997  81.4079992 102.1574990  42.3379997
  81.1689992 102.5404990  41.1939997  81.5179992 100.9134990  42.7329997
  81.1929992  99.7734990  41.8279997  80.6119992  99.0824990  42.4759997
  80.3849992 100.0554990  41.1199997  82.4169992  99.0544990  41.2499997
  82.9699992  99.8024990  40.6439997  81.9509992  97.8814990  40.3269997
  81.2669992  97.2764990  40.9589997  81.3699992  98.1464990  39.4179997
  83.1459992  97.1864990  40.0169997  84.1329992  97.5864990  38.8389997
  83.1869992  98.2824990  37.6989997  83.0559992  99.6894990  37.5779997
  82.2489992 100.1144990  38.2129997  84.0419992 100.1644990  37.7669997
  82.7089992 100.0704990  36.1029997  81.6849992  99.8034990  35.8899997
  82.6169992 101.1454990  36.1479997  83.6459992  99.5964990  34.9899997
  83.5159992  98.1214990  34.7069997  82.4769992  97.8994990  34.5129997
  84.1719992  97.8924990  33.8789997  83.9819992  97.6284990  35.5479997
  83.1829992 100.2044990  33.7009997  82.1469992  99.9194990  33.5989997
  83.1249992 101.2784990  33.7999997  83.8109992 100.0014990  32.8469997
  85.0679992  99.9484990  35.3029997  85.2899992  99.2834990  36.1249997
  85.0629992 100.9464990  35.7169997  85.6359992  99.8374990  34.3909997
  85.1119992  98.6184990  39.3309997  84.7129992  96.3384990  38.2029997
  83.2349992  98.5294990  42.3459997  84.2649992  99.1294990  42.6159997
  84.6299992 100.2704990  42.3499997  85.1789992  98.2274990  43.4359997
  86.0159992  97.9544990  42.7589997  84.8409992  97.2404990  43.8179997
  85.7049992  98.9724990  44.6849997  85.8549992 100.0404990  44.4209997
  86.7269992  98.5984990  44.9099997  84.9559992  98.8814990  45.9659997
  84.9089992  97.8424990  46.3559997  83.9569992  99.3424990  45.8049997
  85.4789992  99.8744990  47.0349997  85.9719992 100.7614990  46.5819997
  86.2859992  99.3894990  47.6249997  84.3139992 100.4854990  47.9539997
  83.5929992 100.9894990  47.2749997  84.8109992 101.2524990  48.5869997
  83.7629992  99.4184990  48.8799997  84.5699992  99.0824990  49.5659997
  83.5749992  98.5094990  48.2689997  82.5449992  99.7894990  49.8109997
  82.9349992 100.6054990  50.4559997  82.2869992  99.0414990  50.5909997
  81.3899992 100.4344990  49.1179997  81.5259992 100.9204990  48.1409997
  80.1519992 100.4574990  49.6029997  79.4229992 100.9964990  48.9809997
  79.6869992  99.8314990  50.8889997  80.5119992  99.2804990  51.3899997
  78.8899992  99.1224990  50.5789997  78.8709992 100.7774990  51.7889997
  78.4169992 100.1414990  52.5779997  77.9909992 101.1744990  51.2399997
  79.6329992 101.9594990  52.3629997  78.9739992 102.6624990  52.9159997
  80.1869992 102.4584990  51.5389997  80.8179992 101.4354990  53.2869997
  81.2399992 100.4564990  52.9739997  80.4209992 101.1484990  54.2839997
  81.9929992 102.4474990  53.4109997  81.6179992 103.4564990  53.6849997
  82.5369992 102.5624990  52.4489997  83.1189992 102.0504990  54.3569997
  82.6619992 101.5624990  55.2439997  83.7259992 102.9414990  54.6269997
  84.1859992 101.2954990  53.5989997  84.3529992 101.9284990  52.7019997
  83.7249992 100.3364990  53.2769997  85.4679992 101.0014990  54.3719997
  85.9299992 101.9504990  54.7179997  86.0889992 100.2984990  53.7769997
  85.2999992 100.3924990  55.2869997  89.2179992  94.7994990  55.6959997
  88.5059992  93.9474990  55.6819997  88.9129992  95.4494990  54.8479997
  89.0339992  95.3724990  56.6299997  90.6619992  94.3004990  55.5949997
  91.3689992  95.1514990  55.4959997  90.8669992  93.7954990  56.5629997
  91.0229992  93.4914990  54.3469997  92.1059992  93.2664990  54.4529997
  90.4269992  92.5614990  54.4619997  90.6959992  94.1084990  52.9759997
  89.6259992  94.4064990  52.9879997  91.3989992  94.9684990  53.0039997
  90.9129992  93.1504990  51.7999997  91.8779992  92.6294990  51.9769997
  90.0779992  92.4194990  51.8699997  90.8869992  93.8684990  50.5159997
  91.8449992  94.3894990  50.2999997  90.7679992  93.1384990  49.6869997
  89.8569992  95.0094990  50.3019997  88.8469992  94.5854990  50.4879997
  90.1379992  95.7104990  51.1169997  89.8639992  95.7094990  48.9899997
  89.5369992  94.9834990  48.2149997  89.1399992  96.5514990  49.0349997
  91.1769992  96.4164990  48.5509997  91.4929992  97.0414990  49.4129997
  91.9029992  95.5764990  48.5039997  91.1419992  97.3314990  47.2279997
  90.3919992  98.1454990  47.3289997  92.1069992  97.8804990  47.2689997
  90.8229992  96.7384990  45.8659997  91.6699992  96.0604990  45.6269997
  89.8849992  96.1454990  45.9169997  90.8429992  97.7434990  44.6909997
  90.1789992  98.5824990  44.9909997  91.8749992  98.1424990  44.5919997
  90.3739992  97.2044990  43.3479997  90.9549992  96.2594990  43.2879997
  89.3329992  96.8334990  43.4599997  90.6859992  98.1134990  42.1509997
  90.1639992  97.7624990  41.2359997  90.2949992  99.0654990  42.5709997
  92.1259992  98.5384990  41.8389997  92.5179992  99.1164990  42.7029997
  92.6569992  97.6034990  41.5589997  92.1849992  99.4404990  40.6189997
  91.2779992 100.1344990  40.2559997  93.3799992  99.2574990  40.0239997
  93.4949992  99.8294990  38.7019997  92.7439992 100.5844990  38.3849997
  94.3589992 100.5044990  38.8829997  93.8519992  98.8764990  37.5689997
  94.0029992  99.4884990  36.6539997  92.5879992  97.9444990  37.3239997
  91.7619992  98.6364990  37.0519997  92.8019992  97.3824990  36.3889997
  92.2489992  97.1314990  38.4169997  91.2309992  95.8664990  38.3229997
  91.9819992  94.9344990  37.4279997  91.6129992  94.4984990  36.0839997
  90.5059992  94.5354990  35.9939997  91.8399992  95.2614990  35.3099997
  91.9969992  93.0914990  35.7929997  91.4719992  92.4854990  36.5159997
  91.5329992  92.9744990  34.8249997  93.4669992  92.6584990  35.7869997
  94.0279992  92.5854990  37.1879997  93.5539992  91.8884990  37.8639997
  95.0769992  92.4034990  37.0069997  94.0379992  93.5974990  37.5639997
  93.5359992  91.3124990  35.1559997  94.5189992  90.8994990  35.3259997
  92.9569992  90.5864990  35.7069997  93.2949992  91.3814990  34.1059997
  94.1929992  93.5224990  34.9149997  95.2569992  93.3524990  34.9979997
  94.2279992  94.5724990  35.1669997  93.8799992  93.3244990  33.9009997
  91.0569992  95.2884990  39.6619997  89.8939992  96.2434990  37.7179997
  95.0299992  98.0834990  37.8769997  95.5869992  97.4514990  36.8749997
  95.3329992  97.5824990  35.6829997  96.3979992  96.3064990  37.4429997
  97.2609992  96.6924990  38.0279997  96.7299992  95.6394990  36.6189997
  95.5119992  95.4294990  38.3989997  95.8859992  94.3904990  38.2799997
  94.4929992  95.4714990  37.9599997  95.6359992  95.8214990  39.8559997
  94.8049992  95.4754990  40.5069997  95.6629992  96.9314990  39.8999997
  96.9829992  95.1994990  40.4139997  97.5349992  96.1414990  40.6199997
  97.5309992  94.6934990  39.5909997  97.0229992  94.4794990  41.7239997
  97.9089992  93.8254990  41.5789997  96.0919992  93.8804990  41.8239997
  97.2309992  95.3264990  42.9319997  98.0609992  96.0604990  42.8499997
  97.4959992  94.5574990  43.6889997  95.9409992  95.9364990  43.3379997
  95.3949992  96.4034990  42.4909997  96.2069992  96.7104990  44.0899997
  94.9079992  94.9914990  44.0189997  94.4109992  94.3594990  43.2679997
  94.5249992  95.0254990  45.3069997  93.7539992  94.2984990  45.5999997
  94.9439992  95.9284990  46.4299997  94.1449992  96.3764990  47.0589997
  95.6489992  96.7264990  46.1109997  95.8609992  95.1994990  47.5089997
  96.8039992  94.9324990  46.9859997  95.3179992  94.2774990  47.8079997
  96.0869992  95.9954990  48.8279997  96.5439992  96.9944990  48.6619997
  96.8329992  95.3954990  49.3919997  94.8119992  96.2204990  49.6319997
  94.2459992  95.2824990  49.8179997  94.1819992  96.8974990  49.0159997
  95.1059992  96.9604990  50.9719997  96.1419992  97.3584990  51.0259997
  95.1199992  96.1764990  51.7589997  94.1449992  98.1374990  51.3139997
  93.8249992  98.6594990  50.3869997  94.7179992  98.8064990  51.9919997
  92.9459992  97.5484990  52.0189997  92.7869992  96.5334990  51.5959997
  92.0229992  98.1424990  51.8489997  93.1989992  97.4414990  53.5229997
  94.2049992  97.0284990  53.7519997  92.5149992  96.6704990  53.9379997
  93.2279992  98.4004990  54.0819997  59.2109992 105.6864990  58.1559997
  59.9109992 105.7364990  59.0179997  59.1349992 104.6084990  57.9019997
  58.1489992 105.9334990  58.3689997  59.8749992 106.5764990  57.0679997
  60.0189992 107.5914990  57.4959997  60.8769992 106.0994990  57.0059997
  59.0559992 106.7304990  55.7309997  58.7379992 105.7184990  55.4009997
  58.0679992 107.2014990  55.9169997  59.7089992 107.4804990  54.5239997
  58.9999992 107.8924990  53.7739997  59.9289992 108.3934990  55.1179997
  60.9819992 106.9224990  53.9309997  61.7059992 106.9204990  54.7729997
  60.9189992 105.8864990  53.5339997  61.6529992 107.8624990  52.9409997
  60.9509992 107.9474990  52.0839997  61.7029992 108.8854990  53.3729997
  62.9869992 107.3634990  52.4229997  63.7059992 107.4094990  53.2679997
  62.8749992 106.2754990  52.2259997  63.5219992 108.1414990  51.2179997
  63.3879992 109.2364990  51.3469997  64.5909992 107.9224990  51.0089997
  62.6539992 108.0394990  49.9199997  61.5859992 108.2274990  50.1599997
  63.1129992 108.7894990  49.2399997  62.8139992 106.6654990  49.2139997
  62.3349992 105.8864990  49.8449997  62.1919992 106.6684990  48.2939997
  64.2449992 106.4164990  48.8549997  64.6329992 107.3904990  48.4899997
  64.8239992 106.0444990  49.7269997  64.3509992 105.3154990  47.7539997
  65.4299992 105.0804990  47.6329997  63.8689992 104.4074990  48.1749997
  63.6459992 105.6934990  46.4359997  62.5519992 105.8574990  46.5369997
  64.1759992 106.5414990  45.9519997  63.7599992 104.5524990  45.4099997
  64.8109992 104.1934990  45.3749997  63.2149992 103.6334990  45.7119997
  63.5379992 105.0934990  43.9989997  62.4939992 105.4394990  43.8469997
  64.2159992 105.9614990  43.8519997  63.9539992 104.1714990  42.8229997
  65.0919992 103.7544990  42.7249997  62.9809992 103.8754990  41.9599997
  63.5259992 102.9684990  40.9689997  64.4289992 103.4134990  40.4979997
  63.8499992 101.9724990  41.3409997  62.5129992 102.5994990  39.7909997
  63.0749992 101.8594990  39.1809997  62.2179992 103.8444990  38.9559997
  63.1359992 104.4014990  38.6709997  61.7259992 103.5214990  38.0139997
  61.4159992 104.6924990  39.7339997  60.9529992 106.0594990  39.2289997
  60.9459992 106.1354990  37.6429997  59.6919992 106.0474990  36.9889997
  58.9979992 105.2674990  37.3669997  59.1119992 106.9214990  37.3549997
  59.5419992 105.9424990  35.4099997  58.5149992 105.6894990  35.1939997
  59.8009992 106.8624990  34.9069997  60.3909992 104.9084990  34.6759997
  59.8719992 103.5474990  35.0539997  60.5669992 102.8864990  34.5569997
  59.8839992 103.4744990  36.1319997  58.8929992 103.4924990  34.6019997
  60.3879992 105.1364990  33.1829997  60.8359992 106.1084990  33.0389997
  60.9589992 104.3964990  32.6419997  59.3279992 105.1234990  32.9769997
  61.8269992 105.0584990  35.1249997  61.8039992 104.9344990  36.1979997
  62.1939992 106.0504990  34.9099997  62.4979992 104.4374990  34.5499997
  59.5759992 106.3504990  39.6949997  61.9989992 106.9504990  39.7329997
  61.3049992 102.1634990  40.2839997  60.3539992 101.6284990  39.4129997
  60.4759992 101.4204990  38.2439997  59.0749992 101.3064990  40.1869997
  59.0609992 100.1974990  40.2409997  58.3079992 101.6094990  39.4429997
  59.0189992 102.0384990  41.5549997  57.9449992 101.9434990  41.8219997
  59.1939992 103.1204990  41.3729997  59.8039992 101.2814990  42.6909997
  60.7649992 101.7954990  42.9079997  60.0709992 100.2364990  42.4249997
  58.9079992 100.9924990  43.9239997  59.6209992 100.6534990  44.7049997
  58.1899992 100.1594990  43.7649997  58.1079992 102.2024990  44.4629997
  57.0939992 102.0814990  44.0249997  58.6709992 103.1074990  44.1479997
  57.9809992 102.3144990  46.0459997  57.3989992 101.4244990  46.3659997
  57.3399992 103.2124990  46.1759997  59.3269992 102.4614990  46.8479997
  59.6679992 103.3814990  46.3269997  59.9769992 101.5964990  46.5959997
  59.0549992 102.6214990  48.3089997  58.0269992 103.0004990  48.4079997
  59.8929992 102.3974990  49.3729997  59.5479992 102.8264990  50.3249997
  61.2929992 101.9784990  49.2589997  61.5029992 102.0604990  48.1709997
  61.3509992 100.9254990  49.6089997  62.2959992 102.7174990  50.1719997
  62.2099992 103.7924990  49.9059997  63.3379992 102.4044990  49.9459997
  62.0729992 102.6464990  51.7179997  61.9389992 101.5704990  51.9609997
  61.1589992 103.2404990  51.9319997  63.2019992 103.1854990  52.6229997
  63.3749992 104.2804990  52.5509997  64.1449992 102.6844990  52.3139997
  63.0009992 102.8114990  54.0719997  62.6759992 101.7774990  54.3159997
  62.1219992 103.3964990  54.4179997  64.1729992 103.0744990  55.0539997
  64.4069992 104.1584990  54.9969997  65.1089992 102.5434990  54.7769997
  63.7769992 102.6354990  56.4969997  64.6589992 102.3834990  57.1239997
  63.2829992 101.6554990  56.3209997  62.7909992 103.5744990  57.3719997
  63.3639992 104.5174990  57.5019997  62.7289992 103.3114990  58.4499997
  61.8179992 103.7914990  56.8809997  35.9669992  78.1164990  57.2749997
  35.7339992  77.0514990  57.0619997  34.9989992  78.6514990  57.1679997
  36.3839992  78.3584990  58.2749997  36.9629992  78.6264990  56.2219997
  37.3679992  79.6204990  56.5089997  37.7809992  77.8764990  56.1609997
  36.4299992  78.7774990  54.7269997  35.8999992  77.8844990  54.3319997
  35.6939992  79.6024990  54.8339997  37.5819992  79.1034990  53.7949997
  38.2799992  79.8444990  54.2399997  38.2239992  78.2064990  53.6629997
  37.0859992  79.7574990  52.4739997  36.3509992  79.1384990  51.9159997
  36.5659992  80.6924990  52.7719997  38.2679992  80.0194990  51.5629997
  38.9749992  80.7494990  52.0119997  38.8359992  79.0784990  51.4039997
  37.9279992  80.4644990  50.0739997  37.0689992  81.1664990  50.1159997
  38.7979992  80.9024990  49.5389997  37.3929992  79.2274990  49.2459997
  36.6279992  78.7414990  49.8899997  36.8549992  79.6964990  48.3949997
  38.4129992  78.2064990  48.7799997  39.1879992  78.0664990  49.5639997
  37.9079992  77.2224990  48.6769997  39.2599992  78.5404990  47.4999997
  39.8489992  79.4814990  47.5509997  40.0649992  77.7774990  47.4399997
  38.4269992  78.4584990  46.1679997  37.7849992  79.3594990  46.2719997
  39.0959992  78.6894990  45.3109997  37.5749992  77.2104990  45.9139997
  38.1789992  76.2984990  46.1099997  36.7119992  77.3494990  46.5989997
  36.9769992  77.1614990  44.4459997  37.7559992  76.8364990  43.7239997
  36.1819992  76.3854990  44.4719997  36.4369992  78.4624990  43.9529997
  35.6959992  78.7784990  44.7179997  37.2299992  79.2414990  43.9509997
  35.7459992  78.3604990  42.5849997  36.4289992  78.3344990  41.7079997
  35.3069992  77.3404990  42.5539997  34.6419992  79.4634990  42.4729997
  33.9019992  79.8324990  43.3559997  34.6349992  80.0254990  41.1939997
  33.8199992  81.1344990  40.9679997  32.8349992  80.7134990  40.6719997
  33.6049992  81.6854990  41.9089997  34.5719992  82.0994990  39.9739997
  33.9669992  83.0174990  39.8099997  34.8269992  81.4164990  38.6209997
  35.3989992  80.4754990  38.7729997  33.8129992  81.1274990  38.2719997
  35.4559992  82.3124990  37.6699997  36.2839992  81.6594990  36.5249997
  37.4169992  80.9654990  37.3739997  38.2079992  81.7794990  38.1639997
  38.2599992  82.8634990  37.9249997  37.7489992  81.8024990  39.1759997
  39.6939992  81.2214990  38.2469997  40.2149992  81.6694990  39.0799997
  39.7309992  80.1534990  38.4059997  40.6329992  81.5544990  37.0609997
  41.9199992  80.8554990  37.1569997  42.5649992  81.0994990  37.9879997
  41.8079992  79.7814990  37.1679997  42.4559992  81.0724990  36.2439997
  39.9119992  81.1474990  35.7749997  38.9109992  81.5524990  35.7699997
  40.2609992  81.5484990  34.8349997  39.8299992  80.0704990  35.7419997
  40.8349992  83.0384990  37.0219997  41.2399992  83.2284990  36.0389997
  41.3869992  83.2904990  37.9159997  39.8999992  83.5714990  37.1039997
  35.3649992  80.7294990  35.9019997  36.8809992  82.6734990  35.5749997
  35.8219992  82.4754990  40.4419997  35.7109992  83.3314990  41.4679997
  34.6529992  83.7644990  41.9399997  37.1179992  83.3724990  42.0489997
  37.3709992  84.4294990  42.2789997  37.8389992  82.8674990  41.3699997
  37.0969992  82.6114990  43.3369997  36.7309992  81.5924990  43.0869997
  36.4009992  82.9864990  44.1169997  38.5439992  82.5924990  43.9119997
  38.9519992  83.6214990  43.8189997  39.0779992  81.9044990  43.2209997
  38.7359992  82.2034990  45.4029997  39.7739992  82.3094990  45.7839997
  38.4259992  81.1434990  45.5259997  37.8219992  82.9834990  46.4219997
  37.6479992  82.2994990  47.2799997  36.8039992  83.2184990  46.0419997
  38.4559992  84.2984990  46.9219997  38.7909992  84.9074990  46.0549997
  39.4279992  84.0034990  47.3719997  37.5459992  85.0044990  48.0139997
  38.2239992  85.6824990  48.5759997  37.2669992  84.1324990  48.6429997
  36.3609992  85.8854990  47.6519997  36.4989992  86.5144990  46.7599997
  35.1549992  85.7964990  48.1989997  34.3589992  86.4524990  47.8169997
  34.8609992  84.8264990  49.3759997  35.3979992  83.8564990  49.3029997
  33.7669992  84.6314990  49.3539997  35.2119992  85.3004990  50.7379997
  34.5589992  86.1434990  51.0479997  36.2519992  85.6624990  50.5939997
  35.1839992  84.2174990  51.7469997  35.9599992  83.4494990  51.5439997
  34.2169992  83.6704990  51.7369997  35.3659992  84.7514990  53.2169997
  35.2959992  83.9084990  53.9369997  34.4859992  85.3874990  53.4519997
  36.6909992  85.4904990  53.3719997  36.6859992  86.4014990  52.7349997
  37.5029992  84.7664990  53.1439997  36.7739992  86.0674990  54.8289997
  35.8669992  86.6654990  55.0599997  37.6089992  86.7934990  54.7299997
  37.0699992  85.0544990  55.9559997  38.0689992  84.5934990  55.8009997
  36.3169992  84.2504990  55.8039997  36.8379992  85.6834990  57.3339997
  35.7639992  85.9514990  57.4299997  37.4089992  86.6354990  57.3869997
  37.1409992  85.0144990  58.1669997 119.4379992  64.8604990  53.9569997
 119.2579992  63.8734990  54.4339997 118.7119992  65.5714990  54.4069997
 120.4529992  65.1844990  54.2699997 119.3379992  64.7994990  52.4879997
 120.0019992  65.4694990  51.9009997 119.7649992  63.8164990  52.1949997
 117.8749992  64.8204990  52.0409997 117.3189992  64.0274990  52.5839997
 117.5809992  65.8604990  52.2989997 117.6959992  64.6514990  50.5449997
 118.2909992  65.4454990  50.0449997 118.1589992  63.6904990  50.2349997
 116.2069992  64.7054990  50.0919997 115.6709992  63.8894990  50.6219997
 115.7439992  65.7104990  50.1999997 116.0969992  64.4494990  48.6319997
 116.5769992  63.4954990  48.3259997 115.0329992  64.2764990  48.3639997
 116.6309992  65.6244990  47.7719997 116.2119992  66.5614990  48.1969997
 117.7329992  65.6684990  47.9099997 116.1469992  65.3844990  46.3669997
 116.4319992  64.3654990  46.0289997 115.0399992  65.4484990  46.4309997
 116.6409992  66.5404990  45.4869997 116.3759992  66.2224990  44.4569997
 116.1999992  67.5144990  45.7899997 118.1819992  66.6294990  45.3769997
 118.3699992  67.6524990  45.7669997 118.5919992  65.8194990  46.0169997
 118.7549992  66.4234990  43.9609997 118.1829992  65.5384990  43.6079997
 118.3899992  67.3284990  43.4299997 120.2679992  66.1474990  43.9109997
 120.9219992  67.0304990  44.0749997 120.5619992  65.4794990  44.7479997
 120.7539992  65.4974990  42.6359997 120.3589992  64.4614990  42.5679997
 120.4899992  66.0644990  41.7179997 122.2659992  65.2274990  42.8109997
 122.7729992  66.2114990  42.9069997 122.5039992  64.7834990  43.8019997
 122.8139992  64.3584990  41.6379997 122.6149992  64.8624990  40.6679997
 123.9169992  64.3974990  41.7659997 122.2919992  62.9594990  41.5939997
 122.4909992  62.0774990  42.3589997 121.4809992  62.8114990  40.4099997
 121.1889992  61.4484990  40.0469997 121.5309992  61.2384990  39.0109997
 121.6539992  60.6924990  40.7139997 119.6149992  61.3634990  40.0099997
 119.4529992  60.3224990  39.6569997 119.0209992  62.1584990  38.8619997
 119.3679992  61.7464990  37.8909997 117.9199992  62.0214990  38.9209997
 119.2269992  63.5544990  39.0779997 118.1689992  64.6194990  39.0969997
 117.4449992  64.3704990  37.7019997 117.8369992  64.9094990  36.4979997
 117.5659992  65.9854990  36.4569997 118.9449992  64.8794990  36.4159997
 117.0809992  64.1894990  35.2989997 116.0729992  64.2764990  35.6759997
 117.2779992  64.7904990  34.4229997 117.3429992  62.7634990  34.9799997
 118.7449992  62.4974990  34.9029997 119.1199992  63.0704990  34.0679997
 119.3149992  62.7894990  35.7719997 118.8549992  61.4384990  34.7159997
 116.7089992  61.9034990  36.0549997 115.6589992  62.1384990  36.1409997
 116.8459992  60.8624990  35.8019997 117.1459992  62.0984990  37.0229997
 116.8039992  62.3994990  33.5679997 115.7279992  62.4984990  33.5559997
 116.9349992  61.3344990  33.4479997 117.3099992  62.9774990  32.8099997
 117.2539992  64.3134990  40.2239997 118.7819992  65.9554990  39.0689997
 119.0349992  61.7864990  41.2439997 117.9849992  61.1274990  41.6939997
 117.3939992  60.2454990  41.0869997 117.3719992  61.6294990  43.0139997
 116.3789992  61.1324990  43.0479997 117.1949992  62.7264990  43.0339997
 118.1859992  61.1684990  44.3229997 119.2469992  61.4964990  44.2799997
 118.2519992  60.0624990  44.2449997 117.7039992  61.5024990  45.6689997
 116.7199992  61.0104990  45.8269997 117.5509992  62.6024990  45.6489997
 118.5819992  61.3014990  46.8909997 118.7369992  60.2224990  47.1029997
 117.9489992  61.7354990  47.6939997 119.9039992  62.1094990  46.8629997
 119.6519992  63.0884990  46.4029997 120.6559992  61.5434990  46.2729997
 120.4959992  62.5714990  48.1789997 119.7639992  63.2644990  48.6459997
 121.4619992  63.0984990  48.0259997 120.5489992  61.5184990  49.2939997
 119.5139992  61.1824990  49.5189997 120.8689992  62.0274990  50.2279997
 121.4569992  60.2974990  48.9349997 120.9359992  59.3744990  48.6429997
 122.7239992  60.1994990  49.2529997 123.2769992  59.2554990  49.1309997
 123.4929992  61.3854990  49.9749997 123.2939992  62.3504990  49.4599997
 124.5809992  61.1764990  49.8959997 123.2929992  61.6814990  51.4369997
 122.2999992  62.0814990  51.7339997 124.0819992  62.2724990  51.9499997
 123.3859992  60.4214990  52.3189997 124.4949992  60.3884990  52.3639997
 123.1209992  59.5014990  51.7549997 122.5979992  60.4024990  53.6239997
 122.7749992  59.4914990  54.2359997 121.5289992  60.6454990  53.4409997
 122.9449992  61.6214990  54.5549997 122.7929992  62.5714990  53.9999997
 124.0289992  61.6504990  54.7969997 122.1739992  61.7154990  55.8649997
 122.2429992  60.6954990  56.2989997 121.0929992  61.8994990  55.6859997
 122.7469992  62.6874990  56.8769997 123.8419992  62.5014990  56.8319997
 122.3829992  62.4024990  57.8869997 122.5249992  64.2044990  56.5079997
 121.6009992  64.7114990  56.8579997 122.5639992  64.2444990  55.3979997
 123.3949992  64.8084990  56.8459997  89.3229992  37.1224990  53.7129997
  89.8509992  36.6474990  52.8579997  90.0359992  37.2274990  54.5589997
  88.7289992  38.0304990  53.4749997  88.4209992  35.9454990  54.1529997
  89.1709992  35.1304990  54.2419997  88.0259992  36.0824990  55.1819997
  87.3299992  35.6684990  53.2019997  86.4569992  36.3294990  53.3909997
  87.6439992  35.6164990  52.1379997  86.6189992  34.3794990  53.4879997
  87.2039992  33.5684990  53.0029997  86.6479992  34.1124990  54.5659997
  85.1369992  34.2384990  53.0269997  84.6539992  33.3894990  53.5579997
  84.6159992  35.1904990  53.2619997  84.9809992  34.0704990  51.4859997
  85.5359992  34.8544990  50.9279997  85.4339992  33.1064990  51.1699997
  83.5349992  34.2764990  51.0729997  82.8719992  33.5354990  51.5699997
  83.3759992  35.3314990  51.3839997  83.2639992  34.2114990  49.5339997
  84.1829992  34.4874990  48.9739997  83.1589992  33.1124990  49.4029997
  82.0169992  35.0754990  49.0819997  81.7049992  34.3744990  48.2789997
  81.2559992  34.9854990  49.8859997  82.2849992  36.5324990  48.7149997
  82.2679992  37.1404990  49.6449997  83.2909992  36.6064990  48.2499997
  81.1959992  37.1524990  47.7859997  81.2389992  36.6074990  46.8189997
  80.2119992  36.9084990  48.2409997  81.3109992  38.6504990  47.5349997
  80.5199992  39.1684990  46.9519997  81.2189992  39.1064990  48.5439997
  82.7489992  39.0374990  46.9909997  82.8399992  40.1384990  47.1079997
  83.5729992  38.6724990  47.6409997  83.0659992  38.6414990  45.5429997
  84.0969992  38.7944990  45.1599997  82.9399992  37.5494990  45.7019997
  82.0879992  39.2524990  44.5619997  81.1289992  38.7054990  44.6859997
  81.9959992  40.3394990  44.7739997  82.5679992  39.1224990  43.2039997
  83.5659992  39.7524990  42.8549997  81.9809992  38.1884990  42.4639997
  82.4359992  37.7384990  41.1379997  81.7659992  36.9154990  40.8089997
  82.2249992  38.5054990  40.3629997  83.9549992  37.4044990  41.1099997
  84.5769992  38.3114990  40.9549997  84.1859992  36.5634990  39.8479997
  83.6019992  35.6544990  40.1069997  83.6229992  36.8494990  38.9339997
  85.4529992  36.0714990  39.6179997  86.6349992  36.9674990  38.9999997
  85.8539992  37.3954990  37.6549997  85.8089992  36.5154990  36.5549997
  85.9029992  35.4384990  36.8129997  84.8799992  36.5804990  35.9489997
  87.0109992  36.7654990  35.5429997  87.9279992  36.5594990  36.0749997
  86.8649992  36.0204990  34.7749997  87.1759992  38.2064990  35.0319997
  87.9999992  39.0544990  36.0449997  87.4409992  38.9164990  36.9589997
  88.9619992  38.5624990  36.0589997  88.0999992  40.0484990  35.6349997
  87.8949992  38.2334990  33.6749997  88.7839992  37.6274990  33.7579997
  87.2109992  37.8294990  32.9429997  88.1019992  39.2104990  33.2639997
  85.8629992  38.8894990  34.8769997  85.3059992  38.8184990  35.7999997
  85.1579992  38.4324990  34.1969997  85.9239992  39.9204990  34.5619997
  86.9489992  38.1714990  39.7959997  87.7759992  36.0934990  38.6759997
  84.3279992  36.5374990  42.1929997  85.4779992  36.7714990  42.8019997
  86.1979992  37.7484990  42.5829997  85.9149992  35.6964990  43.8079997
  85.6909992  34.7714990  43.2359997  85.2309992  35.8114990  44.6759997
  87.3719992  35.8564990  44.1669997  87.8869992  36.1674990  43.2329997
  87.7809992  34.8924990  44.5399997  87.6049992  36.9234990  45.3019997
  86.9389992  37.8124990  45.2609997  88.6989992  37.0934990  45.2139997
  87.2139992  36.4434990  46.6779997  87.7469992  35.4744990  46.7829997
  86.1199992  36.3274990  46.5209997  87.3849992  37.4604990  47.8409997
  87.2259992  38.5154990  47.5319997  88.4319992  37.4174990  48.2089997
  86.4239992  37.1734990  48.9749997  86.7959992  36.2184990  49.4039997
  85.4229992  37.1434990  48.4929997  86.5559992  38.1754990  50.1429997
  87.6259992  38.1144990  50.4349997  85.9169992  37.8284990  50.9839997
  86.0659992  39.5604990  49.7919997  86.8039992  40.0844990  49.1669997
  84.8369992  40.0554990  50.1039997  84.6129992  41.0654990  49.7279997
  83.6899992  39.4434990  50.7609997  83.5239992  38.4054990  50.4009997
  82.8529992  40.1004990  50.4429997  83.8829992  39.4494990  52.3199997
  83.7609992  40.4754990  52.7279997  84.8369992  38.9914990  52.6599997
  82.8339992  38.6594990  53.0219997  82.8849992  37.6294990  52.6079997
  81.8479992  39.1104990  52.7769997  82.9969992  38.6074990  54.5619997
  82.1009992  38.1534990  55.0359997  83.0819992  39.6754990  54.8559997
  84.1549992  37.9054990  55.0949997  85.0179992  38.2234990  54.4719997
  83.9429992  36.8244990  54.9549997  84.4929992  38.1874990  56.5239997
  83.7899992  37.6414990  57.1889997  84.3189992  39.2704990  56.7039997
  85.9169992  37.7544990  56.8399997  86.2739992  38.4184990  57.6559997
  86.6579992  37.9034990  56.0259997  86.0539992  36.2704990  57.2309997
  87.1129992  36.1124990  57.5259997  85.7179992  35.6764990  56.3549997
  85.4579992  35.9944990  58.1269997  44.9269992  95.4394990  57.4269997
  44.4179992  95.7974990  58.3469997  45.9319992  95.1084990  57.7659997
  44.3539992  94.5154990  57.1979997  45.0739992  96.4364990  56.2389997
  45.7029992  97.3104990  56.5099997  45.5539992  95.9214990  55.3789997
  43.6959992  97.0414990  55.6389997  43.3679992  97.7444990  56.4339997
  43.9929992  97.6424990  54.7529997  42.5479992  96.0854990  55.2139997
  42.1599992  95.6224990  56.1459997  41.7839992  96.6974990  54.6889997
  43.0559992  94.9694990  54.2659997  44.0189992  94.5224990  54.5939997
  42.3549992  94.1134990  54.3649997  43.1429992  95.2414990  52.7429997
  42.1999992  94.9904990  52.2109997  43.3779992  96.3174990  52.6019997
  44.2599992  94.5074990  52.0159997  45.1889992  94.9884990  52.3899997
  44.1829992  93.4344990  52.2929997  44.2189992  94.6084990  50.4749997
  43.2639992  94.2214990  50.0599997  44.3219992  95.6674990  50.1549997
  45.2159992  93.7664990  49.8009997  46.1939992  94.1744990  50.1349997
  45.1529992  92.7194990  50.1679997  45.1389992  93.6964990  48.2649997
  44.0879992  93.5764990  47.9249997  45.5699992  94.5794990  47.7469997
  46.0579992  92.5974990  47.7039997  46.9499992  92.6454990  48.3639997
  45.6369992  91.5844990  47.8809997  46.3489992  92.7944990  46.1519997
  47.0359992  93.6554990  46.0099997  46.8909992  91.9214990  45.7299997
  45.1769992  93.0094990  45.2549997  44.5669992  93.8894990  45.5489997
  45.5429992  93.1474990  44.2149997  44.3729992  91.7684990  45.0729997
  45.0019992  90.8524990  45.0729997  43.8369992  91.6244990  46.0349997
  43.3959992  91.8774990  43.9259997  42.4649992  91.3054990  44.1289997
  43.1159992  92.9514990  43.9789997  43.9489992  91.3344990  42.6239997
  45.0539992  90.7774990  42.4869997  43.1849992  91.5584990  41.5869997
  43.7049992  91.2074990  40.2549997  44.5239992  90.4564990  40.2309997
  42.8859992  90.6084990  39.8019997  44.1449992  92.4944990  39.5379997
  43.2739992  93.1794990  39.4639997  44.7249992  92.1884990  38.1359997
  45.6829992  91.6354990  38.2389997  43.9059992  91.6404990  37.6219997
  44.7909992  93.5104990  37.4849997  46.1079992  94.0844990  36.9589997
  46.0499992  95.5724990  37.5449997  44.9769992  96.4684990  37.2399997
  44.8019992  96.4954990  36.1439997  44.0089992  96.2084990  37.7189997
  45.3779992  97.8524990  37.6279997  44.4999992  98.4674990  37.7659997
  45.7679992  97.8234990  38.6349997  46.4039992  98.6214990  36.7789997
  45.7009992  99.1054990  35.5579997  44.8529992  99.6474990  35.9509997
  46.2199992  99.8674990  34.9949997  45.3239992  98.2654990  34.9929997
  46.7799992  99.9004990  37.4999997  47.2629992  99.5964990  38.4159997
  47.4689992 100.4884990  36.9119997  45.9329992 100.5144990  37.7679997
  47.6349992  97.8534990  36.6239997  47.9589992  97.4684990  37.5799997
  48.3519992  98.5314990  36.1849997  47.5729992  96.9714990  36.0039997
  47.2259992  93.3384990  37.6909997  46.1929992  94.1514990  35.4619997
  45.2359992  93.1334990  40.2249997  45.0089992  94.2834990  40.9069997
  44.0379992  94.9974990  40.8229997  46.2989992  94.5764990  41.6509997
  47.0829992  94.8104990  40.8989997  46.6599992  93.6374990  42.1239997
  45.9359992  95.6934990  42.6179997  45.1359992  95.3604990  43.3129997
  45.5549992  96.5784990  42.0659997  47.0719992  96.2244990  43.5979997
  48.0339992  96.4244990  43.0799997  47.3239992  95.3134990  44.1829997
  46.6649992  97.4594990  44.4319997  45.7069992  97.2954990  44.9709997
  46.5149992  98.2964990  43.7179997  47.7499992  97.8394990  45.3969997
  47.4669992  98.7864990  45.9029997  48.7329992  98.0134990  44.9079997
  47.9869992  96.8004990  46.4969997  48.1979992  95.7554990  46.1819997
  47.0219992  96.6834990  47.0339997  49.1279992  97.1644990  47.5279997
  49.9889992  97.2364990  46.8289997  49.3789992  96.3244990  48.2089997
  49.1339992  98.4254990  48.3169997  49.9449992  99.1234990  48.0629997
  48.2489992  98.8034990  49.2609997  48.3959992  99.7254990  49.8439997
  47.0619992  97.9834990  49.6739997  46.8399992  97.2354990  48.8819997
  46.1539992  98.6194990  49.7399997  47.1989992  97.0594990  50.9539997
  47.9009992  96.2474990  50.6659997  46.2069992  96.5854990  51.1119997
  47.5189992  97.8104990  52.2719997  46.6459992  98.4974990  52.2959997
  48.3839992  98.5004990  52.1699997  47.7449992  96.8694990  53.4669997
  46.9349992  96.1094990  53.4469997  47.6219992  97.5004990  54.3729997
  49.1019992  96.1994990  53.3059997  49.8999992  96.9614990  53.1759997
  49.1259992  95.5254990  52.4239997  49.3469992  95.2884990  54.5309997
  49.3179992  95.8534990  55.4879997  50.3439992  94.8014990  54.5109997
  48.5439992  94.0284990  54.7149997  48.7619992  93.3244990  53.8829997
  47.4969992  94.3984990  54.6859997  48.8109992  93.2484990  56.0439997
  49.8489992  92.8844990  56.1999997  48.0909992  92.4064990  56.1269997
  48.5709992  93.8984990  56.9129997 101.6909992  86.9164990  53.7819997
 102.5119992  86.6434990  54.4799997 101.6799992  86.2554990  52.8889997
 100.7509992  86.7064990  54.3359997 101.6349992  88.4234990  53.3759997
 102.3229992  88.4574990  52.5039997 100.6339992  88.7344990  53.0069997
 101.9829992  89.4014990  54.5589997 101.1869992  89.4284990  55.3329997
 102.9599992  89.0444990  54.9519997 102.0479992  90.8974990  54.2989997
 101.1529992  91.3854990  53.8559997 102.3399992  91.5024990  55.1829997
 103.1539992  91.1904990  53.3159997 104.0769992  90.6934990  53.6859997
 102.8609992  90.8444990  52.3009997 103.4659992  92.7074990  53.1699997
 102.5169992  93.2744990  53.0509997 104.0369992  93.0464990  54.0599997
 104.3499992  92.9764990  51.8949997 104.6759992  94.0324990  52.0029997
 105.2119992  92.2754990  51.9139997 103.6049992  92.8484990  50.5249997
 104.2469992  93.2154990  49.6959997 103.4089992  91.7574990  50.4609997
 102.3559992  93.7104990  50.3929997 101.5569992  93.3494990  51.0749997
 102.7049992  94.7284990  50.6679997 101.8019992  93.7154990  48.9859997
 101.3079992  94.6984990  48.8319997 102.7159992  93.6904990  48.3549997
 100.7779992  92.5874990  48.7309997 101.2299992  91.5814990  48.8669997
  99.9399992  92.8534990  49.4089997 100.1139992  92.6544990  47.3259997
 100.2389992  93.6154990  46.7819997 100.5899992  91.9084990  46.6539997
  98.6169992  92.3784990  47.3629997  98.4689992  91.3674990  47.7999997
  98.2249992  93.1874990  48.0159997  97.9889992  92.5624990  46.0059997
  96.8999992  92.3614990  46.0909997  98.3319992  93.4704990  45.4659997
  98.4399992  91.4394990  44.9969997  99.5339992  91.4714990  44.8099997
  98.2689992  90.4714990  45.5149997  97.6389992  91.4404990  43.7379997
  96.8939992  92.3064990  43.3879997  98.0129992  90.3874990  42.9749997
  97.3389992  90.3014990  41.6819997  97.1909992  89.2064990  41.5649997
  96.3179992  90.7394990  41.6709997  98.1599992  90.9394990  40.5749997
  98.0989992  92.0024990  40.8949997  97.6549992  90.5814990  39.2129997
  96.5799992  90.3214990  39.3159997  97.8529992  91.4204990  38.5119997
  98.3029992  89.4304990  38.5759997  98.1029992  89.0804990  37.0409997
  99.4789992  88.6844990  36.4709997 100.5709992  88.3754990  37.4199997
 100.2279992  87.8924990  38.3589997 101.3519992  87.7174990  36.9829997
 101.4059992  89.6114990  37.7459997 100.9049992  90.1674990  38.5249997
 102.3259992  89.3044990  38.2229997 101.9319992  90.5284990  36.6969997
 100.8659992  91.1074990  35.8489997 100.5469992  90.5054990  35.0109997
  99.9729992  91.3364990  36.4119997 101.1749992  92.0864990  35.5129997
 102.4589992  91.7954990  37.4289997 102.9099992  92.4934990  36.7389997
 101.6449992  92.3534990  37.8679997 103.1559992  91.5174990  38.2049997
 103.0439992  89.8264990  35.9059997 103.7979992  89.4034990  36.5539997
 103.4219992  90.4564990  35.1139997 102.6879992  88.9634990  35.3639997
  97.1339992  87.9534990  37.0549997  97.5669992  90.2524990  36.2819997
  99.5359992  90.4884990  40.7929997 100.5189992  91.3624990  41.2009997
 100.4939992  92.5784990  41.1369997 101.6479992  90.4754990  41.7979997
 102.5599992  91.0864990  41.6289997 101.8919992  89.5964990  41.1649997
 101.2869992  89.9594990  43.1859997 100.2349992  89.6024990  43.1819997
 101.3179992  90.8714990  43.8209997 102.1899992  88.9594990  43.8469997
 103.2349992  89.2554990  43.6119997 102.1029992  87.9684990  43.3529997
 102.0889992  88.9184990  45.3389997 102.5099992  89.9344990  45.4939997
 102.9079992  88.2534990  45.6869997 100.6939992  88.5224990  45.8889997
 100.0089992  89.0824990  45.2159997 100.5979992  88.9034990  46.9279997
 100.2839992  87.0384990  45.7349997 100.9859992  86.4354990  46.3499997
 100.3619992  86.6564990  44.6949997  98.8509992  86.6204990  46.3269997
  98.7969992  87.0464990  47.3509997  98.7589992  85.5154990  46.3989997
  97.5719992  87.0004990  45.5889997  97.3219992  86.3944990  44.7049997
  96.6739992  87.9924990  45.9159997  95.9039992  88.1784990  45.1529997
  96.6169992  89.0174990  46.9919997  96.3379992  90.0154990  46.5909997
  97.5949992  89.1534990  47.5019997  95.5099992  88.7684990  48.0539997
  95.6229992  87.7064990  48.3599997  94.5349992  88.7954990  47.5219997
  95.3129992  89.7364990  49.2279997  94.2909992  89.7034990  49.6619997
  95.3279992  90.7474990  48.7669997  96.2419992  89.6244990  50.4409997
  97.2789992  89.5734990  50.0469997  96.0179992  88.6924990  51.0039997
  96.1819992  90.8004990  51.5109997  95.1499992  90.9634990  51.8869997
  96.5159992  91.7074990  50.9619997  97.2569992  90.7274990  52.6079997
  97.2269992  91.5774990  53.3219997  98.2999992  90.6974990  52.2269997
  97.0329992  89.5594990  53.6419997  97.4239992  88.6074990  53.2229997
  95.9649992  89.3174990  53.8279997  97.7239992  89.6324990  54.9969997
  98.8169992  89.8314990  55.0289997  97.6659992  88.6614990  55.5339997
  97.2919992  90.4224990  55.6469997 107.7319992  47.8494990  53.7779997
 108.7329992  47.6274990  54.2049997 107.6199992  47.5364990  52.7179997
 106.9999992  47.3304990  54.4339997 107.4089992  49.3054990  53.9089997
 106.3519992  49.4834990  53.6179997 107.3299992  49.5654990  54.9869997
 108.2719992  50.3124990  53.0489997 109.3109992  49.9714990  53.2479997
 108.2449992  50.0994990  51.9579997 107.9569992  51.8704990  53.2999997
 106.9439992  52.1274990  52.9229997 108.0439992  52.0414990  54.3939997
 109.0579992  52.6584990  52.5999997 109.1829992  52.3924990  51.5279997
 108.7679992  53.7264990  52.6939997 110.4239992  52.3294990  53.2459997
 110.2119992  52.3654990  54.3359997 110.8769992  51.3564990  52.9599997
 111.5449992  53.3964990  52.9609997 111.0939992  54.4104990  53.0149997
 112.2569992  53.2754990  53.8049997 112.2669992  53.1594990  51.6489997
 112.8939992  52.2624990  51.8389997 111.5429992  53.1344990  50.8069997
 113.2679992  54.3344990  51.3319997 112.8229992  55.3474990  51.4349997
 114.0499992  54.2924990  52.1199997 113.8069992  54.1344990  49.9169997
 114.7469992  54.7124990  49.7889997 114.0759992  53.0574990  49.9199997
 112.6839992  54.3924990  48.8789997 111.9319992  53.5744990  48.8639997
 112.1249992  55.3514990  48.9089997 113.2519992  54.2834990  47.4209997
 113.9929992  55.0884990  47.2269997 113.8289992  53.3464990  47.2639997
 112.1399992  54.3654990  46.4239997 111.5619992  53.4544990  46.6909997
 111.5069992  55.2724990  46.5319997 112.4199992  54.2714990  44.9359997
 112.9419992  55.1274990  44.4579997 112.9829992  53.3684990  44.6159997
 111.0879992  54.0734990  44.0819997 110.8269992  53.0334990  44.3749997
 110.2469992  54.6914990  44.4639997 111.2149992  54.2814990  42.5649997
 110.3109992  54.5164990  41.8299997 112.4169992  53.9254990  42.2179997
 112.6709992  53.6234990  40.8469997 112.0239992  54.0694990  40.0619997
 113.7159992  53.9564990  40.6719997 112.5549992  52.0004990  40.6649997
 113.2469992  51.6774990  39.8579997 111.1549992  51.5534990  40.4029997
 110.5469992  51.7394990  41.3149997 110.7959992  52.1364990  39.5279997
 111.2219992  50.2474990  40.0479997 111.5109992  49.5884990  38.6849997
 111.2289992  50.6584990  37.5809997 111.4269992  50.4644990  36.2159997
 112.1949992  51.2084990  35.9139997 111.7589992  49.4184990  36.0399997
 110.0669992  50.6784990  35.4629997 110.2869992  50.2994990  34.4759997
 109.4379992  50.0014990  36.0199997 109.4559992  52.0354990  35.4029997
 108.9309992  52.4454990  36.7309997 109.7759992  52.7944990  37.3059997
 108.1679992  53.1914990  36.5629997 108.5879992  51.5164990  37.1629997
 110.5639992  53.0174990  34.9029997 110.1869992  54.0114990  34.7109997
 111.3089992  53.0434990  35.6849997 111.0319992  52.6084990  34.0189997
 108.3299992  52.0094990  34.4209997 107.8149992  52.9564990  34.4909997
 107.6369992  51.2384990  34.7229997 108.6079992  52.0354990  33.3779997
 112.9799992  49.3044990  38.4719997 110.5759992  48.4594990  38.5499997
 113.0169992  51.2644990  41.8169997 114.2629992  51.3884990  42.2499997
 115.1509992  51.8274990  41.5119997 114.4579992  50.6694990  43.6419997
 114.2259992  49.6314990  43.3189997 113.8159992  50.9444990  44.5059997
 115.9119992  50.8384990  44.1299997 116.1559992  51.9064990  44.3089997
 116.4569992  50.4134990  43.2599997 116.2259992  49.9174990  45.2969997
 117.2769992  50.2094990  45.5109997 116.1859992  48.8814990  44.8969997
 115.3679992  50.0594990  46.5299997 114.3319992  49.7694990  46.2529997
 115.3489992  51.1284990  46.8319997 115.9759992  49.3614990  47.7689997
 117.0669992  49.5254990  47.9059997 115.8159992  48.2674990  47.6599997
 115.3469992  49.8404990  49.0909997 114.2639992  49.7074990  48.8819997
 115.5209992  50.8984990  49.3819997 115.5679992  48.8154990  50.2649997
 115.8429992  49.3304990  51.2099997 116.4929992  48.2954990  49.9349997
 114.4729992  47.7774990  50.5099997 114.6849992  46.8094990  50.0319997
 113.3239992  47.8904990  51.1639997 112.7879992  46.9424990  51.3189997
 112.6909992  49.0464990  51.8699997 111.7679992  49.3964990  51.3609997
 113.3829992  49.9144990  51.8189997 112.2019992  48.6694990  53.2579997
 111.8679992  47.6134990  53.1649997 111.3349992  49.3074990  53.5339997
 113.2629992  48.8464990  54.3149997 113.5849992  49.9084990  54.3669997
 114.1879992  48.2874990  54.0589997 112.8289992  48.4344990  55.7559997
 113.6819992  48.6754990  56.4269997 112.4569992  47.3914990  55.8429997
 111.5969992  49.2744990  56.1849997 110.8039992  49.0724990  55.4349997
 111.8019992  50.3594990  56.0629997 111.1849992  49.0034990  57.6489997
 111.9409992  49.4094990  58.3549997 111.1229992  47.9154990  57.8669997
 109.8119992  49.6674990  58.0199997 109.5329992  49.5834990  59.0919997
 108.9869992  49.1774990  57.4599997 109.8369992  51.2224990  57.8359997
 109.6229992  51.4164990  56.7629997 110.8189992  51.6814990  58.0789997
 108.9969992  51.6354990  58.4339997  75.9589992 101.6684990  55.4289997
  76.7649992 101.4614990  56.1649997  75.8819992 100.9494990  54.5859997
  75.0009992 101.7124990  55.9899997  76.4469992 103.0754990  54.8379997
  76.8759992 103.7954990  55.5669997  77.1709992 102.9814990  54.0009997
  75.2549992 103.9624990  54.2759997  74.6109992 104.3854990  55.0769997
  75.6779992 104.8094990  53.6939997  74.1679992 103.2554990  53.3399997
  73.6149992 102.5864990  54.0339997  73.6619992 104.1814990  52.9909997
  74.6869992 102.3574990  52.1869997  75.3969992 101.5594990  52.4949997
  73.7679992 101.8564990  51.8149997  75.2109992 103.1714990  51.0199997
  74.4249992 103.9084990  50.7519997  76.1529992 103.7484990  51.1409997
  75.4639992 102.3434990  49.7339997  76.2029992 101.5634990  50.0199997
  74.5169992 101.8534990  49.4229997  75.9229992 103.2254990  48.5869997
  76.1139992 104.2374990  49.0049997  76.9819992 103.0144990  48.3259997
  74.9959992 103.0354990  47.3459997  75.0199992 101.9974990  46.9479997
  73.9549992 103.3134990  47.6169997  75.4519992 103.8764990  46.1109997
  75.4879992 104.9144990  46.5059997  76.5219992 103.7094990  45.8619997
  74.4979992 103.6484990  44.8479997  74.3859992 102.5804990  44.5639997
  73.4499992 103.9624990  45.0449997  75.1169992 104.4634990  43.6779997
  74.5109992 104.2854990  42.7629997  75.0819992 105.5464990  43.9239997
  76.5599992 104.0044990  43.2659997  77.1849992 104.2684990  44.1459997
  76.5319992 102.8974990  43.1739997  77.0359992 104.7434990  42.0109997
  78.0959992 104.4274990  41.9059997  76.5619992 104.2984990  41.1109997
  76.8769992 106.2594990  42.0309997  75.7949992 106.5044990  41.9599997
  77.2809992 106.6204990  43.0009997  77.6489992 107.0274990  40.8489997
  78.6819992 107.6564990  40.9589997  77.0939992 106.5764990  39.7039997
  77.8469992 106.9314990  38.5299997  77.1079992 106.9644990  37.7009997
  78.2309992 107.9684990  38.6459997  78.9319992 105.9194990  38.1549997
  79.5409992 106.3274990  37.3199997  78.3589992 104.5014990  37.7739997
  77.4689992 104.8314990  37.1969997  79.0789992 103.9094990  37.1689997
  77.8789992 103.8754990  39.0079997  77.3989992 102.3814990  38.9499997
  76.2539992 102.4314990  37.8359997  76.1219992 101.5174990  36.7619997
  77.0819992 101.3824990  36.2189997  75.6989992 100.5864990  37.1959997
  75.0879992 101.9934990  35.6919997  75.1289992 101.2214990  34.9379997
  74.1589992 101.9494990  36.2409997  75.2249992 103.3324990  35.0509997
  76.7599992 103.5124990  34.7399997  77.0139992 104.4964990  34.3739997
  77.2419992 103.2424990  35.6679997  76.8939992 102.7064990  34.0339997
  74.4049992 103.5204990  33.8389997  73.3589992 103.2994990  33.9939997
  74.4449992 104.5604990  33.5489997  74.8569992 103.0044990  33.0049997
  74.7729992 104.4494990  35.9759997  75.0939992 104.3204990  36.9989997
  73.7029992 104.5434990  35.8579997  75.2729992 105.3734990  35.7289997
  78.4659992 101.4784990  38.4609997  76.7189992 101.9524990  40.1579997
  79.9049992 105.8214990  39.2769997  80.9709992 105.1704990  39.0039997
  81.2899992 104.5714990  37.9809997  81.9149992 105.2124990  40.2599997
  81.9609992 106.2824990  40.5589997  82.9689992 104.8994990  40.0999997
  81.5359992 104.3424990  41.4969997  81.3519992 103.2844990  41.2109997
  80.5279992 104.7624990  41.6999997  82.3249992 104.5344990  42.7969997
  82.3959992 105.5994990  43.1059997  83.3729992 104.2324990  42.5809997
  81.7089992 103.7004990  43.9039997  82.3279992 103.9144990  44.8019997
  81.8699992 102.6194990  43.7009997  80.3039992 103.9834990  44.3839997
  80.0809992 103.3764990  45.2879997  79.5789992 103.4874990  43.7029997
  79.8639992 105.4754990  44.6379997  78.8209992 105.7544990  44.3739997
  80.4479992 106.0784990  43.9099997  79.9809992 106.0114990  46.1009997
  80.5109992 106.9804990  45.9779997  80.5859992 105.2944990  46.6959997
  78.6839992 106.2874990  46.8539997  77.9379992 106.8604990  46.2849997
  78.3399992 105.8394990  48.1039997  77.3859992 106.1444990  48.5579997
  79.1799992 104.9724990  48.9609997  79.9079992 104.4444990  48.3079997
  78.5349992 104.1904990  49.4169997  79.8099992 105.7674990  50.1109997
  80.4949992 106.5574990  49.7359997  80.4329992 105.1314990  50.7749997
  78.7009992 106.4714990  50.9779997  78.3299992 105.7504990  51.7379997
  77.9439992 107.0484990  50.4059997  79.4789992 107.5074990  51.8779997
  80.1439992 108.1574990  51.2689997  80.0749992 106.7774990  52.4669997
  78.6149992 108.4034990  52.8339997  77.8089992 108.8714990  52.2289997
  79.2859992 109.1944990  53.2319997  77.9209992 107.6644990  53.9809997
  77.3419992 106.9024990  53.4159997  77.2369992 108.2434990  54.6379997
  78.8909992 106.9604990  54.9789997  79.6659992 106.3944990  54.4189997
  78.3179992 106.1474990  55.4749997  79.6179992 107.8824990  55.9959997
  80.0499992 107.2424990  56.7959997  78.9109992 108.6014990  56.4619997
  80.4919992 108.4124990  55.5619997  53.0099992 102.2584990  55.4419997
  53.6549992 102.8264990  56.1459997  52.5099992 101.4874990  56.0659997
  52.2399992 102.8884990  54.9489997  53.8859992 101.6204990  54.3399997
  54.3279992 102.4184990  53.7049997  54.7519992 101.0734990  54.7699997
  53.1349992 100.5724990  53.5039997  52.4789992 100.0454990  54.2289997
  52.5809992 101.0934990  52.6939997  54.1469992  99.6014990  52.7919997
  54.8469992 100.2284990  52.2009997  54.8169992  99.1214990  53.5369997
  53.5009992  98.6004990  51.8749997  53.9809992  97.6034990  51.9759997
  52.4749992  98.4004990  52.2529997  53.3569992  99.0664990  50.4309997
  54.3759992  99.0704990  49.9899997  52.8139992  98.3104990  49.8239997
  52.7779992 100.4894990  50.3009997  51.7819992 100.5534990  50.7889997
  53.5319992 101.2134990  50.6749997  52.5919992 100.9514990  48.8379997
  52.3419992 102.0304990  48.9299997  53.6129992 101.0664990  48.4139997
  51.5669992 100.2194990  47.9209997  51.6979992  99.1164990  47.8939997
  50.6499992 100.2544990  48.5479997  51.3029992 100.9404990  46.5959997
  50.9319992 101.9504990  46.8739997  52.2039992 101.0234990  45.9509997
  50.1859992 100.2054990  45.7709997  50.4739992  99.1364990  45.6809997
  49.2229992 100.3264990  46.3109997  49.8559992 100.6364990  44.3489997
  50.7799992 100.2284990  43.8869997  48.9619992 100.0844990  43.9879997
  49.7599992 102.1394990  44.1529997  48.8939992 102.5734990  44.6969997
  50.5979992 102.7434990  44.5619997  49.4659992 102.4174990  42.7119997
  50.3219992 102.1314990  42.0639997  48.6029992 101.7614990  42.4679997
  48.9739992 103.8304990  42.4319997  48.5129992 103.9704990  41.4309997
  48.1809992 104.0034990  43.1909997  50.1249992 104.7804990  42.6319997
  50.2829992 105.4464990  43.6179997  50.8899992 104.7484990  41.5509997
  52.1089992 105.5164990  41.6489997  51.9969992 106.2624990  40.8339997
  52.2719992 106.0944990  42.5839997  53.3249992 104.5494990  41.2049997
  54.1849992 105.2424990  41.0849997  53.1369992 103.7464990  39.8449997
  52.7279992 104.4364990  39.0759997  54.0759992 103.3314990  39.4199997
  52.2119992 102.6824990  40.0069997  52.3929992 101.2984990  39.2919997
  52.5639992 101.7774990  37.7569997  51.3949992 102.2854990  37.0959997
  50.5659992 101.5454990  37.1089997  50.8639992 103.0314990  37.7249997
  51.7789992 102.9244990  35.7799997  50.9399992 103.4994990  35.4179997
  52.4769992 103.6574990  36.1569997  52.4089992 102.1034990  34.6319997
  51.6439992 100.8484990  34.5279997  50.6339992 101.0684990  34.2149997
  52.0729992 100.2844990  33.7119997  51.8469992 100.2944990  35.4319997
  52.4499992 102.8284990  33.2969997  52.9649992 103.7764990  33.3329997
  52.9109992 102.1894990  32.5579997  51.4729992 102.9594990  32.8569997
  53.8459992 101.8504990  35.0059997  53.9419992 101.4144990  35.9889997
  54.5179992 102.6924990  34.9319997  54.2459992 101.1134990  34.3259997
  53.6889992 100.6384990  39.7439997  51.0959992 100.5424990  39.3329997
  53.5749992 103.5624990  42.2789997  54.8279992 103.1034990  42.3189997
  55.7119992 103.4074990  41.5419997  54.8479992 102.0924990  43.3929997
  55.6459992 101.3904990  43.0719997  53.8589992 101.5984990  43.5079997
  55.1869992 102.8164990  44.7689997  56.0869992 103.4224990  44.5269997
  55.5629992 102.0994990  45.5299997  54.1529992 103.6884990  45.4039997
  53.2019992 103.1544990  45.6159997  53.8269992 104.5344990  44.7609997
  54.7589992 104.4004990  46.6209997  55.7089992 104.9424990  46.4219997
  54.8769992 103.5844990  47.3669997  53.7499992 105.4684990  47.2219997
  52.8479992 104.9074990  47.5479997  53.3919992 106.1284990  46.4029997
  54.3699992 106.2474990  48.3809997  53.6519992 106.9584990  48.8439997
  55.2859992 106.7934990  48.0699997  54.9629992 105.3024990  49.4439997
  55.5079992 105.9794990  50.1359997  55.7639992 104.7344990  48.9229997
  54.0429992 104.2504990  50.0989997  54.3309992 103.2104990  49.8889997
  52.9409992 104.4764990  50.8329997  52.3899992 103.5894990  51.1789997
  52.4239992 105.8434990  51.1569997  53.2119992 106.6234990  51.0939997
  52.1959992 105.9094990  52.2419997  51.2669992 106.2964990  50.1999997
  51.6679992 106.3124990  49.1639997  51.0099992 107.3114990  50.5719997
  49.9909992 105.4274990  50.2579997  50.3559992 104.4044990  50.0229997
  49.2629992 105.7974990  49.5039997  49.3289992 105.3094990  51.6649997
  48.8829992 106.3074990  51.8629997  50.1269992 105.1334990  52.4169997
  48.3259992 104.1644990  51.7879997  48.8319992 103.1764990  51.7569997
  47.6239992 104.2834990  50.9349997  47.4849992 104.2484990  53.1429997
  46.7049992 103.5144990  52.8489997  47.0699992 105.2784990  53.1659997
  48.2099992 103.7974990  54.4519997  48.9229992 104.5724990  54.8049997
  48.7889992 102.9444990  54.0359997  47.2899992 103.2084990  55.5209997
  46.5219992 103.9484990  55.8319997  47.9029992 102.9344990  56.4059997
  46.7309992 102.3154990  55.1699997  79.8039992  35.1734990  56.8549997
  79.3099992  36.0714990  57.2829997  80.4559992  34.8324990  57.6869997
  79.0519992  34.3764990  56.6699997  80.7139992  35.4984990  55.6719997
  81.5189992  36.1064990  56.1369997  81.1839992  34.7044990  55.0539997
  80.0589992  36.5044990  54.6949997  79.5709992  36.0804990  53.7919997
  79.2419992  37.0764990  55.1849997  81.0559992  37.5574990  54.2409997
  81.6229992  37.9254990  55.1239997  81.8189992  37.0774990  53.5919997
  80.5209992  38.6944990  53.2839997  79.9539992  39.5144990  53.7749997
  81.2939992  39.3434990  52.8209997  79.7619992  38.2824990  51.9699997
  80.1279992  37.2784990  51.6659997  78.7159992  38.0604990  52.2719997
  79.8349992  39.2984990  50.8329997  79.2769992  40.2044990  51.1499997
  80.8629992  39.7104990  50.7499997  79.3179992  38.8434990  49.4759997
  78.2559992  38.5774990  49.6669997  79.4729992  39.6614990  48.7409997
  80.1139992  37.6024990  48.9339997  80.0389992  36.7964990  49.6959997
  79.6829992  37.2474990  47.9729997  81.6569992  37.8554990  48.7179997
  81.8359992  38.9064990  48.4069997  82.3859992  37.6474990  49.5299997
  82.2129992  37.0894990  47.4409997  83.3159992  37.2204990  47.4569997
  82.0189992  35.9964990  47.4729997  81.6689992  37.7364990  46.1729997
  80.5589992  37.7504990  46.2019997  81.9909992  38.7994990  46.1399997
  82.0129992  36.8854990  44.8799997  81.8849992  37.5314990  43.9849997
  83.0829992  36.5874990  44.8589997  81.2649992  35.5144990  44.7789997
  81.6339992  34.8274990  45.5689997  80.1879992  35.7494990  44.9169997
  81.4729992  35.0734990  43.2539997  81.3159992  35.9074990  42.5369997
  82.5469992  34.8134990  43.1349997  80.6319992  33.8474990  42.9259997
  80.0579992  33.1804990  43.8249997  80.4139992  33.6714990  41.6559997
  79.6329992  32.5724990  41.2119997  80.2719992  31.6754990  41.0679997
  78.7619992  32.4254990  41.8869997  78.8089992  32.8434990  39.8429997
  78.4409992  31.8264990  39.5909997  79.7259992  33.4144990  38.7449997
  80.5449992  32.7234990  38.4499997  79.1339992  33.4124990  37.8049997
  80.2919992  34.7044990  38.9189997  79.5749992  36.1084990  38.8389997
  78.6079992  36.0034990  37.5789997  79.2179992  35.7614990  36.2909997
  80.1499992  35.1754990  36.4389997  78.5519992  35.0514990  35.7559997
  79.6429992  37.0744990  35.5609997  80.2939992  37.6344990  36.2159997
  80.1209992  36.9514990  34.5999997  78.5059992  38.0444990  35.2219997
  77.2429992  37.4584990  34.6259997  77.5559992  36.9334990  33.7349997
  76.7929992  36.6614990  35.1989997  76.4579992  38.1604990  34.3879997
  78.1079992  38.7194990  36.5389997  77.3179992  39.4314990  36.3529997
  77.8539992  37.9754990  37.2789997  78.9439992  39.2934990  36.9099997
  79.0179992  39.1084990  34.2509997  78.3839992  39.9814990  34.2199997
  79.1629992  38.7554990  33.2399997  80.0299992  39.2754990  34.5889997
  78.7669992  36.2064990  40.0819997  80.5049992  37.1694990  38.5639997
  77.7609992  33.7774990  40.2329997  76.4829992  33.3354990  40.2309997
  76.0889992  32.2434990  39.8829997  75.4769992  34.3224990  40.7529997
  74.4079992  34.0454990  40.6299997  75.6339992  35.2644990  40.1849997
  75.9139992  34.6834990  42.2089997  75.3719992  35.5984990  42.5299997
  76.9829992  34.9834990  42.2159997  75.7819992  33.5324990  43.2229997
  76.0809992  32.6154990  42.6729997  74.7209992  33.4984990  43.5499997
  76.6369992  33.8484990  44.4619997  77.6909992  33.7354990  44.1299997
  76.3299992  33.0554990  45.1769997  76.4139992  35.2354990  45.1009997
  75.3899992  35.2784990  45.5279997  76.4699992  36.0034990  44.2999997
  77.4369992  35.6834990  46.1209997  77.4039992  36.7924990  46.0699997
  78.4509992  35.3064990  45.8669997  77.3019992  35.2764990  47.6289997
  76.3769992  35.7424990  48.0329997  78.0599992  35.7994990  48.2519997
  77.2199992  33.7574990  47.8489997  76.5059992  33.2194990  47.2079997
  77.7219992  33.0944990  48.8959997  77.6839992  31.9954990  48.9039997
  78.4489992  33.7134990  50.0649997  78.6669992  34.7964990  49.9519997
  79.3449992  33.0684990  50.1899997  77.5899992  33.5534990  51.3699997
  76.6319992  34.0824990  51.1779997  78.1079992  33.9414990  52.2729997
  77.3409992  32.0514990  51.7509997  78.1949992  31.4894990  51.3149997
  76.4249992  31.6954990  51.2329997  77.2219992  31.8024990  53.2959997
  78.1879992  32.1984990  53.6749997  77.1819992  30.7034990  53.4479997
  76.0069992  32.5084990  53.8939997  75.0389992  32.0174990  53.6559997
  75.8919992  33.5574990  53.5459997  76.0299992  32.5394990  55.4559997
  75.3019992  33.2294990  55.9339997  77.0549992  32.8234990  55.7789997
  75.7019992  31.1244990  55.9999997  76.3299992  30.3564990  55.4999997
  74.6409992  31.1054990  55.6699997  75.8039992  30.9394990  57.4939997
  75.3649992  29.9594990  57.7769997  75.1979992  31.7144990  58.0109997
  76.8479992  30.8564990  57.8649997 117.8869992  72.0864990  56.7129997
 116.8689992  72.4634990  56.4799997 118.4619992  72.7264990  57.4159997
 117.8279992  71.0274990  57.0439997 118.7439992  72.0064990  55.3439997
 118.8899992  73.0444990  54.9759997 119.7319992  71.5134990  55.4659997
 117.9309992  71.1644990  54.3049997 117.5959992  70.1924990  54.7269997
 116.9119992  71.5884990  54.1729997 118.7059992  71.0354990  52.9809997
 119.6899992  70.6074990  53.2689997 118.1149992  70.4274990  52.2629997
 118.8209992  72.3384990  52.2489997 117.8649992  72.4374990  51.6909997
 118.8349992  73.1204990  53.0379997 119.9929992  72.4824990  51.2639997
 120.0209992  73.5764990  51.0729997 120.9829992  72.2244990  51.6979997
 119.8019992  71.7064990  49.9189997 119.5369992  70.6324990  50.0149997
 118.9819992  72.1814990  49.3379997 121.0409992  71.8494990  49.0469997
 121.9769992  71.7714990  49.6399997 121.1929992  71.0464990  48.2939997
 121.2539992  73.3074990  48.4269997 121.2339992  74.0254990  49.2749997
 122.2489992  73.3424990  47.9339997 120.3309992  73.8524990  47.3659997
 119.2849992  73.7954990  47.7379997 120.4589992  74.9404990  47.1779997
 120.3219992  73.0194990  46.0889997 121.3909992  72.9614990  45.7909997
 120.0489992  71.9584990  46.2709997 119.5909992  73.9254990  45.0669997
 118.4959992  73.8994990  45.2519997 119.9479992  74.9744990  44.9899997
 119.5999992  73.2294990  43.6939997 118.8099992  72.4564990  43.5849997
 119.4179992  74.1274990  43.0649997 121.0759992  72.8694990  43.1649997
 121.6839992  73.7974990  43.1049997 121.5039992  72.1444990  43.8899997
 121.0069992  72.2854990  41.7789997 120.1229992  72.7424990  41.2859997
 121.8189992  72.6344990  41.1059997 121.0999992  70.7184990  41.6319997
 121.5969992  69.9194990  42.4189997 120.5789992  70.4374990  40.4849997
 120.5139992  69.1434990  39.9999997 120.6229992  69.2174990  38.8969997
 121.2899992  68.4984990  40.4669997 119.0339992  68.6104990  40.1539997
 119.0949992  67.5584990  39.8009997 117.9599992  69.4534990  39.3369997
 118.3339992  69.4914990  38.2919997 117.0489992  68.8184990  39.3609997
 117.8119992  70.7774990  39.8129997 116.6369992  71.6424990  39.0689997
 117.4409992  71.9884990  37.7779997 116.8539992  71.8484990  36.5449997
 116.9679992  70.8154990  36.1519997 115.7439992  71.8754990  36.5699997
 117.4069992  72.7614990  35.3949997 116.8789992  72.5584990  34.4749997
 117.1759992  73.7964990  35.6019997 118.8959992  72.6824990  34.9599997
 119.8449992  73.4064990  35.9479997 119.5019992  74.4044990  36.1789997
 120.0809992  72.8094990  36.8159997 120.7589992  73.5434990  35.3879997
 119.2909992  71.3014990  34.6469997 120.3499992  71.1104990  34.5589997
 119.0559992  70.6974990  35.5109997 118.7759992  70.9664990  33.7589997
 118.9969992  73.4234990  33.6209997 118.0629992  73.5144990  33.0869997
 119.7359992  72.9634990  32.9809997 119.2339992  74.4314990  33.9249997
 115.4589992  70.7314990  38.8549997 116.3809992  72.8924990  39.8399997
 118.6409992  68.7924990  41.4919997 118.8709992  67.7804990  42.2869997
 119.7029992  66.8934990  42.1769997 117.9929992  67.9914990  43.5149997
 117.8839992  67.1424990  44.2239997 116.9909992  68.2144990  43.0909997
 118.7119992  69.0694990  44.4719997 118.8149992  70.0894990  44.0439997
 119.7699992  68.7884990  44.6619997 118.0799992  69.2654990  45.8689997
 118.5039992  70.2284990  46.2269997 118.4119992  68.4574990  46.5559997
 116.5399992  69.4404990  45.8019997 116.1319992  68.4294990  45.5899997
 116.2909992  70.0944990  44.9399997 115.8269992  69.9084990  47.1459997
 116.2549992  69.3314990  47.9929997 114.7309992  69.7354990  47.0909997
 116.1089992  71.3754990  47.5409997 115.5729992  71.8774990  46.7079997
 117.1989992  71.5884990  47.4969997 115.5309992  71.8644990  48.8799997
 115.5429992  72.9714990  48.9739997 115.9649992  71.2144990  49.6709997
 114.0229992  71.5864990  48.9429997 113.4929992  71.7754990  47.9969997
 113.3969992  71.0854990  50.0189997 112.3039992  70.9744990  50.0839997
 114.0119992  70.6404990  51.3449997 113.5109992  71.2154990  52.1519997
 115.0879992  70.9054990  51.4229997 113.9409992  69.1424990  51.6069997
 113.9679992  68.6414990  50.6159997 112.9639992  68.8704990  52.0609997
 115.1009992  68.8324990  52.5469997 115.0379992  69.6364990  53.3109997
 116.0659992  69.0834990  52.0559997 115.2419992  67.3674990  53.1719997
 115.1869992  66.5934990  52.3769997 114.2699992  67.2284990  53.6909997
 116.4489992  67.0994990  54.0979997 116.0629992  66.3024990  54.7689997
 116.6629992  67.8584990  54.8819997 117.7229992  66.5174990  53.4139997
 118.0349992  67.1304990  52.5419997 117.4429992  65.5724990  52.9029997
 118.8419992  66.2614990  54.4339997 119.5109992  65.5284990  53.9349997
 118.3849992  65.8294990  55.3499997 119.6499992  67.4824990  54.9139997
 120.1099992  68.0364990  54.0669997 120.2779992  67.3444990  55.8199997
 118.8569992  68.2064990  55.1999997  30.1419992  52.7844990  54.2229997
  29.2959992  52.7754990  54.9429997  31.0929992  52.8644990  54.7919997
  30.1029992  51.8294990  53.6579997  30.1099992  54.0324990  53.3059997
  30.5639992  53.8004990  52.3189997  29.0669992  54.4044990  53.2179997
  31.0269992  55.1924990  53.8319997  30.6249992  55.2674990  54.8649997
  32.0849992  54.8524990  53.8309997  30.7499992  56.4794990  53.1279997
  29.6699992  56.7384990  53.1379997  31.1549992  57.2014990  53.8699997
  31.2639992  56.6574990  51.7369997  30.8949992  55.8544990  51.0629997
  30.9669992  57.6554990  51.3519997  32.8339992  56.5654990  51.6279997
  33.4039992  57.3004990  52.2349997  33.1979992  55.6174990  52.0779997
  33.3539992  56.7134990  50.1539997  32.7689992  55.9254990  49.6329997
  33.0219992  57.7234990  49.8329997  34.8109992  56.3894990  50.0959997
  35.2959992  56.9714990  50.9099997  34.9279992  55.3074990  50.3199997
  35.5069992  56.7044990  48.8019997  35.1849992  57.7054990  48.4429997
  36.6059992  56.8004990  48.9329997  35.2909992  55.7024990  47.6039997
  36.1489992  55.7664990  46.8999997  35.3329992  54.7154990  48.1139997
  34.0979992  56.0324990  46.7249997  33.1439992  56.2034990  47.2669997
  34.2539992  57.0534990  46.3159997  33.8199992  54.8684990  45.6859997
  34.8269992  54.5484990  45.3429997  33.2969992  54.0234990  46.1819997
  32.8369992  55.3234990  44.5829997  31.7999992  55.2124990  44.9639997
  32.9489992  56.3674990  44.2209997  32.9439992  54.4654990  43.2839997
  34.0209992  54.4744990  43.0109997  32.6409992  53.4494990  43.6149997
  32.3079992  55.0774990  41.9409997  32.3929992  56.1834990  41.8729997
  32.8449992  54.4534990  41.1949997  30.8169992  54.6434990  41.8179997
  29.9519992  54.6584990  42.7039997  30.6189992  54.4324990  40.6039997
  29.2809992  54.4414990  40.1369997  29.1729992  53.5934990  39.4279997
  28.5059992  54.1704990  40.8859997  29.0289992  55.7594990  39.3739997
  27.9449992  55.8084990  39.1369997  29.8359992  55.8384990  38.0329997
  29.5509992  54.9984990  37.3639997  29.5869992  56.7884990  37.5129997
  31.2139992  55.9384990  38.2679997  32.1569992  55.7574990  37.1419997
  32.4789992  57.3144990  36.9019997  32.8209992  58.1094990  38.0059997
  32.3349992  57.8294990  38.9639997  33.9249992  58.0864990  38.1349997
  32.3819992  59.6224990  37.7519997  31.3129992  59.5084990  37.6499997
  32.4999992  60.2374990  38.6309997  32.9089992  60.3584990  36.4939997
  32.5179992  59.7344990  35.2719997  31.4759992  59.9424990  35.0759997
  33.0129992  60.0284990  34.3589997  32.5749992  58.6844990  35.5149997
  32.4159992  61.7894990  36.4279997  32.5159992  62.2284990  37.4099997
  33.0419992  62.3054990  35.7149997  31.4319992  61.8614990  35.9899997
  34.4139992  60.4924990  36.6229997  34.7619992  60.9694990  37.5269997
  34.8199992  61.0164990  35.7699997  34.7779992  59.4764990  36.6359997
  33.4249992  55.0834990  37.6489997  31.5299992  55.1854990  35.9369997
  29.3969992  56.8154990  40.2969997  29.1879992  57.9924990  39.8299997
  28.4879992  58.3194990  38.9219997  29.8929992  58.9994990  40.8469997
  30.9799992  59.0514990  40.6219997  29.7399992  58.6564990  41.8919997
  29.3519992  60.3804990  40.6809997  28.8639992  60.6494990  41.6419997
  28.5409992  60.4664990  39.9259997  30.3959992  61.3834990  40.2529997
  29.9809992  62.4144990  40.2549997  30.7059992  61.2074990  39.2009997
  31.6659992  61.5794990  41.1519997  31.9229992  62.6514990  41.0089997
  32.4519992  60.9294990  40.7109997  31.4469992  61.2674990  42.6719997
  31.1169992  60.2314990  42.9039997  30.5989992  61.9224990  42.9629997
  32.6989992  61.6144990  43.4809997  32.8109992  62.7064990  43.3099997
  33.5499992  61.0394990  43.0559997  32.4179992  61.4474990  44.9909997
  31.6009992  62.1294990  45.3119997  33.3689992  61.7304990  45.4899997
  32.2229992  60.0824990  45.3879997  33.0059992  59.4754990  44.9119997
  31.3019992  59.5154990  46.0659997  31.3339992  58.4344990  46.2679997
  30.1129992  60.1724990  46.7089997  29.3419992  59.3994990  46.9149997
  29.5849992  60.8184990  45.9749997  30.4809992  61.0564990  47.9789997
  29.6329992  61.7184990  48.2579997  31.4009992  61.6174990  47.7049997
  30.8629992  60.3404990  49.2869997  31.5909992  59.5554990  48.9899997
  29.9899992  59.7584990  49.6509997  31.3909992  61.3234990  50.3219997
  30.6939992  62.1854990  50.4019997  32.3679992  61.6274990  49.8889997
  31.2999992  60.8174990  51.7729997  32.1019992  61.3174990  52.3569997
  31.4849992  59.7244990  51.8339997  29.8859992  61.0124990  52.4019997
  29.2029992  60.1914990  52.0959997  29.3259992  61.9314990  52.1259997
  29.9119992  60.9724990  53.9249997  30.0869992  59.9444990  54.3069997
  28.8579992  61.1664990  54.2169997  30.6929992  62.0784990  54.6999997
  30.5909992  62.9974990  54.0839997  31.7609992  61.8204990  54.8659997
  30.2089992  62.2014990  55.6919997  69.5059992 109.1984990  57.8449997
  68.5249992 109.6194990  57.5369997  70.2119992 109.9834990  57.4989997
  69.6219992 109.2094990  58.9499997  69.8639992 107.7854990  57.3719997
  69.7079992 107.6434990  56.2809997  70.9599992 107.6494990  57.4959997
  69.0249992 106.7524990  58.1509997  69.3869992 106.7774990  59.2009997
  67.9269992 106.8634990  58.0189997  69.3149992 105.2944990  57.5259997
  70.3669992 105.2444990  57.1699997  69.1659992 104.5324990  58.3199997
  68.4679992 105.0834990  56.2369997  67.4449992 104.7294990  56.4879997
  68.3339992 106.0844990  55.7729997  69.0179992 103.9124990  55.2549997
  70.0589992 103.7034990  55.5799997  68.4469992 102.9844990  55.4749997
  69.0889992 104.1574990  53.8219997  68.0459992 104.3334990  53.4839997
  69.6519992 105.1024990  53.6659997  69.7569992 103.0074990  53.0809997
  70.6969992 102.5524990  53.4599997  69.1019992 102.1134990  53.1539997
  70.0749992 103.3824990  51.6369997  69.1539992 103.7464990  51.1329997
  70.6899992 104.3034990  51.7339997  70.9049992 102.3774990  50.8749997
  71.7459992 102.0224990  51.5079997  70.3589992 101.4134990  50.9579997
  71.3499992 102.7604990  49.4629997  72.1119992 103.5684990  49.4329997
  71.9119992 101.8684990  49.1149997  70.2799992 103.1324990  48.4739997
  69.7209992 102.1934990  48.2729997  69.5679992 103.8814990  48.8829997
  70.8829992 103.6844990  47.1049997  71.3449992 104.6884990  47.2159997
  71.6879992 103.0004990  46.7599997  69.8459992 103.6704990  45.9489997
  69.2449992 102.7384990  45.8829997  69.1839992 104.5424990  46.1369997
  70.3789992 103.9554990  44.5359997  70.9779992 104.8784990  44.3859997
  71.0919992 103.1414990  44.2849997  69.3049992 104.0374990  43.4419997
  68.0839992 104.0204990  43.5469997  69.9409992 104.0974990  42.2409997
  69.0649992 104.1174990  41.0129997  69.7129992 103.7634990  40.1829997
  68.1009992 103.5854990  41.1609997  68.6079992 105.5574990  40.6329997
  67.7999992 105.9904990  41.2619997  68.0599992 105.6404990  39.2509997
  68.7189992 105.5024990  38.3669997  67.2429992 104.9194990  39.0339997
  67.5529992 106.9774990  39.0749997  66.8159992 107.4094990  37.7329997
  68.0189992 107.9434990  36.7589997  68.9469992 108.7984990  37.3299997
  68.5349992 109.8234990  37.4499997  69.3719992 108.4854990  38.3069997
  70.1569992 109.0834990  36.3139997  69.7709992 109.4964990  35.3939997
  70.7689992 109.8694990  36.7319997  71.1049992 107.9264990  36.1169997
  70.4549992 106.9204990  35.2349997  71.1699992 106.2114990  34.8439997
  69.6829992 106.4024990  35.7849997  70.1429992 107.3424990  34.2919997
  72.3689992 108.4614990  35.3849997  73.1099992 108.9904990  35.9669997
  72.9269992 107.6094990  35.0239997  72.1119992 109.1074990  34.5589997
  71.6379992 107.2994990  37.4009997  72.2669992 108.0624990  37.8339997
  72.2159992 106.4204990  37.1519997  70.8279992 107.0324990  38.0629997
  66.3259992 106.2114990  37.0419997  65.8419992 108.4664990  38.0799997
  69.8229992 106.4064990  40.6679997  69.8289992 107.4484990  41.5959997
  68.8289992 107.7224990  42.2649997  71.1019992 108.2804990  41.5599997
  71.3459992 108.7824990  40.5989997  71.9509992 107.5704990  41.6599997
  71.1559992 109.2634990  42.7719997  70.1959992 109.5634990  43.2439997
  71.6299992 110.2174990  42.4539997  72.0989992 108.8554990  43.9129997
  73.0229992 108.3984990  43.4989997  71.5139992 108.0434990  44.3959997
  72.3019992 110.0824990  44.7959997  71.2979992 110.5544990  44.8559997
  73.0069992 110.7914990  44.3099997  72.8029992 109.4784990  46.0749997
  73.6939992 108.8604990  45.8309997  72.1049992 108.7624990  46.5589997
  73.2129992 110.5034990  47.1709997  72.3829992 111.2414990  47.1359997
  74.1539992 111.0674990  46.9959997  73.0949992 109.8904990  48.6069997
  74.0049992 109.2974990  48.8409997  72.2409992 109.1794990  48.5909997
  73.0479992 110.9664990  49.6939997  73.7829992 111.7724990  49.5459997
  72.1259992 111.1524990  50.6819997  72.1219992 112.0744990  51.2829997
  70.8989992 110.2164990  50.9369997  70.4639992 110.3564990  51.9499997
  71.1919992 109.1454990  50.9499997  69.7719992 110.4824990  49.8949997
  70.2769992 110.3414990  48.9159997  69.3469992 111.5084990  49.9099997
  68.6079992 109.4814990  49.9499997  68.0609992 109.5214990  48.9839997
  67.9769992 109.8664990  50.7789997  68.9209992 108.0524990  50.3009997
  69.4559992 108.1444990  51.2709997  69.5639992 107.6714990  49.4789997
  67.6829992 107.1474990  50.4019997  67.9019992 106.0774990  50.6039997
  67.2159992 107.1644990  49.3939997  66.6199992 107.4424990  51.5159997
  65.8299992 106.6894990  51.3049997  66.1069992 108.4234990  51.4239997
  67.0469992 107.2444990  52.9569997  67.5159992 108.1954990  53.2889997
  67.8719992 106.5004990  52.9829997  65.8739992 106.7594990  53.8719997
  65.3019992 105.9384990  53.3879997  65.1169992 107.5494990  54.0659997
  66.1919992 106.4344990  54.8859997  43.8359992  38.3274990  53.5569997
  44.1189992  38.7944990  54.5249997  42.9409992  37.6854990  53.7059997
  43.5019992  39.0604990  52.7929997  45.1519992  37.6384990  53.0489997
  45.8819992  38.4194990  52.7469997  45.4279992  36.9144990  53.8459997
  44.8689992  36.7894990  51.7549997  44.1529992  35.9404990  51.7529997
  44.4539992  37.3894990  50.9169997  46.1679992  36.1784990  51.2069997
  47.0579992  36.8084990  51.4179997  46.3249992  35.2174990  51.7439997
  45.9889992  35.7774990  49.7259997  45.1519992  35.0534990  49.6299997
  45.6409992  36.6334990  49.1099997  47.2869992  35.0414990  49.2289997
  47.6889992  34.2664990  49.9159997  46.9369992  34.6074990  48.2679997
  48.4219992  36.0174990  49.0499997  48.6489992  36.6144990  49.9589997
  49.2909992  35.3404990  48.8989997  48.3149992  37.1344990  47.9389997
  47.7439992  36.7574990  47.0639997  47.7459992  37.9864990  48.3689997
  49.6539992  37.7034990  47.4659997  50.1099992  38.4334990  48.1689997
  50.3949992  36.8944990  47.2919997  49.5609992  38.4904990  46.1419997
  50.5829992  38.7234990  45.7729997  49.0899992  37.9714990  45.2799997
  48.6129992  39.7164990  46.3189997  47.5539992  39.4054990  46.4459997
  48.9459992  40.3714990  47.1519997  48.6259992  40.7554990  45.2049997
  48.1459992  41.7404990  45.3929997  49.6629992  40.8224990  44.8129997
  47.9149992  40.1174990  43.9449997  48.4499992  39.1724990  43.7079997
  46.8379992  39.9224990  44.1329997  48.0179992  41.0614990  42.7529997
  47.3509992  41.9324990  42.9239997  49.0029992  41.5604990  42.6239997
  47.5489992  40.4054990  41.4599997  46.5289992  39.9794990  41.5739997
  47.4539992  41.2564990  40.7519997  48.5479992  39.3184990  40.9479997
  49.7599992  39.4924990  40.9719997  47.8929992  38.1874990  40.5269997
  48.7789992  37.0584990  40.2619997  49.3469992  37.2324990  39.3229997
  49.5549992  36.9804990  41.0539997  47.9909992  35.7244990  40.2809997
  48.6949992  34.9064990  40.5469997  47.3619992  35.5614990  38.9019997
  48.2239992  35.8204990  38.2519997  47.0209992  34.5054990  38.8549997
  46.1709992  36.3594990  38.6819997  46.2279992  37.2614990  37.3769997
  47.7199992  37.6324990  37.2029997  48.0409992  38.2674990  36.0029997
  48.4729992  37.5194990  35.3049997  47.2519992  38.7614990  35.3969997
  49.0959992  39.2474990  36.3519997  49.6139992  38.7574990  37.1639997
  49.8099992  39.3324990  35.5459997  48.7529992  40.6954990  36.7319997
  50.0589992  41.2654990  37.1899997  50.7099992  41.5844990  36.3909997
  49.9269992  41.9834990  37.9869997  50.5509992  40.4284990  37.6639997
  48.2759992  41.3604990  35.4809997  47.9289992  42.3374990  35.7819997
  49.0269992  41.3814990  34.7049997  47.4449992  40.8504990  35.0169997
  47.6669992  40.7494990  37.6679997  47.9139992  40.3994990  38.6589997
  46.7889992  40.1634990  37.4379997  47.3969992  41.7944990  37.6639997
  45.7689992  36.4564990  36.2259997  45.4819992  38.4744990  37.5569997
  46.9139992  35.7144990  41.2369997  47.3029992  35.7424990  42.5689997
  48.4539992  35.7734990  42.9399997  46.0819992  35.6444990  43.3959997
  45.6679992  34.6474990  43.1349997  45.4049992  36.4504990  43.0409997
  46.3049992  35.7474990  44.9549997  46.9169992  36.6624990  45.1029997
  46.9579992  34.8984990  45.2489997  45.0189992  35.7174990  45.7759997
  45.2389992  35.8004990  46.8619997  44.4319992  34.7834990  45.6489997
  44.1119992  36.8764990  45.4539997  43.0679992  36.5104990  45.3599997
  44.3779992  37.3864990  44.5039997  44.1319992  37.9944990  46.4979997
  45.1699992  38.3224990  46.7159997  43.7039992  37.6184990  47.4519997
  43.1909992  39.1704990  46.1309997  42.1569992  38.7814990  46.2449997
  43.3639992  39.4884990  45.0809997  43.4219992  40.3344990  47.0809997
  42.6719992  41.1144990  46.8259997  44.4559992  40.6884990  46.8809997
  43.1229992  39.9614990  48.5469997  42.5119992  39.0494990  48.6159997
  43.4949992  40.4894990  49.6569997  43.1099992  39.9574990  50.5399997
  44.3379992  41.7374990  49.7849997  44.3149992  42.2064990  50.7919997
  44.0069992  42.4504990  48.9989997  45.8349992  41.4584990  49.6019997
  46.3619992  42.4364990  49.5869997  46.0789992  40.9294990  48.6559997
  46.5289992  40.6304990  50.6949997  46.2989992  39.5664990  50.4729997
  46.1939992  41.0104990  51.6839997  48.0759992  40.7834990  50.6199997
  48.4449992  41.6764990  51.1669997  48.3799992  40.9124990  49.5589997
  48.7859992  39.4804990  51.1329997  48.5029992  38.7044990  50.3909997
  48.3499992  39.3224990  52.1429997  50.3119992  39.6424990  51.2139997
  50.7419992  39.9664990  50.2429997  50.8409992  38.6914990  51.4399997
  50.7739992  40.4984990  52.4629997  50.4089992  41.5464990  52.4179997
  51.8479992  40.6524990  52.2229997  50.5079992  39.7534990  53.7649997
  50.9339992  40.4074990  54.5559997  50.8399992  38.6944990  53.8119997
  49.4409992  39.6534990  54.0589997  31.1249992  49.0254990  54.2489997
  30.1849992  49.4814990  54.6269997  31.9579992  49.4874990  54.8199997
  31.0809992  47.9404990  54.4839997  31.2759992  49.3644990  52.7809997
  30.4699992  48.9254990  52.1549997  31.0709992  50.4404990  52.5959997
  32.6799992  48.9834990  52.1959997  33.4879992  49.4744990  52.7799997
  32.8349992  47.8854990  52.2579997  32.7519992  49.2864990  50.6949997
  32.2419992  50.2554990  50.5039997  33.7119992  49.6624990  50.2819997
  32.0309992  48.2494990  49.9099997  32.5199992  47.2934990  50.1929997
  30.9819992  48.1104990  50.2479997  32.0169992  48.5364990  48.4439997
  33.0319992  48.6894990  48.0209997  31.7159992  47.6004990  47.9269997
  31.1069992  49.6474990  47.9479997  30.0669992  49.2584990  47.9789997
  31.1749992  50.5584990  48.5799997  31.4549992  50.2164990  46.6219997
  30.8649992  51.1324990  46.4069997  32.5329992  50.3814990  46.4079997
  31.2259992  49.1074990  45.4979997  31.9089992  48.2344990  45.5709997
  30.2199992  48.7204990  45.7669997  30.9599992  49.5454990  44.0609997
  30.4169992  48.7314990  43.5359997  30.2139992  50.3594990  44.1859997
  32.0359992  50.1534990  43.2569997  32.6939992  50.7684990  43.9069997
  32.7609992  49.3764990  42.9339997  31.5339992  51.2404990  42.2639997
  30.9189992  50.7334990  41.4899997  30.9349992  51.8794990  42.9479997
  32.6199992  52.0044990  41.6119997  33.4019992  51.3484990  41.1729997
  32.1559992  52.5744990  40.7789997  33.2439992  53.1694990  42.4429997
  32.3609992  53.7094990  42.8459997  33.9119992  52.7184990  43.2079997
  34.1149992  54.1244990  41.6069997  33.5969992  54.3604990  40.6529997
  34.2119992  55.0924990  42.1429997  35.4539992  53.4354990  41.2829997
  36.3109992  53.0204990  42.0979997  35.4659992  53.3114990  39.9899997
  36.6169992  52.5374990  39.4469997  37.1159992  53.0294990  38.5849997
  37.4189992  52.3114990  40.1819997  35.9829992  51.1204990  38.9429997
  36.7439992  50.6234990  38.3039997  34.7179992  51.4254990  38.0629997
  34.9349992  52.4474990  37.6839997  34.7979992  50.7794990  37.1629997
  33.4499992  51.5244990  38.7829997  32.1419992  51.2004990  38.0139997
  32.4809992  49.8314990  37.2589997  32.5559992  48.5624990  37.9599997
  33.5139992  48.4214990  38.5049997  31.7109992  48.4994990  38.6789997
  32.2699992  47.3694990  37.0029997  32.4389992  46.5454990  37.6809997
  31.2159992  47.2794990  36.7859997  33.0959992  47.1864990  35.7029997
  32.6039992  48.1434990  34.6649997  32.9109992  49.0994990  35.0609997
  33.0959992  47.9694990  33.7189997  31.5389992  48.1094990  34.4879997
  34.5569992  47.4344990  35.9089997  34.7149992  48.4454990  36.2539997
  35.0709992  46.7754990  36.5929997  35.0989992  47.3224990  34.9819997
  32.8559992  45.7504990  35.1819997  31.7959992  45.5744990  35.0709997
  33.1819992  45.0774990  35.9619997  33.5779992  45.5664990  34.3999997
  31.0529992  50.9904990  38.9899997  32.0059992  52.2574990  37.0039997
  35.5919992  50.3924990  40.1379997  36.2519992  49.3124990  40.4429997
  37.2519992  48.9014990  39.9659997  35.3779992  48.5764990  41.4489997
  34.9769992  47.6134990  41.0669997  34.4959992  49.1334990  41.8309997
  36.1529992  48.1804990  42.7159997  36.9949992  47.5844990  42.3039997
  35.4479992  47.5144990  43.2579997  36.7319992  49.2974990  43.4569997
  37.2099992  50.0484990  42.7919997  37.4519992  49.0884990  44.2769997
  35.5959992  50.1234990  44.0269997  34.9489992  49.3744990  44.5319997
  35.0099992  50.6864990  43.2699997  36.2859992  50.9234990  45.1459997
  37.0459992  51.5904990  44.6859997  36.7549992  50.1594990  45.8019997
  35.3499992  51.6794990  46.0329997  34.6549992  51.0384990  46.6149997
  34.7309992  52.3414990  45.3899997  36.1309992  52.5644990  47.0159997
  36.7639992  53.1254990  46.2959997  36.8619992  51.9944990  47.6279997
  35.2529992  53.5694990  47.7739997  35.2469992  54.5914990  47.3689997
  34.5209992  53.4124990  48.9069997  33.7299992  54.1104990  49.2179997
  34.5509992  52.0594990  49.6549997  34.9829992  51.2724990  49.0009997
  33.4899992  51.7314990  49.6799997  35.1999992  51.9924990  51.0639997
  36.2499992  52.3444990  50.9889997  35.0409992  50.9374990  51.3739997
  34.4279992  52.7614990  52.2069997  33.3469992  52.5044990  52.1919997
  34.4679992  53.8664990  52.0989997  35.1209992  52.2414990  53.4669997
  36.2019992  52.4484990  53.3159997  34.9849992  51.1484990  53.6079997
  34.8369992  52.9874990  54.8339997  35.3479992  52.4304990  55.6479997
  33.7559992  53.0064990  55.0909997  35.3179992  54.4574990  54.8459997
  34.6699992  55.2184990  54.3599997  36.3099992  54.4564990  54.3469997
  35.5709992  54.8364990  56.3149997  35.9149992  55.8914990  56.2459997
  36.3679992  54.2454990  56.8139997  34.3749992  54.8514990  57.2819997
  33.4999992  55.4744990  56.9979997  34.7039992  55.2744990  58.2549997
  34.1779992  53.7714990  57.4459997 114.2449992  83.2994990  53.7109997
 114.6529992  84.1324990  53.0999997 114.6469992  83.3244990  54.7469997
 113.1619992  83.5374990  53.7729997 114.4699992  81.9174990  53.0559997
 114.6549992  81.2454990  53.9209997 113.5819992  81.5144990  52.5239997
 115.7339992  81.8194990  52.2159997 115.6599992  82.4624990  51.3129997
 116.6659992  82.1594990  52.7149997 116.0919992  80.3644990  51.8269997
 117.1899992  80.4904990  51.7099997 115.8579992  79.6224990  52.6209997
 115.6049992  79.7634990  50.5079997 115.7629992  80.4574990  49.6549997
 116.3219992  78.9614990  50.2319997 114.1479992  79.3274990  50.4299997
 113.8179992  78.6824990  51.2719997 113.6669992  80.3284990  50.4679997
 113.6849992  78.7524990  49.1299997 112.6189992  78.4644990  49.2509997
 113.6679992  79.5624990  48.3709997 114.4399992  77.5544990  48.5779997
 115.4549992  77.9894990  48.7069997 114.3589992  76.7414990  49.3299997
 114.0879992  76.9364990  47.2209997 114.8489992  76.1384990  47.0899997
 113.1619992  76.3284990  47.3029997 114.1669992  77.9394990  46.0579997
 114.0959992  77.4574990  45.0589997 113.4329992  78.7654990  46.1749997
 115.5499992  78.6694990  46.0359997 115.5209992  79.4064990  45.2039997
 115.6369992  79.3514990  46.9089997 116.8359992  77.8054990  45.9569997
 117.0079992  77.3514990  46.9569997 116.7009992  76.9744990  45.2319997
 118.0499992  78.7134990  45.8599997 117.9389992  79.2974990  44.9219997
 118.0309992  79.4484990  46.6929997 119.3949992  77.9234990  45.8539997
 120.2289992  78.6294990  45.6499997 119.5169992  77.6444990  46.9229997
 119.4109992  76.5884990  45.0479997 120.3039992  75.9324990  45.1199997
 118.6009992  75.9544990  45.4679997 119.2489992  76.8994990  43.5119997
 120.1019992  77.2864990  42.7429997 117.9549992  76.7334990  43.1189997
 117.5899992  76.8104990  41.6829997 118.4449992  77.0484990  41.0149997
 117.1419992  75.8294990  41.4159997 116.6839992  78.0704990  41.4809997
 115.8269992  77.8614990  42.1559997 116.3529992  78.2484990  39.9099997
 115.9169992  77.3524990  39.4169997 115.5859992  79.0524990  39.9079997
 117.5619992  78.7374990  39.1469997 117.5519992  79.3464990  37.7669997
 115.9979992  79.7424990  37.6939997 115.2719992  79.9274990  36.5229997
 115.5099992  79.0474990  35.8869997 114.1839992  79.7504990  36.6589997
 115.7629992  81.1064990  35.7129997 116.8419992  81.1244990  35.7569997
 115.3609992  81.0524990  34.7109997 115.3829992  82.4624990  36.2189997
 115.8649992  82.6804990  37.6669997 116.0869992  81.7024990  38.0679997
 116.7379992  83.3164990  37.6659997 115.1309992  83.2484990  38.2189997
 116.0479992  83.5144990  35.3189997 115.7789992  84.4594990  35.7689997
 117.1199992  83.3884990  35.3609997 115.6919992  83.5014990  34.2989997
 113.8729992  82.4914990  36.0709997 113.7579992  82.5154990  34.9969997
 113.4419992  83.3574990  36.5509997 113.4309992  81.5534990  36.3709997
 118.3849992  80.5844990  37.6739997 117.8899992  78.4044990  36.6779997
 117.4349992  79.2454990  41.9549997 116.5899992  80.3614990  41.9779997
 115.3479992  80.2974990  42.0839997 117.5019992  81.6364990  42.0349997
 117.2119992  82.3434990  41.2289997 118.5719992  81.3484990  41.9549997
 117.3869992  82.2464990  43.4239997 117.8119992  81.6394990  44.2519997
 116.3349992  82.4924990  43.6789997 118.2419992  83.5414990  43.4329997
 118.1689992  84.2554990  42.5849997 119.2779992  83.1564990  43.5469997
 117.9079992  84.3814990  44.7269997 116.8469992  84.7074990  44.6779997
 118.4229992  85.3534990  44.5669997 118.1779992  83.6214990  46.0519997
 117.3939992  82.8354990  46.0889997 117.9289992  84.3864990  46.8179997
 119.5409992  82.9264990  46.2319997 120.3139992  83.7004990  46.0379997
 119.7209992  82.1764990  45.4329997 119.7709992  82.3934990  47.6139997
 118.9919992  81.6384990  47.8539997 119.6239992  83.2824990  48.2629997
 121.0789992  81.6454990  47.7969997 121.4289992  81.0834990  46.9179997
 121.7949992  81.5444990  48.9589997 122.7269992  80.9614990  48.9039997
 121.4309992  82.1954990  50.3219997 120.7179992  83.0384990  50.1979997
 122.3699992  82.4984990  50.8329997 120.6739992  81.3984990  51.3899997
 119.8149992  80.9274990  50.8669997 120.3469992  82.0784990  52.2049997
 121.5419992  80.1954990  51.9719997 122.2819992  80.7004990  52.6289997
 122.0659992  79.8604990  51.0519997 120.7279992  79.1604990  52.7249997
 121.4009992  78.3864990  53.1509997 120.0889992  78.6874990  51.9489997
 119.9669992  79.6204990  53.9699997 119.4889992  78.7404990  54.4509997
 119.1719992  80.2984990  53.5909997 120.7789992  80.4254990  55.0169997
 120.0039992  80.8724990  55.6769997 121.2469992  81.2774990  54.4789997
 121.8379992  79.5704990  55.8009997 122.6109992  79.4814990  55.0079997
 121.5209992  78.5594990  56.1349997 122.4659992  80.3464990  56.9999997
 121.6029992  80.7344990  57.5839997 123.0839992  81.1744990  56.5899997
 123.0429992  79.7344990  57.7259997  72.8019992  34.1074990  54.3859997
  72.5209992  34.3634990  55.4299997  73.9059992  34.0004990  54.3199997
  72.2389992  33.1534990  54.3059997  72.1729992  35.0754990  53.3689997
  71.1289992  35.3444990  53.6379997  72.6949992  36.0524990  53.2789997
  72.0109992  34.4214990  51.9879997  72.7989992  33.6994990  51.6869997
  71.0149992  33.9384990  51.8879997  72.1049992  35.4404990  50.8109997
  71.2959992  36.2004990  50.8469997  73.0689992  35.9644990  50.9889997
  72.1839992  34.7004990  49.4139997  73.1849992  34.2354990  49.2919997
  71.3659992  33.9524990  49.4889997  71.8379992  35.5674990  48.1749997
  70.8859992  36.1214990  48.3239997  72.6099992  36.3654990  48.1329997
  72.0069992  34.8564990  46.8129997  72.0129992  35.5634990  45.9559997
  73.0079992  34.3784990  46.8739997  70.9689992  33.7234990  46.6699997
  70.9599992  33.3854990  45.6119997  71.2399992  32.9664990  47.4379997
  69.4349992  34.1704990  46.8149997  69.4029992  34.3234990  47.9139997
  69.2419992  35.0794990  46.2069997  68.4549992  33.0324990  46.3029997
  68.6259992  32.8924990  45.2139997  68.7609992  32.0324990  46.6789997
  66.9899992  33.2564990  46.6789997  66.9779992  33.3234990  47.7879997
  66.8179992  34.2824990  46.2879997  65.9909992  32.2794990  46.0179997
  66.1419992  31.2714990  46.4599997  65.0139992  32.7444990  46.2699997
  66.2269992  31.9884990  44.5539997  67.1159992  31.3494990  44.3619997
  65.3429992  31.4384990  44.1669997  66.1789992  33.3044990  43.8079997
  65.2139992  33.8504990  43.8639997  66.9849992  33.9664990  44.1909997
  66.4089992  33.0804990  42.2819997  67.2849992  32.4024990  42.1999997
  65.5489992  32.5124990  41.8669997  66.6379992  34.3644990  41.4909997
  66.1099992  35.4244990  41.5659997  67.4409992  34.0324990  40.4619997
  68.2429992  35.0944990  39.9379997  68.5819992  34.7744990  38.9299997
  67.5629992  35.9594990  39.7809997  69.5529992  35.1974990  40.7739997
  69.2469992  35.6264990  41.7529997  70.6889992  36.1254990  40.1949997
  70.2959992  37.1204990  39.8939997  71.2849992  36.3884990  41.0939997
  71.5129992  35.3054990  39.2799997  71.4409992  35.6264990  37.7789997
  71.6839992  34.1414990  37.2219997  71.2319992  33.0364990  37.9189997
  72.1499992  32.9004990  38.5299997  70.3559992  33.3044990  38.5469997
  70.9289992  31.8814990  36.9089997  71.7529992  31.7624990  36.2219997
  70.7219992  30.9604990  37.4349997  69.6949992  31.9594990  35.8919997
  69.5609992  33.2714990  35.1509997  68.6499992  33.2574990  34.5699997
  69.5659992  34.1024990  35.8399997  70.4259992  33.3324990  34.5069997
  70.0379992  30.8644990  34.8549997  70.9289992  31.1094990  34.2959997
  70.0629992  29.9784990  35.4729997  69.1919992  30.8614990  34.1829997
  68.4729992  31.6384990  36.6559997  68.7049992  31.5524990  37.7079997
  68.0089992  30.7964990  36.1629997  67.7779992  32.4604990  36.5679997
  70.0509992  36.0594990  37.3879997  72.4969992  36.5234990  37.4209997
  70.0449992  33.8764990  40.9459997  70.8069992  33.6024990  42.0459997
  71.1989992  34.4374990  42.8309997  71.2229992  32.1074990  41.9979997
  71.9169992  32.1374990  41.1309997  70.2779992  31.5574990  41.8039997
  71.8429992  31.7754990  43.3869997  71.1439992  31.9684990  44.2279997
  72.7649992  32.3704990  43.5619997  72.3059992  30.2984990  43.4329997
  72.5689992  30.1404990  44.5009997  73.2499992  30.1934990  42.8569997
  71.2449992  29.2874990  42.8999997  71.1879992  29.2834990  41.7899997
  70.2749992  29.7804990  43.1199997  71.2689992  27.8394990  43.4059997
  72.2569992  27.6024990  43.8569997  71.2289992  27.1174990  42.5619997
  70.2309992  27.5674990  44.4779997  70.5449992  26.6244990  44.9749997
  69.2059992  27.2854990  44.1569997  70.2179992  28.6414990  45.6039997
  69.7269992  29.5854990  45.2829997  71.2409992  28.9324990  45.9259997
  69.4669992  28.0844990  46.7949997  68.5829992  27.5154990  46.4709997
  69.7609992  28.1624990  48.0599997  69.0829992  27.6524990  48.7609997
  70.9469992  28.8334990  48.6639997  71.7869992  28.9354990  47.9439997
  71.3579992  28.1484990  49.4359997  70.4479992  30.1824990  49.1239997
  70.1469992  30.8334990  48.2759997  71.2479992  30.6864990  49.7059997
  69.2279992  30.2274990  50.0799997  69.5479992  29.7094990  51.0089997
  68.3319992  29.6854990  49.7069997  68.7349992  31.6504990  50.5019997
  68.5339992  32.3204990  49.6389997  69.6119992  32.0624990  51.0449997
  67.4179992  31.6254990  51.2379997  67.2789992  31.0484990  52.1769997
  66.6469992  31.1814990  50.5719997  66.9289992  33.0834990  51.5569997
  65.8739992  33.0454990  51.9049997  66.9769992  33.7144990  50.6439997
  67.7429992  33.7784990  52.6229997  67.4109992  34.8354990  52.7099997
  68.7929992  33.9134990  52.2869997  67.6719992  33.2554990  54.1069997
  66.6539992  33.5124990  54.4679997  68.4549992  33.7234990  54.7419997
  67.6949992  32.1454990  54.0669997 117.4299992  57.9444990  59.8659997
 117.9469992  58.8904990  60.1339997 117.1779992  57.2204990  60.6709997
 116.4929992  58.2684990  59.3669997 118.3309992  57.1614990  58.8379997
 118.4539992  57.7984990  57.9359997 119.3429992  56.9664990  59.2529997
 117.8569992  55.7384990  58.5099997 118.5839992  55.3974990  57.7419997
 118.0419992  55.1624990  59.4419997 116.4579992  55.4844990  57.9989997
 116.3759992  54.4304990  57.6569997 115.7459992  55.6434990  58.8369997
 116.1209992  56.3974990  56.8389997 115.0859992  56.1474990  56.5219997
 116.0889992  57.4594990  57.1649997 116.9969992  56.0674990  55.6529997
 117.9959992  56.5074990  55.8589997 117.0279992  54.9614990  55.5499997
 116.5559992  56.7734990  54.3519997 115.4749992  56.5174990  54.3579997
 116.5129992  57.8824990  54.4119997 117.2949992  56.2794990  53.0489997
 118.3189992  56.6534990  53.2629997 117.5659992  55.2024990  53.0179997
 116.6079992  56.7454990  51.7879997 115.6589992  56.1824990  51.6579997
 116.4679992  57.8474990  51.7809997 117.4349992  56.3664990  50.5229997
 118.5089992  56.6234990  50.6379997 117.3989992  55.2594990  50.4359997
 116.9139992  57.1634990  49.2939997 115.8069992  57.0944990  49.2459997
 117.1489992  58.2454990  49.3949997 117.4159992  56.5614990  47.9649997
 118.5199992  56.4714990  48.0479997 116.9449992  55.5584990  47.8789997
 117.1199992  57.4504990  46.7529997 116.0179992  57.4684990  46.6199997
 117.4029992  58.4484990  47.1499997 117.9659992  57.1614990  45.5039997
 118.9599992  57.5774990  45.7749997 118.0399992  56.1174990  45.1309997
 117.4599992  57.9614990  44.3779997 116.5169992  57.4624990  44.0679997
 117.2969992  58.9834990  44.7819997 118.4929992  58.2224990  43.2859997
 119.7009992  58.3814990  43.3449997 117.7909992  58.0904990  42.0839997
 118.6429992  57.9064990  40.9129997 118.0589992  58.4144990  40.1159997
 119.6569992  58.3524990  40.9999997 118.8269992  56.4504990  40.4249997
 119.4199992  56.2504990  39.5069997 117.3809992  55.7824990  40.0229997
 116.6939992  56.0424990  40.8569997 117.0559992  56.3364990  39.1159997
 117.3659992  54.3794990  40.0039997 117.8859992  53.4644990  38.8409997
 117.7089992  54.4614990  37.5739997 118.7919992  54.5544990  36.6549997
 119.5179992  55.3124990  37.0219997 119.2089992  53.5484990  36.4389997
 118.3859992  55.0444990  35.1899997 119.2789992  55.1844990  34.5999997
 117.7169992  54.2884990  34.8059997 117.6459992  56.3924990  35.1089997
 117.7349992  56.9664990  33.6979997 118.7349992  57.3104990  33.4759997
 117.5329992  56.1704990  32.9959997 117.0529992  57.7974990  33.5979997
 116.2019992  56.1824990  35.4429997 116.0449992  55.5864990  36.3289997
 115.6789992  57.1214990  35.5489997 115.7349992  55.6634990  34.6189997
 118.3019992  57.3834990  36.1059997 118.0539992  58.4144990  35.9029997
 119.3409992  57.3814990  35.8109997 118.1959992  57.1204990  37.1479997
 119.3509992  53.3044990  39.0669997 116.9869992  52.2764990  38.7839997
 119.3689992  55.6074990  41.4399997 120.6269992  55.8634990  41.7909997
 121.3859992  56.7044990  41.2949997 121.0969992  54.8164990  42.7389997
 121.8519992  54.1324990  42.2949997 120.2499992  54.1824990  43.0759997
 121.7949992  55.4414990  43.9679997 121.2109992  56.3214990  44.3099997
 122.8519992  55.7034990  43.7489997 121.6399992  54.4414990  45.1399997
 122.3159992  53.5704990  44.9989997 120.5919992  54.0724990  45.1339997
 121.7659992  55.1374990  46.4749997 120.9319992  55.8714990  46.5249997
 122.7519992  55.6464990  46.5329997 121.6289992  54.3064990  47.7059997
 121.7569992  55.0734990  48.4999997 122.2829992  53.4154990  47.8129997
 120.2029992  53.5864990  47.8599997 120.0609992  52.8374990  47.0509997
 119.5219992  54.4224990  47.5919997 119.9419992  52.9814990  49.2299997
 118.9989992  52.3974990  49.2799997 119.7499992  53.8994990  49.8249997
 120.9789992  52.0504990  49.9779997 121.1859992  51.0704990  49.5249997
 121.6309992  52.3534990  51.1379997 122.1909992  51.5104990  51.5689997
 121.3859992  53.5734990  51.9729997 120.9849992  54.5054990  51.5209997
 122.3859992  53.8764990  52.3529997 120.4519992  53.2084990  53.1609997
 120.8289992  52.3574990  53.7669997 119.4029992  53.1164990  52.8069997
 120.4459992  54.3714990  54.2359997 119.5729992  54.2284990  54.9079997
 120.2159992  55.2444990  53.5889997 121.7769992  54.4414990  55.0389997
 121.8409992  55.3874990  55.6179997 122.6839992  54.4594990  54.3989997
 121.9159992  53.4474990  56.1909997 122.9319992  53.5594990  56.6269997
 121.8599992  52.4094990  55.7989997 120.7799992  53.4854990  57.2589997
 119.8839992  52.9714990  56.8489997 120.6739992  54.5544990  57.5409997
 121.1409992  52.6544990  58.4819997 121.8039992  53.2774990  59.1189997
 121.7349992  51.7444990  58.2489997 119.9209992  52.1714990  59.2869997
 119.3839992  51.4164990  58.6739997 119.2059992  53.0054990  59.4519997
 120.3689992  51.6034990  60.1289997  30.5829992  76.6254990  53.6449997
  30.9749992  77.6014990  53.2879997  31.4039992  75.8784990  53.6899997
  30.2949992  76.6164990  54.7179997  29.5099992  76.2094990  52.6589997
  29.1549992  75.2404990  53.0699997  28.7059992  76.9764990  52.6349997
  30.0369992  75.9624990  51.2239997  30.9709992  75.3604990  51.1969997
  29.2349992  75.4024990  50.6979997  30.3269992  77.1584990  50.3899997
  29.3889992  77.7524990  50.3409997  31.0609992  77.8244990  50.8929997
  30.8179992  76.7364990  48.9769997  31.7389992  76.1244990  49.0809997
  30.1449992  76.0484990  48.4209997  31.1699992  77.9864990  48.1059997
  30.3279992  78.6884990  47.9269997  31.9709992  78.6274990  48.5319997
  31.8089992  77.5404990  46.7879997  31.3669992  76.5554990  46.5239997
  31.5089992  78.2774990  46.0129997  33.3249992  77.1694990  46.7809997
  33.9789992  78.0404990  46.9999997  33.7209992  76.3654990  47.4369997
  33.5229992  76.6734990  45.3019997  32.7939992  75.8854990  45.0139997
  33.2329992  77.5054990  44.6249997  34.9339992  76.2784990  45.0149997
  35.6539992  77.1204990  45.0969997  35.1949992  75.5084990  45.7719997
  35.1939992  75.6944990  43.5609997  35.0129992  76.6024990  42.9459997
  36.2819992  75.4764990  43.5129997  34.2259992  74.5504990  43.0959997
  34.0679992  73.9244990  43.9999997  33.3619992  75.0944990  42.6559997
  34.8699992  73.5824990  42.1009997  35.6939992  73.0634990  42.6339997
  34.1739992  72.7374990  41.9119997  35.3549992  74.1154990  40.7069997
  34.5289992  74.3184990  39.9919997  35.9809992  75.0184990  40.8699997
  36.2709992  73.1484990  39.9659997  37.1509992  73.4884990  39.3789997
  36.8249992  72.5134990  40.6909997  35.4589992  72.1014990  39.1689997
  34.5359992  71.4814990  39.6219997  35.8199992  72.0074990  37.8769997
  35.0959992  71.2524990  36.8809997  35.6219992  71.2184990  35.9029997
  34.9259992  70.2234990  37.2639997  33.7059992  71.8494990  36.5069997
  33.4349992  71.2434990  35.6159997  33.8339992  73.3484990  36.0209997
  34.5259992  73.4354990  35.1569997  32.8769992  73.7394990  35.6139997
  34.2769992  74.1054990  37.0499997  33.9269992  75.6934990  37.0239997
  32.4409992  75.6024990  37.5709997  31.7549992  76.7694990  37.9699997
  31.1539992  76.6774990  38.8989997  32.4109992  77.6264990  38.2349997
  30.7229992  77.2424990  36.8349997  30.4939992  78.2694990  37.0769997
  31.1869992  77.2894990  35.8609997  29.3639992  76.5164990  36.6529997
  29.4509992  75.1244990  36.1389997  29.9549992  74.5624990  36.9109997
  28.4969992  74.6324990  36.0169997  29.8949992  75.1784990  35.1559997
  28.5639992  76.5534990  37.9039997  28.1639992  77.5454990  38.0549997
  27.7489992  75.8504990  37.8139997  29.1179992  76.3544990  38.8089997
  28.6149992  77.3234990  35.5959997  29.1999992  77.5094990  34.7069997
  28.3959992  78.2984990  36.0039997  27.6819992  76.8384990  35.3509997
  34.8259992  76.3624990  38.0489997  33.9449992  76.2974990  35.6819997
  32.8599992  71.6164990  37.6329997  31.5709992  71.9254990  37.5319997
  31.0429992  72.2374990  36.4659997  31.0299992  71.7414990  38.9269997
  31.9009992  71.6804990  39.6129997  30.5449992  70.7434990  38.9749997
  29.9519992  72.7694990  39.2669997  29.0279992  72.4114990  38.7639997
  30.3199992  73.7114990  38.8059997  29.7389992  73.0234990  40.7969997
  29.6899992  71.9924990  41.2089997  28.8419992  73.6564990  40.9629997
  30.9639992  73.7064990  41.5369997  31.0779992  74.6764990  41.0069997
  31.9679992  73.2584990  41.3769997  30.7539992  73.9364990  43.0459997
  29.8929992  74.6264990  43.1769997  31.6309992  74.5484990  43.3489997
  30.6199992  72.6544990  43.8799997  31.5779992  72.0914990  43.8649997
  29.7159992  72.1004990  43.5479997  30.3109992  72.9844990  45.3499997
  29.2579992  73.2404990  45.5959997  30.9139992  73.8764990  45.6219997
  30.6219992  71.8184990  46.1889997  29.7749992  71.2374990  46.5829997
  31.8219992  71.4974990  46.6089997  31.8699992  70.5984990  47.2409997
  33.1129992  72.2374990  46.4409997  33.0639992  72.8764990  45.5329997
  33.9149992  71.4694990  46.4119997  33.5239992  73.2374990  47.5789997
  32.7489992  74.0324990  47.5699997  34.4079992  73.8194990  47.2389997
  33.6469992  72.5114990  48.9489997  34.6159992  71.9764990  49.0459997
  32.8329992  71.7584990  48.8809997  33.4849992  73.3584990  50.2419997
  33.5059992  72.6594990  51.1049997  32.4939992  73.8584990  50.2919997
  34.5319992  74.4934990  50.3399997  34.3169992  75.3604990  49.6789997
  35.5019992  74.0134990  50.0879997  34.6209992  75.0834990  51.7749997
  34.9539992  74.2754990  52.4619997  33.5909992  75.4374990  51.9949997
  35.5649992  76.3224990  51.8509997  35.0679992  77.1474990  51.2979997
  36.5529992  76.1054990  51.3899997  35.7339992  76.8064990  53.3429997
  34.7399992  76.9634990  53.8159997  36.2739992  77.7724990  53.4369997
  36.1769992  76.0454990  54.0209997  31.0029992  63.7374990  54.1469997
  29.9999992  63.2664990  54.2169997  30.8339992  64.8324990  54.2179997
  31.6609992  63.3504990  54.9539997  31.5469992  63.4864990  52.7009997
  31.7119992  62.4134990  52.4679997  30.7869992  63.9134990  52.0119997
  32.8809992  64.2414990  52.3759997  33.6469992  63.9214990  53.1139997
  33.2819992  63.7854990  51.4459997  32.6999992  65.7434990  52.1989997
  31.9169992  65.7714990  51.4109997  32.2819992  66.1404990  53.1489997
  33.9049992  66.4294990  51.6319997  34.8119992  66.2684990  52.2539997
  34.0649992  66.1144990  50.5789997  33.6159992  67.9464990  51.5489997
  32.6719992  68.1884990  51.0159997  33.4919992  68.2914990  52.5969997
  34.7619992  68.6764990  50.9609997  35.6339992  68.5584990  51.6399997
  35.0629992  68.3104990  49.9559997  34.4249992  70.1544990  50.7879997
  33.9899992  70.5154990  51.7449997  35.3539992  70.6894990  50.4939997
  33.3119992  70.5484990  49.7379997  32.3109992  70.2984990  50.1499997
  33.3099992  71.6564990  49.6519997  33.5059992  69.9074990  48.3289997
  33.3309992  68.8214990  48.4879997  32.6509992  70.2444990  47.7039997
  34.9419992  70.2254990  47.6009997  35.1149992  71.3214990  47.6509997
  35.7839992  69.7574990  48.1559997  35.1299992  69.8454990  46.1609997
  34.2199992  70.2074990  45.6349997  36.0659992  70.3284990  45.8089997
  35.2199992  68.2644990  46.0749997  36.0299992  67.8024990  46.6789997
  34.2289992  67.9014990  46.4229997  35.0839992  67.7684990  44.6219997
  34.5829992  66.7794990  44.5599997  34.4319992  68.5204990  44.1279997
  36.4189992  67.6714990  43.8299997  36.8689992  68.6294990  43.4899997
  37.1659992  67.1624990  44.4749997  36.1569992  66.9334990  42.5449997
  36.7779992  65.9524990  42.1669997  35.2059992  67.6154990  41.8459997
  34.9739992  67.0744990  40.5129997  34.6669992  67.9094990  39.8479997
  35.8269992  66.6154990  39.9679997  33.8979992  65.9664990  40.5799997
  34.1839992  65.4294990  41.5089997  33.9179992  65.0564990  39.3619997
  34.9659992  64.8254990  39.0739997  33.2869992  64.1494990  39.4779997
  33.3709992  65.7854990  38.2509997  32.4049992  65.0894990  37.2669997
  32.2659992  66.1064990  36.0389997  33.2009992  67.0954990  35.7299997
  34.0779992  67.1594990  36.4089997  33.5649992  66.8934990  34.6999997
  32.4659992  68.4054990  35.6829997  33.2089992  69.1734990  35.5269997
  31.7949992  68.3154990  34.8419997  31.7169992  68.9794990  36.8559997
  30.5219992  68.1394990  37.2479997  29.7509992  68.0764990  36.4949997
  30.7839992  67.1134990  37.4599997  30.1079992  68.6274990  38.1179997
  32.6419992  69.0284990  38.0909997  32.5369992  69.9034990  38.7149997
  32.4679992  68.1644990  38.7149997  33.6529992  68.9074990  37.7309997
  31.3279992  70.3844990  36.4579997  30.5569992  70.4734990  35.7069997
  32.3069992  70.6794990  36.1119997  31.0919992  70.9604990  37.3399997
  32.9289992  63.7424990  36.8679997  31.1459992  65.0094990  37.9819997
  32.6699992  66.5604990  40.8339997  31.9949992  66.3764990  41.8649997
  32.3209992  65.7174990  42.8279997  30.6269992  67.0834990  41.7369997
  29.7869992  66.4114990  41.4579997  30.7209992  67.7804990  40.8769997
  30.2929992  67.7244990  43.0849997  31.1969992  67.8624990  43.7169997
  29.7419992  66.8734990  43.5389997  29.3369992  68.9104990  43.0589997
  28.3419992  68.6144990  42.6649997  29.7679992  69.5624990  42.2699997
  29.2229992  69.4464990  44.4989997  28.5829992  70.3534990  44.4719997
  30.2849992  69.6704990  44.7379997  28.5579992  68.4344990  45.5529997
  29.1169992  67.4834990  45.6889997  27.5059992  68.2184990  45.2669997
  28.5789992  69.1194990  46.8769997  27.8509992  69.9494990  46.7529997
  29.6189992  69.4434990  47.0949997  28.0449992  68.4304990  48.1519997
  27.0489992  68.0144990  47.8879997  27.8319992  69.2274990  48.8959997
  28.8759992  67.2614990  48.6979997  29.1139992  66.5214990  47.9189997
  29.5009992  67.2064990  49.8979997  30.0989992  66.3154990  50.1409997
  29.4539992  68.2164990  51.0089997  28.8549992  69.1004990  50.7049997
  30.5359992  68.4584990  51.0869997  29.1189992  67.6944990  52.4179997
  29.5309992  66.6624990  52.4029997  28.0219992  67.6764990  52.5959997
  29.9159992  68.4084990  53.5369997  29.7219992  69.4984990  53.4399997
  31.0189992  68.3074990  53.4519997  29.5489992  67.9444990  54.9229997
  29.8039992  66.8754990  55.0919997  28.4429992  67.9384990  55.0279997
  30.0919992  68.8564990  55.9879997  29.6409992  68.6164990  56.9739997
  29.7459992  69.8634990  55.6699997  31.5779992  68.7724990  56.2189997
  32.1209992  68.7754990  55.2499997  31.8749992  67.8404990  56.7459997
  31.9869992  69.9534990  57.1309997  32.8869992  69.5744990  57.6619997
  31.1969992  70.0914990  57.8989997  32.1799992  71.2364990  56.4249997
  33.0309992  71.2154990  55.7109997  32.4329992  71.9634990  57.2259997
  31.2239992  71.4724990  55.9099997  54.3139992  32.9394990  56.6399997
  53.7659992  32.1674990  57.2229997  53.7739992  33.8974990  56.7989997
  55.3549992  32.9024990  57.0249997  54.2919992  32.5394990  55.1599997
  55.3449992  32.3484990  54.8599997  53.6319992  31.6534990  55.0459997
  53.7229992  33.6384990  54.2529997  52.6639992  33.9134990  54.4479997
  54.1349992  34.6134990  54.5899997  53.8459992  33.5164990  52.7089997
  53.1509992  32.7374990  52.3279997  53.4899992  34.4644990  52.2529997
  55.2259992  33.0554990  52.1799997  55.9749992  33.7064990  52.6799997
  55.3519992  32.0384990  52.6119997  55.3499992  32.9254990  50.7379997
  54.9209992  33.8174990  50.2339997  56.4029992  32.7844990  50.4109997
  54.7449992  31.5964990  50.1789997  55.1769992  30.8434990  50.8709997
  53.6459992  31.7604990  50.1559997  55.2689992  31.2214990  48.7379997
  56.3169992  30.8534990  48.7599997  54.5139992  30.5344990  48.2989997
  55.2359992  32.4114990  47.7319997  55.7979992  33.2934990  48.1059997
  55.7469992  32.0894990  46.7989997  53.8269992  32.7884990  47.3389997
  53.4789992  31.9254990  46.7309997  53.0789992  32.7564990  48.1599997
  53.8249992  33.8994990  46.2579997  52.7969992  34.1274990  45.9009997
  54.2069992  34.7764990  46.8219997  54.6409992  33.6604990  44.9139997
  55.7019992  33.7134990  45.2369997  54.4179992  32.6454990  44.5209997
  54.5229992  34.7604990  43.8499997  55.4289992  34.6034990  43.2269997
  53.5719992  34.4764990  43.3519997  54.4269992  36.1364990  44.4549997
  53.3599992  36.2284990  44.7519997  55.2269992  36.0884990  45.2239997
  54.5679992  37.2044990  43.3809997  53.7519992  37.0554990  42.6399997
  54.4129992  38.2194990  43.8049997  55.9739992  37.1964990  42.7919997
  57.0509992  37.0934990  43.4009997  55.8239992  37.3374990  41.4439997
  56.8929992  37.0484990  40.5579997  56.7099992  37.5824990  39.6009997
  57.9149992  37.3014990  40.9109997  56.8449992  35.6074990  40.0029997
  57.5189992  35.5104990  39.1249997  55.3889992  35.2444990  39.5159997
  54.6939992  35.2554990  40.3829997  54.9789992  36.0414990  38.8579997
  55.3149992  33.9884990  38.8459997  54.0189992  33.5644990  37.9689997
  54.6889992  33.1604990  36.5899997  55.7989992  32.2904990  36.5689997
  55.6949992  31.4784990  37.3199997  55.7359992  31.7584990  35.5959997
  57.2499992  32.8804990  36.8829997  57.0799992  33.2434990  37.8859997
  57.9419992  32.0554990  36.9619997  57.7579992  34.0104990  36.0419997
  56.8879992  35.3254990  36.1899997  57.3799992  36.0144990  35.5199997
  55.8509992  35.1704990  35.9309997  56.8209992  35.7374990  37.1859997
  59.1449992  34.4944990  36.3219997  59.7659992  33.6344990  36.5269997
  59.3879992  35.0804990  35.4489997  59.1549992  35.0694990  37.2359997
  57.6999992  33.5234990  34.6279997  56.6709992  33.4084990  34.3199997
  58.1649992  32.5484990  34.6239997  58.2449992  34.1424990  33.9319997
  53.3939992  32.3614990  38.6039997  53.2309992  34.8004990  37.8289997
  57.2099992  34.5444990  41.0049997  58.3359992  34.6074990  41.5579997
  59.2259992  35.4504990  41.3999997  58.5719992  33.4784990  42.4769997
  58.8799992  32.6074990  41.8609997  57.6039992  33.1844990  42.9369997
  59.5649992  33.7294990  43.5419997  60.4969992  33.8414990  42.9489997
  59.7029992  32.7714990  44.0889997  59.2329992  34.8974990  44.4659997
  58.1559992  34.8644990  44.7379997  59.4499992  35.8464990  43.9309997
  60.0499992  34.8844990  45.8279997  61.0999992  34.6674990  45.5359997
  59.7139992  34.0174990  46.4349997  60.0029992  36.1364990  46.7109997
  60.4819992  36.9114990  46.0739997  60.6649992  35.9994990  47.5919997
  58.5849992  36.4724990  47.1509997  58.0389992  36.7904990  46.2369997
  58.5119992  37.3714990  47.7989997  57.8749992  35.2914990  47.9129997
  57.9989992  34.2894990  47.4479997  56.7799992  35.4694990  47.8619997
  58.3039992  35.1614990  49.3409997  58.8469992  34.2184990  49.5039997
  58.1059992  35.8944990  50.3799997  58.4029992  35.5064990  51.3649997
  57.3759992  37.1704990  50.4719997  56.7879992  37.3804990  49.5529997
  58.1929992  37.8984990  50.6619997  56.3999992  37.0824990  51.6609997
  56.8309992  36.4614990  52.4749997  55.5629992  36.4774990  51.2509997
  55.9209992  38.4344990  52.3659997  55.0839992  38.1124990  53.0219997
  55.4599992  39.0364990  51.5539997  56.9729992  39.1914990  53.2149997
  56.6869992  40.2584990  53.1039997  57.9869992  39.1774990  52.7619997
  57.0199992  38.7194990  54.7109997  57.2399992  37.6464990  54.8979997
  56.0339992  38.9754990  55.1549997  58.1529992  39.4104990  55.4849997
  58.0099992  40.5124990  55.4659997  58.9899992  39.0744990  54.8369997
  58.2909992  38.9784990  56.9509997  59.1429992  39.5784990  57.3369997
  58.4569992  37.8824990  57.0129997  57.1089992  39.1734990  57.8019997
  57.3529992  39.2764990  58.8809997  56.4369992  38.3164990  57.5829997
  56.5499992  40.0974990  57.5409997  40.6689992  92.8924990  53.7799997
  40.5119992  92.2044990  54.6379997  41.6629992  93.3504990  53.9689997
  40.9419992  92.2504990  52.9149997  39.4749992  93.8014990  53.5699997
  38.5939992  93.2014990  53.8819997  39.5639992  94.7104990  54.2029997
  39.4239992  94.3574990  52.1439997  38.6419992  95.0734990  51.8139997
  40.3829992  94.7334990  51.7279997  38.9449992  93.2184990  51.2429997
  39.1089992  93.5124990  50.1839997  39.3809992  92.1984990  51.3029997
  37.4359992  92.7934990  51.5429997  37.3089992  92.3834990  52.5679997
  36.7189992  93.6184990  51.3449997  37.0279992  91.6944990  50.5639997
  37.7189992  90.8964990  50.9099997  36.0199992  91.3824990  50.9129997
  37.1239992  91.9784990  49.0809997  38.1689992  92.1034990  48.7239997
  36.7499992  91.0414990  48.6159997  36.2649992  93.0714990  48.4579997
  35.2349992  92.6554990  48.4869997  36.1609992  93.9794990  49.0899997
  36.6189992  93.4064990  47.0319997  35.8989992  94.2284990  46.8299997
  37.6529992  93.8124990  47.0179997  36.3129992  92.4394990  45.9039997
  36.9549992  91.5354990  45.8229997  35.2659992  92.0714990  45.9539997
  36.4539992  93.0934990  44.5699997  36.0959992  94.1444990  44.6099997
  37.5509992  93.1944990  44.4209997  35.7729992  92.3994990  43.3999997
  36.0299992  91.3194990  43.4359997  34.6809992  92.5614990  43.5299997
  36.0189992  93.0864990  42.0589997  37.1099992  93.2824990  41.9829997
  35.7439992  92.3544990  41.2709997  35.1069992  94.2984990  41.7799997
  34.0179992  94.1984990  41.9759997  35.4279992  95.1574990  42.4069997
  35.1929992  94.7364990  40.2679997  35.1389992  93.8674990  39.5769997
  34.3899992  95.4824990  40.0869997  36.4919992  95.4454990  40.0489997
  37.3129992  95.8464990  40.9259997  36.4799992  95.8614990  38.7969997
  37.6669992  96.4784990  38.2419997  37.3659992  97.0974990  37.3699997
  38.2149992  97.1504990  38.9359997  38.6589992  95.4724990  37.7919997
  39.4479992  95.9854990  37.1999997  38.1379992  94.3214990  36.9139997
  37.2479992  94.6364990  36.3269997  38.9259992  94.1104990  36.1599997
  37.7429992  93.2054990  37.7259997  36.6299992  92.1844990  37.2049997
  37.6249992  90.9784990  36.9059997  38.3159992  90.5484990  37.9999997
  38.8819992  91.3194990  38.5649997  37.6059992  89.9734990  38.6309997
  39.4209992  89.5654990  37.5879997  39.9859992  89.2364990  38.4479997
  38.8679992  88.6724990  37.3369997  40.4569992  89.8174990  36.4809997
  39.6949992  90.0224990  35.2349997  39.0579992  89.1704990  35.0509997
  39.0149992  90.8594990  35.2959997  40.3469992  90.1734990  34.3869997
  41.0709992  91.1024990  36.7649997  40.2959992  91.8534990  36.7069997
  41.4469992  91.0674990  37.7759997  41.8179992  91.2054990  35.9919997
  41.3299992  88.6194990  36.3019997  42.0239992  88.8404990  35.5039997
  40.6869992  87.7604990  36.1819997  41.8949992  88.3834990  37.1919997
  35.6789992  91.7854990  38.2829997  36.0219992  92.6714990  35.9809997
  39.2489992  94.9244990  39.0039997  40.4859992  94.4784990  39.0459997
  41.2959992  94.4194990  38.1179997  40.8279992  94.0804990  40.4279997
  39.9209992  93.5544990  40.7959997  40.9649992  95.0214990  41.0019997
  42.1309992  93.2994990  40.5719997  42.8989992  94.0854990  40.4099997
  42.2449992  92.4334990  39.8859997  42.4529992  92.9064990  42.0579997
  42.1699992  93.8054990  42.6459997  43.5229992  92.6214990  42.1439997
  41.4749992  91.8284990  42.5169997  41.5829992  90.9624990  41.8299997
  40.4219992  92.1804990  42.5679997  41.7809992  91.2484990  43.8599997
  42.8569992  90.9724990  43.8759997  41.1249992  90.3664990  44.0259997
  41.4779992  92.1814990  45.0749997  40.4089992  92.4624990  44.9599997
  42.1839992  93.0384990  45.0969997  41.3769992  91.4814990  46.4409997
  40.6899992  90.6094990  46.4949997  40.8729992  92.1454990  47.1739997
  42.7309992  90.9774990  46.9209997  43.4789992  90.8574990  46.1229997
  43.0709992  90.6904990  48.2409997  44.0539992  90.2324990  48.4239997
  42.1999992  90.8224990  49.4029997  41.3389992  91.5184990  49.3189997
  42.7439992  91.0164990  50.3519997  41.4009992  89.5064990  49.7239997
  42.1679992  88.7024990  49.7099997  40.5879992  89.1774990  49.0419997
  40.8159992  89.4114990  51.1989997  39.8609992  89.9704990  51.2969997
  41.5279992  89.9574990  51.8549997  40.8429992  87.9744990  51.6979997
  41.8339992  87.4924990  51.5559997  40.0779992  87.4184990  51.1139997
  40.3789992  87.7454990  53.1229997  41.2609992  87.9484990  53.7679997
  39.9859992  86.7254990  53.3229997  39.2599992  88.6504990  53.6599997
  38.3319992  88.3914990  53.1079997  39.4969992  89.7334990  53.5819997
  39.0619992  88.3764990  55.1839997  40.0289992  88.3904990  55.7309997
  38.5599992  87.3854990  55.1939997  38.1279992  89.3824990  55.8679997
  37.8389992  88.9984990  56.8699997  37.2199992  89.4294990  55.2299997
  38.5539992  90.3874990  56.0719997  93.7399992  31.6434990  54.3859997
  94.1089992  31.7364990  55.4299997  93.0409992  30.7824990  54.3199997
  93.2559992  32.6404990  54.3059997  94.8949992  31.6334990  53.3689997
  95.6959992  32.3554990  53.6379997  95.4199992  30.6584990  53.2789997
  94.4389992  32.1294990  51.9879997  93.4019992  31.8714990  51.6869997
  94.5869992  33.2264990  51.8879997  95.2359992  31.4884990  50.8109997
  96.3169992  31.7434990  50.8469997  95.1409992  30.3954990  50.9889997
  94.5759992  31.8314990  49.4139997  93.6349992  31.2534990  49.2919997
  94.4039992  32.9264990  49.4889997  95.4899992  31.6404990  48.1749997
  96.4769992  32.1284990  48.3239997  95.7279992  30.5564990  48.1329997
  94.8029992  31.8924990  46.8129997  95.3899992  31.4964990  45.9559997
  93.8519992  31.3214990  46.8739997  94.4329992  33.3834990  46.6699997
  94.1559992  33.5774990  45.6119997  93.6519992  33.5754990  47.4379997
  95.6529992  34.4154990  46.8149997  95.7979992  34.3574990  47.9139997
  96.5179992  34.0744990  46.2069997  95.2459992  35.8614990  46.3029997
  95.0349992  35.7964990  45.2139997  94.2429992  36.1584990  46.6789997
  96.2419992  36.9584990  46.6789997  96.3039992  36.9314990  47.7879997
  97.1919992  36.5344990  46.2879997  95.9799992  38.3314990  46.0179997
  95.0559992  38.7624990  46.4599997  96.9069992  38.8884990  46.2699997
  95.6059992  38.2944990  44.5539997  94.5829992  37.9074990  44.3619997
  95.6359992  39.3354990  44.1669997  96.7299992  37.6074990  43.8079997
  97.7189992  38.1104990  43.8639997  96.8369992  36.5694990  44.1909997
  96.4159992  37.5404990  42.2819997  95.3669992  37.1844990  42.1999997
  96.4179992  38.5704990  41.8669997  97.3599992  36.6394990  41.4909997
  98.5349992  36.4944990  41.5659997  96.6399992  36.1534990  40.4619997
  97.0819992  34.8984990  39.9379997  96.6269992  34.7924990  38.9299997
  98.1779992  34.9874990  39.7809997  96.4439992  33.7494990  40.7739997
  96.9699992  33.7674990  41.7529997  96.5899992  32.2904990  40.1949997
  97.6359992  32.0674990  39.8939997  96.4799992  31.6474990  41.0939997
  95.4509992  32.0554990  39.2799997  95.7589992  31.9394990  37.7789997
  94.3859992  32.5564990  37.2219997  93.7149992  33.5434990  37.9189997
  93.0949992  32.8534990  38.5299997  94.4229992  34.1264990  38.5469997
  92.9199992  34.4344990  36.9089997  92.3649992  33.8134990  36.2219997
  92.2659992  35.1154990  37.4349997  93.6659992  35.4204990  35.8919997
  94.8339992  34.8074990  35.1509997  95.3259992  35.5734990  34.5699997
  95.5239992  34.3444990  35.8399997  94.4069992  34.0524990  34.5069997
  92.5639992  35.7394990  34.8549997  92.2759992  34.8614990  34.2959997
  91.8119992  36.2074990  35.4729997  93.0289992  36.4464990  34.1829997
  94.0739992  36.6164990  36.6559997  93.8739992  36.4704990  37.7079997
  93.6279992  37.4684990  36.1629997  95.1429992  36.7414990  36.5679997
  96.8869992  32.8584990  37.3879997  95.9219992  30.5634990  37.4209997
  95.0709992  34.0694990  40.9459997  94.4219992  33.5854990  42.0459997
  94.9009992  32.7974990  42.8309997  92.9449992  34.0644990  41.9979997
  92.5869992  33.4704990  41.1309997  93.0099992  35.1564990  41.8039997
  92.3259992  33.7314990  43.3869997  92.8729992  34.2074990  44.2279997
  92.3129992  32.6344990  43.5619997  90.8389992  34.1624990  43.4329997
  90.5619992  34.0294990  44.5009997  90.2299992  33.4324990  42.8569997
  90.5829992  35.6044990  42.8999997  90.6109992  35.6544990  41.7899997
  91.5299992  36.1404990  43.1199997  89.3619992  36.3844990  43.4059997
  88.6189992  35.6914990  43.8569997  88.7829992  36.8164990  42.5619997
  89.7089992  37.3994990  44.4779997  88.7489992  37.6594990  44.9749997
  90.0399992  38.4104990  44.1569997  90.6119992  36.8174990  45.6039997
  91.6689992  36.7044990  45.2829997  90.2889992  35.8044990  45.9259997
  90.5619992  37.7514990  46.7949997  90.5759992  38.8024990  46.4709997
  90.4639992  37.4624990  48.0599997  90.4139992  38.3094990  48.7609997
  90.3689992  36.1034990  48.6639997  89.9899992  35.3464990  47.9439997
  89.5709992  36.1394990  49.4359997  91.7689992  35.7744990  49.1239997
  92.4779992  35.6654990  48.2759997  91.7469992  34.8284990  49.7059997
  92.4809992  36.7664990  50.0799997  91.8719992  36.7854990  51.0089997
  92.5239992  37.8124990  49.7069997  93.9389992  36.3914990  50.5019997
  94.6089992  36.1874990  49.6389997  93.7979992  35.4324990  51.0449997
  94.6459992  37.5034990  51.2379997  94.2419992  37.9374990  52.1769997
  94.7009992  38.3914990  50.5719997  96.1319992  37.1054990  51.5569997
  96.6829992  38.0054990  51.9049997  96.6309992  36.7154990  50.6439997
  96.2609992  36.0424990  52.6229997  97.3259992  35.7354990  52.7099997
  95.7939992  35.0924990  52.2869997  95.8639992  36.3904990  54.1069997
  96.6409992  37.0974990  54.4679997  95.8209992  35.4794990  54.7419997
  94.9259992  36.9844990  54.0669997 104.5179992  38.8844990  53.0899997
 104.6489992  39.0184990  51.9949997 105.4469992  38.5564990  53.6049997
 104.3779992  39.9464990  53.3849997 103.3079992  38.0464990  53.4409997
 103.5419992  36.9644990  53.3469997 103.0709992  38.3374990  54.4869997
 102.0299992  38.3164990  52.6009997 101.2189992  37.6764990  53.0099997
 101.7629992  39.3904990  52.7009997 102.0119992  37.9574990  51.1349997
 102.9609992  38.2784990  50.6529997 101.8499992  36.8584990  51.1199997
 100.9279992  38.6844990  50.2399997  99.9349992  38.7884990  50.7279997
 101.1839992  39.7654990  50.2199997 100.8149992  37.9934990  48.9359997
 101.7949992  38.0144990  48.4129997 100.5529992  36.9244990  49.0859997
  99.7099992  38.5854990  48.0799997  99.3979992  37.7914990  47.3689997
  98.8009992  38.8114990  48.6769997 100.1499992  39.9544990  47.5079997
  99.2419992  40.5854990  47.4039997 100.8339992  40.5184990  48.1769997
 100.6999992  39.8054990  46.0989997 101.7889992  39.5994990  46.1669997
 100.1049992  39.0454990  45.5489997 100.5709992  41.0114990  45.2079997
  99.6159992  41.4804990  45.5279997 101.2569992  41.8494990  45.4539997
 100.6099992  40.7204990  43.7189997  99.8979992  39.8734990  43.6139997
 100.1689992  41.6064990  43.2119997 102.0789992  40.5514990  43.0829997
 102.0009992  40.3484990  41.9939997 102.4479992  41.5974990  43.1379997
 103.2049992  39.7804990  43.8699997 103.4519992  40.2744990  44.8339997
 102.8809992  38.7354990  44.0659997 104.4779992  39.5614990  43.1479997
 105.1359992  40.4514990  43.2439997 105.0219992  38.7214990  43.6299997
 104.4079992  39.2594990  41.6369997 103.7119992  38.4004990  41.5309997
 104.0329992  40.1624990  41.1089997 105.7759992  38.9404990  41.0989997
 106.8129992  38.7904990  41.7449997 105.6679992  38.6504990  39.8039997
 106.8869992  38.7104990  39.0589997 107.0059992  39.7464990  38.6759997
 107.7719992  38.4604990  39.6819997 106.6269992  37.7274990  37.8819997
 107.6459992  37.4664990  37.5259997 105.7739992  38.4304990  36.8339997
 104.8889992  38.9674990  37.2379997 106.4579992  39.2484990  36.5249997
 105.5209992  37.6494990  35.7309997 104.0599992  37.5494990  35.0789997
 103.0379992  37.5594990  36.2969997 102.1839992  36.4244990  36.6059997
 101.2699992  36.5494990  35.9869997 102.6729992  35.4924990  36.2499997
 101.9209992  36.3114990  38.0869997 101.3469992  35.3984990  38.1449997
 102.8609992  36.0384990  38.5449997 101.2249992  37.3524990  38.7839997
 100.0879992  37.9334990  38.0499997 100.4409992  38.3144990  37.1029997
  99.4029992  37.1024990  37.9749997  99.6469992  38.7464990  38.6079997
 100.7069992  36.9284990  40.0999997 101.4859992  36.6904990  40.8099997
 100.2449992  37.8214990  40.4939997  99.9619992  36.1624990  39.9439997
 102.2359992  38.5304990  39.0129997 102.6289992  38.9574990  38.1019997
 102.9969992  38.1954990  39.7029997 101.7939992  39.3014990  39.6269997
 103.7739992  38.7244990  34.2739997 103.9839992  36.2244990  34.4499997
 106.0139992  36.4844990  38.2689997 106.6079992  35.5944990  39.0379997
 107.6809992  35.7164990  39.5669997 105.6059992  34.4124990  39.1869997
 106.0259992  33.5974990  38.5599997 104.5959992  34.6844990  38.8129997
 105.5919992  33.7274990  40.5549997 106.5909992  33.3334990  40.8399997
 104.8509992  32.9074990  40.6699997 105.1729992  34.7854990  41.6059997
 104.1779992  35.2104990  41.3509997 105.8539992  35.6624990  41.5859997
 105.0289992  34.1554990  43.0049997 106.0759992  33.8984990  43.2719997
 104.4569992  33.2124990  42.8689997 104.3699992  35.0994990  43.9399997
 103.2909992  35.2124990  43.6999997 104.7909992  36.1254990  43.8859997
 104.2399992  34.5094990  45.3949997 105.1579992  34.1914990  45.9339997
 103.8099992  33.4874990  45.3209997 103.3309992  35.4334990  46.2889997
 103.3179992  34.8024990  47.2029997 102.3339992  35.4224990  45.7989997
 103.9879992  36.7534990  46.4139997 103.5949992  37.5284990  45.7399997
 104.8569992  37.0604990  47.3919997 105.1989992  38.1034990  47.4569997
 105.3039992  36.2134990  48.5419997 104.9869992  35.1564990  48.4179997
 104.7259992  36.5004990  49.4459997 106.8109992  36.2284990  48.7319997
 107.1529992  37.2574990  48.9739997 107.3489992  35.9554990  47.7989997
 107.2989992  35.2684990  49.8159997 108.3769992  35.5024990  49.9459997
 107.1739992  34.2084990  49.5079997 106.6759992  35.6024990  51.1459997
 105.5839992  35.4014990  51.1929997 106.8649992  36.6964990  51.1699997
 107.5009992  34.9074990  52.3099997 108.5589992  34.8924990  51.9709997
 107.0799992  33.9054990  52.5429997 107.3739992  35.6794990  53.6519997
 107.7309992  35.0654990  54.5059997 106.2679992  35.7584990  53.7319997
 108.0409992  37.1014990  53.6549997 108.0809992  37.4694990  54.7029997
 107.4989992  37.7814990  52.9629997 109.5079992  37.1384990  53.0909997
 109.8709992  38.1814990  53.2139997 109.4969992  36.8344990  52.0229997
 110.0899992  36.4824990  53.7729997  33.8429992  40.9094990  56.5189997
  33.1729992  40.7714990  57.3949997  34.0969992  41.9854990  56.6209997
  34.7029992  40.2214990  56.6629997  33.3779992  40.6084990  55.0899997
  32.8559992  39.6284990  55.1219997  32.6339992  41.3854990  54.8109997
  34.4159992  40.6354990  53.9799997  35.0059992  41.5744990  53.9219997
  35.0289992  39.7124990  54.0679997  33.7699992  40.4404990  52.5809997
  33.1579992  39.5124990  52.5989997  33.0099992  41.2194990  52.3599997
  34.7909992  40.1344990  51.4339997  35.4949992  40.9854990  51.3119997
  35.4939992  39.3364990  51.7569997  34.0749992  39.7354990  50.0999997
  33.9059992  38.6494990  49.9449997  33.0329992  40.1154990  50.1529997
  34.8909992  40.2134990  48.7939997  34.7109992  41.3094990  48.8219997
  35.9779992  40.0274990  48.9309997  34.3749992  39.5494990  47.4719997
  34.3689992  38.4474990  47.6169997  33.3119992  39.7994990  47.2699997
  35.2319992  39.9894990  46.2079997  34.8849992  41.0204990  45.9859997
  36.2949992  40.1254990  46.5009997  34.8939992  39.0814990  45.0549997
  35.5089992  39.3034990  44.1569997  34.9429992  37.9844990  45.2209997
  33.4909992  39.2914990  44.4369997  32.7959992  39.1234990  45.2879997
  33.3619992  40.3424990  44.1009997  33.1229992  38.2924990  43.3789997
  33.9369992  38.3114990  42.6229997  33.1439992  37.2534990  43.7719997
  31.7339992  38.3364990  42.7769997  31.5839992  37.4154990  42.1729997
  30.9019992  38.4154990  43.5079997  31.5729992  39.6804990  41.8269997
  31.5589992  40.4724990  42.6059997  32.4939992  39.7984990  41.2159997
  30.2889992  39.7594990  41.0269997  30.2669992  39.0504990  40.1709997
  29.4659992  39.6064990  41.7569997  30.0109992  41.1494990  40.4669997
  29.1389992  41.9034990  40.8469997  30.9049992  41.4384990  39.4649997
  30.7389992  42.6914990  38.8639997  30.6299992  42.5514990  37.7669997
  29.7419992  43.1404990  39.0629997  31.9009992  43.6294990  39.1109997
  31.7119992  44.5724990  38.5539997  33.2539992  43.0914990  38.4779997
  32.9949992  42.6804990  37.4789997  34.0259992  43.8844990  38.3789997
  33.6949992  42.0004990  39.3299997  34.5459992  40.8744990  38.6179997
  33.5129992  40.2234990  37.5949997  34.0659992  39.7944990  36.3399997
  34.9239992  40.4024990  35.9799997  34.3609992  38.7234990  36.3509997
  32.9289992  39.8144990  35.2419997  32.5239992  40.8154990  35.2119997
  33.3999992  39.6304990  34.2879997  31.6919992  38.8984990  35.4419997
  30.8389992  39.3174990  36.6629997  31.4699992  39.3554990  37.5389997
  30.4399992  40.3164990  36.5659997  30.0579992  38.5834990  36.7989997
  30.7889992  38.9374990  34.2339997  29.9249992  38.3444990  34.4939997
  30.4149992  39.9204990  33.9899997  31.2549992  38.5754990  33.3289997
  32.1739992  37.4974990  35.5689997  32.7849992  37.1604990  34.7449997
  31.3289992  36.8824990  35.8449997  32.6719992  37.4234990  36.5249997
  35.6379992  41.5204990  37.8419997  34.8429992  39.8514990  39.5959997
  32.0479992  43.7904990  40.5189997  31.3099992  44.7164990  41.1059997
  30.3599992  45.2824990  40.6629997  31.6439992  44.7004990  42.6589997
  30.7139992  44.9634990  43.2069997  32.5549992  45.2854990  42.9069997
  31.9469992  43.2754990  43.1589997  33.0529992  43.1934990  43.0859997
  31.4439992  42.5754990  42.4579997  31.5209992  42.9084990  44.6219997
  32.0969992  43.5624990  45.3109997  31.7579992  41.8294990  44.7449997
  29.9809992  43.1224990  44.8229997  29.6299992  42.7804990  43.8259997
  29.8979992  44.1994990  45.0809997  29.4559992  42.1314990  45.9099997
  28.3449992  42.1594990  45.8989997  29.8789992  42.4594990  46.8839997
  29.6969992  40.6124990  45.6529997  30.7809992  40.5444990  45.8859997
  29.5589992  40.2794990  44.6019997  29.0279992  39.8164990  46.7479997
  27.9239992  39.7674990  46.6329997  29.2719992  40.3594990  47.6859997
  29.6479992  38.3784990  46.6139997  29.6879992  37.8824990  45.6329997
  30.2379992  37.6274990  47.6069997  30.6369992  36.6524990  47.2889997
  30.3989992  38.0524990  49.0549997  29.6419992  38.8394990  49.2579997
  31.3949992  38.5314990  49.1729997  30.4709992  36.9644990  50.0299997
  31.4109992  36.3944990  49.8689997  29.5669992  36.3174990  50.0439997
  30.5829992  37.5054990  51.4779997  31.5779992  37.9834990  51.6029997
  30.5519992  36.6354990  52.1679997  29.4729992  38.4304990  51.8789997
  28.4389992  38.0684990  51.6939997  29.5979992  39.4174990  51.3849997
  29.6379992  38.6664990  53.4259997  30.6709992  38.4564990  53.7749997
  28.8629992  38.0034990  53.8669997  29.3459992  40.1294990  53.7919997
  30.0729992  40.7554990  53.2319997  29.6069992  40.2854990  54.8599997
  28.0429992  40.7424990  53.3819997  27.2699992  39.9444990  53.3699997
  27.9999992  41.0474990  52.3139997  27.4529992  41.8544990  54.2799997
  27.8869992  42.8594990  54.0899997  27.3799992  41.5954990  55.3579997
  26.4159992  42.0074990  53.9139997 106.8569992  88.8814990  55.3579997
 107.1759992  88.5364990  56.3649997 107.4749992  88.3314990  54.6169997
 105.7679992  88.6824990  55.2719997 107.3509992  90.3354990  55.3689997
 106.9089992  91.0344990  56.1119997 108.4239992  90.3524990  55.6569997
 107.2899992  90.9844990  53.9539997 108.0149992  90.3734990  53.3739997
 106.2849992  90.9404990  53.4819997 107.9199992  92.3624990  53.9099997
 107.3489992  93.1014990  54.5109997 108.9009992  92.2304990  54.4139997
 108.2649992  93.0054990  52.5859997 107.4149992  92.9264990  51.8739997
 108.4209992  94.0894990  52.7679997 109.5929992  92.4204990  51.9689997
 110.3939992  92.7744990  52.6529997 109.6149992  91.3114990  51.9009997
 109.8659992  93.0414990  50.5539997 109.5529992  94.1064990  50.5179997
 110.9699992  93.1604990  50.5429997 109.3329992  92.1864990  49.4749997
 109.7889992  92.3144990  48.4699997 109.4309992  91.0954990  49.6599997
 107.8559992  92.4684990  49.2439997 107.2259992  92.0394990  50.0519997
 107.6519992  93.5604990  49.2259997 107.2799992  91.9484990  47.8899997
 106.1929992  92.1744990  47.8369997 107.6009992  92.5204990  46.9929997
 107.4229992  90.3864990  47.6869997 108.4189992  90.0454990  47.3319997
 107.2489992  89.8374990  48.6379997 106.4419992  89.8954990  46.5829997
 106.5429992  88.7894990  46.5349997 105.4499992  90.1684990  47.0029997
 106.5899992  90.5464990  45.1479997 106.5559992  91.6544990  45.2239997
 107.6509992  90.3714990  44.8709997 105.6879992  89.8824990  44.0549997
 106.0369992  88.8604990  43.7959997 104.6529992  89.8684990  44.4589997
 105.7729992  90.6534990  42.6079997 106.8229992  90.9714990  42.4349997
 105.4589992  89.9534990  41.8039997 104.8979992  91.8794990  42.4289997
 104.5729992  92.5704990  43.3549997 104.7649992  92.1844990  41.1269997
 104.1559992  93.3984990  40.7689997 103.6439992  93.1954990  39.8039997
 103.2959992  93.6644990  41.4199997 105.1009992  94.5974990  40.4849997
 104.4319992  95.4264990  40.1709997 106.1149992  94.1734990  39.3269997
 105.5429992  93.7204990  38.4889997 106.7019992  95.0824990  39.0759997
 107.0029992  93.1624990  39.7299997 108.2099992  92.7144990  38.8229997
 108.4119992  93.9534990  37.8139997 109.3469992  94.0464990  36.8399997
 109.6309992  95.1204990  36.8119997 110.2949992  93.5144990  37.0689997
 108.6579992  93.6054990  35.5869997 109.3199992  93.4794990  34.7429997
 108.3159992  92.6414990  35.9329997 107.3849992  94.3504990  35.0969997
 106.1339992  93.7804990  35.8429997 106.2419992  93.7934990  36.9169997
 105.2929992  94.4014990  35.5729997 106.0279992  92.7714990  35.4729997
 107.5029992  95.8054990  35.4499997 108.4159992  96.1784990  35.0089997
 106.7289992  96.4504990  35.0619997 107.5379992  95.7684990  36.5289997
 107.2249992  94.4174990  33.6099997 107.3069992  93.4374990  33.1639997
 107.9019992  95.0924990  33.1069997 106.2239992  94.7894990  33.4489997
 109.4159992  92.5614990  39.6929997 107.8779992  91.5534990  37.9859997
 105.7599992  94.8944990  41.7119997 106.3299992  96.1404990  41.6349997
 106.0129992  96.9574990  40.7919997 107.4459992  96.2554990  42.6959997
 107.2649992  97.0114990  43.4899997 108.3779992  96.5824990  42.1859997
 107.8039992  94.8794990  43.3899997 108.0279992  94.1504990  42.5819997
 106.9169992  94.4684990  43.9199997 108.8539992  94.7974990  44.5259997
 109.8339992  94.7174990  44.0089997 108.7299992  93.8034990  45.0049997
 108.7899992  95.8824990  45.5719997 108.9679992  96.9294990  45.2469997
 109.6269992  95.7644990  46.2939997 107.4739992  95.9444990  46.4359997
 107.3449992  94.9924990  46.9949997 106.5039992  96.1854990  45.9509997
 107.6499992  97.0584990  47.5029997 107.5519992  98.0794990  47.0749997
 108.6719992  97.0754990  47.9369997 106.6099992  97.0914990  48.6519997
 106.8979992  97.9414990  49.3059997 106.6509992  96.0844990  49.1199997
 105.1939992  97.4744990  48.3499997 105.1179992  98.4204990  47.7939997
 104.0109992  96.8384990  48.6789997 103.0889992  97.2644990  48.2579997
 103.9199992  95.5424990  49.4469997 104.7529992  94.8604990  49.1699997
 102.9739992  95.1324990  49.0339997 103.8939992  95.6614990  50.9899997
 104.8979992  96.0764990  51.2239997 103.7789992  94.6174990  51.3519997
 102.8549992  96.6294990  51.5589997 101.8589992  96.1464990  51.6469997
 102.8209992  97.5434990  50.9289997 103.1159992  97.1274990  53.0629997
 103.2269992  96.2074990  53.6749997 102.1459992  97.6364990  53.2509997
 104.3039992  98.0694990  53.2119997 104.2759992  98.8474990  52.4189997
 105.2729992  97.5564990  53.0359997 104.3429992  98.7154990  54.5769997
 103.2909992  98.9284990  54.8659997 105.0089992  99.6004990  54.6579997
 105.0119992  97.7424990  55.6509997 106.0789992  97.8684990  55.3719997
 104.7319992  96.6714990  55.5529997 104.5929992  98.2224990  57.0259997
 104.9249992  97.4604990  57.7629997 103.5049992  98.1524990  57.2359997
 105.0919992  99.1694990  57.3239997  87.9719992 102.0274990  53.8779997
  87.4669992 102.3924990  54.7979997  87.4559992 101.1264990  53.4829997
  87.9359992 102.7994990  53.0789997  89.4959992 101.6814990  54.2039997
  89.4579992 100.8544990  54.9449997  89.8379992 101.4424990  53.1739997
  90.3129992 102.8704990  54.6669997  89.8169992 103.1314990  55.6259997
  91.3249992 102.4554990  54.8639997  90.2009992 104.1194990  53.7319997
  89.1469992 104.4594990  53.6459997  90.6649992 104.8684990  54.4079997
  90.7269992 104.0684990  52.2929997  91.8269992 103.9204990  52.3379997
  90.3309992 103.1694990  51.7749997  90.5249992 105.3114990  51.4859997
  89.5079992 105.7104990  51.6849997  91.2219992 106.1384990  51.7389997
  90.7689992 105.0294990  50.0499997  90.5439992 105.9984990  49.5539997
  91.8279992 104.8284990  49.7809997  89.8249992 103.9464990  49.3249997
  90.2429992 102.9284990  49.4799997  88.8179992 104.0044990  49.7899997
  89.8669992 104.0364990  47.8229997  90.9369992 104.1584990  47.5509997
  89.4309992 103.0584990  47.5279997  89.0319992 105.2244990  47.2709997
  88.0669992 105.1714990  47.8179997  89.3239992 106.2704990  47.5049997
  88.7479992 105.1744990  45.7619997  87.8919992 104.5004990  45.5459997
  88.3339992 106.1214990  45.3539997  89.9149992 104.8434990  44.8089997
  90.3909992 103.8444990  44.9029997  89.5659992 104.8024990  43.7549997
  90.9869992 105.9054990  44.7859997  90.5589992 106.9304990  44.7999997
  91.5149992 105.8294990  45.7599997  91.9109992 105.7614990  43.5509997
  92.4709992 104.8054990  43.6339997  91.4009992 105.7444990  42.5639997
  93.0059992 106.8804990  43.4729997  92.4339992 107.8004990  43.2309997
  93.4489992 107.0974990  44.4679997  94.1039992 106.5514990  42.4149997
  95.2479992 106.3434990  42.6169997  93.4809992 106.2624990  41.2549997
  94.1729992 105.8794990  40.0219997  93.6219992 106.1654990  39.0999997
  95.1819992 106.3454990  40.0599997  94.4379992 104.3644990  39.8449997
  95.3009992 104.1744990  40.5179997  94.7359992 103.8874990  38.3859997
  95.3839992 104.6304990  37.8729997  95.3239992 102.9584990  38.2259997
  93.5009992 103.6394990  37.7369997  93.2149992 104.0764990  36.2139997
  91.5809992 103.8624990  36.0999997  90.8709992 103.8024990  37.3149997
  91.2339992 104.6294990  37.9629997  89.8149992 104.0824990  37.1129997
  91.0139992 102.5014990  38.0719997  92.0049992 102.4074990  38.4909997
  90.3339992 102.6924990  38.8889997  90.6749992 101.1574990  37.5099997
  91.9039992 100.6614990  36.7979997  92.5809992 100.3544990  37.5819997
  91.6859992  99.6984990  36.3599997  92.4209992 101.3884990  36.1889997
  90.4639992 100.1574990  38.6919997  90.2449992  99.2424990  38.1599997
  91.3739992  99.9704990  39.2419997  89.6259992 100.4474990  39.3079997
  89.4969992 101.2144990  36.5569997  88.6679992 101.7544990  36.9879997
  89.1909992 100.1954990  36.3669997  89.7789992 101.8444990  35.7259997
  93.4899992 105.5004990  36.0939997  93.9439992 103.1464990  35.3829997
  93.3599992 103.6744990  40.4779997  93.5069992 102.3814990  40.6359997
  94.3899992 101.6504990  40.2679997  92.3359992 101.9404990  41.5659997
  91.5379992 101.4284990  40.9869997  92.0619992 102.8684990  42.1109997
  92.8409992 100.8314990  42.5339997  93.8109992 101.2264990  42.9069997
  93.0589992  99.9304990  41.9209997  91.8629992 100.5764990  43.7169997
  90.9849992 100.0464990  43.2879997  91.4849992 101.5554990  44.0809997
  92.5739992  99.8354990  44.9059997  93.0889992  98.8704990  44.7079997
  91.7179992  99.6184990  45.5799997  93.4839992 100.8094990  45.7859997
  94.4649992 100.9104990  45.2749997  93.6039992 100.2504990  46.7379997
  92.8269992 102.0884990  46.2749997  91.9029992 101.8094990  46.8239997
  92.4839992 102.6524990  45.3809997  93.6689992 102.9454990  47.1699997
  93.9139992 102.3524990  48.0769997  93.0529992 103.7434990  47.6379997
  94.8689992 103.5494990  46.5019997  94.6209992 104.1744990  45.6319997
  96.0689992 103.5814990  47.0679997  96.9639992 103.9084990  46.5179997
  96.5359992 103.0774990  48.4249997  97.2849992 102.2714990  48.2769997
  95.8149992 102.4304990  48.9679997  97.0979992 104.1994990  49.2829997
  97.8829992 104.7934990  48.7679997  97.5899992 103.6764990  50.1309997
  96.0669992 105.1664990  49.7459997  95.5299992 105.4604990  48.8189997
  96.5849992 106.0704990  50.1299997  95.1269992 104.6774990  50.8189997
  94.4199992 103.8804990  50.5059997  94.4549992 105.4554990  51.2409997
  95.7019992 104.0094990  52.0789997  96.5229992 104.5514990  52.5949997
  96.2019992 103.0384990  51.8759997  94.5239992 103.7144990  53.0309997
  93.7149992 103.1684990  52.4999997  94.2209992 104.7034990  53.4359997
  94.9889992 102.8264990  54.1989997  94.9399992 101.7334990  54.0019997
  94.2919992 103.1074990  55.0179997  96.3709992 103.2094990  54.8389997
  96.5689992 104.2784990  55.0689997  97.1979992 102.8374990  54.1969997
  96.4949992 102.7254990  55.8319997 113.5269992  93.3564990  56.3119997
 113.7099992  94.0394990  55.4559997 113.6269992  93.9834990  57.2239997
 112.4599992  93.0454990  56.3059997 114.4649992  92.1234990  56.2789997
 115.5049992  92.5034990  56.1829997 114.3699992  91.6184990  57.2639997
 114.1259992  91.0464990  55.2009997 114.3459992  91.4984990  54.2109997
 114.7619992  90.1464990  55.3379997 112.6569992  90.5754990  55.2839997
 112.3379992  90.4974990  56.3459997 111.9629992  91.2884990  54.7909997
 112.3449992  89.2274990  54.6679997 112.7859992  88.4764990  55.3569997
 111.2399992  89.1114990  54.6609997 112.9039992  89.1144990  53.2579997
 112.5779992  90.0224990  52.7069997 114.0109992  89.0854990  53.3499997
 112.6389992  87.8104990  52.4299997 113.0179992  87.0414990  53.1369997
 111.5499992  87.7854990  52.2119997 113.4179992  87.7884990  51.1559997
 112.7639992  88.3914990  50.4909997 114.4129992  88.2504990  51.3349997
 113.6859992  86.3524990  50.5209997 114.3599992  85.8214990  51.2269997
 112.7329992  85.7944990  50.3989997 114.1769992  86.3364990  49.0789997
 114.1329992  85.2384990  48.9159997 113.4049992  86.8324990  48.4519997
 115.5119992  87.0174990  48.8059997 115.4439992  88.0964990  48.5509997
 116.1389992  86.8194990  49.7009997 116.0559992  86.3534990  47.5299997
 117.1449992  86.5604990  47.4559997 116.0089992  85.2604990  47.7219997
 115.4759992  86.9034990  46.2509997 114.3709992  86.8154990  46.3209997
 115.7809992  87.9674990  46.1509997 115.9659992  86.1494990  45.0129997
 117.0649992  86.1394990  45.1779997 115.7559992  85.0594990  44.9779997
 115.6599992  86.7974990  43.6559997 116.0119992  87.8514990  43.6509997
 116.2109992  86.3774990  42.7869997 114.2369992  86.7264990  43.2009997
 113.4909992  85.8394990  43.4579997 114.0609992  87.6244990  42.2009997
 112.7819992  87.5074990  41.5899997 112.7519992  86.5464990  41.0339997
 111.9969992  87.6694990  42.3589997 112.5239992  88.7504990  40.5349997
 111.4279992  88.7324990  40.3499997 113.2259992  88.4584990  39.1709997
 113.0019992  87.4304990  38.8149997 112.8189992  89.1024990  38.3629997
 114.5979992  88.4734990  39.3789997 115.5299992  89.7214990  38.9529997
 115.0659992  90.1044990  37.3979997 116.0709992  90.5334990  36.5379997
 115.5589992  91.1404990  35.7609997 116.8499992  91.1444990  37.0419997
 116.7089992  89.2774990  35.7419997 117.4869992  89.4234990  35.0079997
 117.2759992  88.7124990  36.4669997 115.7099992  88.3114990  35.1089997
 116.4219992  87.6264990  33.9709997 117.2159992  87.0194990  34.3799997
 115.7249992  87.0354990  33.3949997 116.8239992  88.3114990  33.2399997
 115.0979992  87.3424990  36.1589997 114.3669992  86.6934990  35.7009997
 115.9289992  86.8064990  36.5939997 114.5319992  87.9594990  36.8409997
 114.5979992  89.2264990  34.5569997 115.0809992  90.0034990  33.9829997
 113.9219992  89.5954990  35.3139997 114.0799992  88.6124990  33.8359997
 115.2779992  90.8884990  39.7709997 116.9639992  89.3094990  38.8949997
 112.9109992  90.0144990  41.0989997 112.1719992  90.5204990  42.0919997
 111.4289992  89.8624990  42.8229997 112.3849992  92.0314990  42.1519997
 111.4449992  92.4134990  42.6039997 112.4929992  92.3094990  41.0819997
 113.5909992  92.1924990  43.0549997 113.7599992  93.2904990  43.0859997
 114.5879992  91.8314990  42.7259997 113.3749992  91.7914990  44.4929997
 113.3169992  90.7074990  44.7289997 112.3719992  92.2214990  44.6999997
 114.2759992  92.4114990  45.5689997 113.6489992  92.6014990  46.4659997
 114.6029992  93.4514990  45.3559997 115.5399992  91.5354990  45.8899997
 115.8129992  91.1264990  44.8929997 115.1689992  90.7354990  46.5649997
 116.7139992  92.1494990  46.6409997 117.1869992  92.9244990  45.9999997
 117.4589992  91.3574990  46.8699997 116.3579992  92.9784990  47.8359997
 115.6709992  93.8174990  47.5959997 117.3099992  93.3454990  48.2729997
 115.6679992  92.1634990  48.8969997 114.5729992  92.0814990  48.8269997
 116.3099992  91.5484990  49.9119997 115.7279992  91.1724990  50.7669997
 117.7759992  91.5154990  50.2059997 118.1109992  92.5084990  50.5739997
 118.4439992  91.2124990  49.3709997 118.0519992  90.6164990  51.4699997
 117.6279992  91.2024990  52.3129997 119.1509992  90.5574990  51.6229997
 117.6399992  89.1374990  51.4389997 117.9379992  88.7234990  50.4519997
 116.5529992  88.9144990  51.3779997 118.1489992  88.2104990  52.5129997
 117.8179992  88.5704990  53.5099997 119.2499992  88.0844990  52.4429997
 117.5469992  86.7474990  52.4589997 117.8189992  86.1834990  51.5419997
 116.4529992  86.9334990  52.4099997 118.0889992  85.8514990  53.6569997
 119.0849992  86.2084990  53.9969997 118.1329992  84.7904990  53.3319997
 117.1809992  85.8024990  54.9129997 117.6079992  85.0104990  55.5649997
 116.2069992  85.3724990  54.5939997 116.9499992  87.1274990  55.5689997
 116.3789992  87.8484990  54.9449997 117.8809992  87.6534990  55.8689997
 116.2669992  87.0534990  56.4419997  52.1929992 108.9274990  56.9199997
  53.1019992 108.4124990  56.5449997  51.4569992 108.2214990  57.3599997
  52.4649992 109.6874990  57.6839997  51.5179992 109.6124990  55.7249997
  50.5589992 110.1264990  55.9509997  52.1939992 110.4154990  55.3619997
  51.2079992 108.6184990  54.5729997  52.1459992 108.0484990  54.3959997
  50.3429992 107.9734990  54.8379997  50.8219992 109.4344990  53.2899997
  50.1089992 110.1694990  53.7209997  51.6709992 109.9194990  52.7639997
  50.1369992 108.6114990  52.2279997  50.8819992 107.9484990  51.7369997
  49.3289992 107.9564990  52.6169997  49.4739992 109.5124990  51.1289997
  49.0559992 108.6904990  50.5089997  48.6489992 110.0444990  51.6489997
  50.3869992 110.5134990  50.3509997  49.8199992 111.0814990  49.5829997
  50.8169992 111.2834990  51.0269997  51.4979992 109.7864990  49.5809997
  52.2849992 110.5084990  49.2729997  51.8519992 109.0304990  50.3129997
  50.8719992 109.1594990  48.3079997  49.8859992 108.6904990  48.5109997
  50.7569992 109.9934990  47.5819997  51.6559992 108.1304990  47.4719997
  51.8959992 107.2194990  48.0609997  51.0759992 107.7804990  46.5909997
  53.0099992 108.7204990  46.9229997  52.8819992 109.4534990  46.0969997
  53.5209992 109.0684990  47.8449997  53.8559992 107.5904990  46.3439997
  54.8989992 107.6994990  46.7089997  53.4709992 106.6154990  46.7139997
  53.9099992 107.4544990  44.7909997  54.4559992 108.3504990  44.4259997
  54.5449992 106.5694990  44.5709997  52.5129992 107.3854990  44.1869997
  51.9159992 106.6274990  44.7379997  52.0309992 108.3574990  44.4259997
  52.3789992 107.0394990  42.6919997  53.1599992 107.4934990  42.0459997
  52.4799992 105.9384990  42.5869997  51.0389992 107.4974990  42.0439997
  50.3169992 108.2454990  42.6499997  50.9689992 107.0284990  40.8119997
  49.7269992 107.2114990  40.0349997  49.6449992 106.2894990  39.4199997
  48.8649992 107.4124990  40.7069997  49.8079992 108.5174990  39.1989997
  48.8019992 108.5694990  38.7299997  50.7929992 108.3134990  38.0159997
  50.6289992 107.2784990  37.6479997  50.5989992 108.9364990  37.1159997
  52.1379992 108.4974990  38.4819997  53.3429992 108.2974990  37.4299997
  52.7559992 108.9664990  36.0809997  53.0969992 110.2814990  35.7649997
  54.1599992 110.2664990  35.4419997  52.5559992 110.5534990  34.8339997
  52.8689992 111.3024990  36.9289997  51.8349992 111.1844990  37.2169997
  53.5159992 110.9234990  37.7069997  53.1519992 112.7734990  36.7439997
  52.2469992 113.2834990  35.6469997  51.2029992 113.3594990  35.9129997
  52.5809992 114.2964990  35.4739997  52.3919992 112.6504990  34.7839997
  52.8889992 113.5454990  37.9789997  53.3939992 114.4894990  37.8369997
  51.8439992 113.5264990  38.2529997  53.5119992 113.1834990  38.7829997
  54.6419992 112.8874990  36.3119997  55.1939992 112.3234990  37.0489997
  54.9809992 113.9134990  36.3269997  54.8619992 112.5294990  35.3179997
  54.5789992 108.9364990  37.8259997  53.4919992 106.8604990  37.2769997
  50.0049992 109.6334990  40.0359997  49.8179992 110.8304990  39.4379997
  49.4999992 110.9954990  38.2249997  49.9539992 111.9674990  40.4259997
  49.2019992 112.7544990  40.2039997  50.8809992 112.5504990  40.2379997
  49.5459992 111.5774990  41.8579997  50.2619992 110.7954990  42.1889997
  48.5299992 111.1564990  41.7019997  49.4699992 112.7744990  42.8759997
  48.6029992 113.4414990  42.6819997  50.4259992 113.3384990  42.9259997
  49.1759992 112.2014990  44.3159997  48.5739992 111.2734990  44.2179997
  48.6719992 112.9514990  44.9609997  50.4779992 111.9234990  45.0909997
  51.1169992 111.2334990  44.4989997  50.2149992 111.5214990  46.0929997
  51.2399992 113.2324990  45.5579997  50.5209992 113.8374990  46.1509997
  51.5049992 113.8054990  44.6439997  52.4579992 113.0544990  46.4629997
  53.3529992 112.8004990  45.8549997  52.2939992 112.1234990  47.0479997
  52.8029992 114.3594990  47.1819997  53.2099992 115.1674990  46.5569997
  52.5199992 114.5734990  48.5099997  52.8979992 115.5134990  48.9389997
  51.8419992 113.6364990  49.4469997  51.8479992 112.5614990  49.1679997
  50.7789992 113.9604990  49.4429997  52.5089992 113.6834990  50.8689997
  51.7529992 113.2804990  51.5769997  52.6329992 114.7434990  51.1759997
  53.7259992 112.7924990  50.9629997  54.4349992 113.1924990  50.2069997
  53.4499992 111.7614990  50.6559997  54.4309992 112.8154990  52.3709997
  53.8689992 113.3184990  53.1859997  55.3999992 113.3544990  52.2929997
  54.7539992 111.4664990  52.9569997  55.6699992 111.0754990  52.4639997
  53.9649992 110.7244990  52.7099997  54.9539992 111.5424990  54.4599997
  54.9249992 110.5494990  54.9579997  54.0969992 112.1074990  54.8839997
  56.1859992 112.1814990  55.1499997  56.1009992 111.7874990  56.1849997
  56.0019992 113.2354990  54.8509997  57.5319992 111.7094990  54.5579997
  57.5569992 112.0874990  53.5139997  57.3979992 110.6064990  54.5229997
  58.3779992 112.1224990  55.1479997  96.1749992 100.9524990  52.5819997
  96.2529992  99.9344990  52.1429997  96.1609992 101.7174990  51.7759997
  95.2549992 101.0864990  53.1909997  97.4239992 101.1034990  53.3969997
  97.4499992 102.1804990  53.6689997  97.4849992 100.4694990  54.3069997
  98.6679992 100.9974990  52.5059997  98.7069992 101.7884990  51.7269997
  99.5479992 101.1884990  53.1559997  98.9639992  99.6394990  51.8029997
  98.4739992  99.6944990  50.8079997 100.0639992  99.5714990  51.6599997
  98.6429992  98.3874990  52.5529997  99.2059992  98.2854990  53.5049997
  97.5919992  98.3694990  52.9119997  98.8629992  97.0394990  51.7599997
  98.6519992  96.1524990  52.3959997  98.2359992  96.9144990  50.8519997
 100.2999992  96.7084990  51.1669997 100.8339992  97.6754990  51.0439997
 100.9299992  96.2494990  51.9579997 100.3959992  95.8914990  49.8879997
 101.4169992  95.4724990  49.7589997  99.7849992  94.9964990  50.1329997
  99.8729992  96.6314990  48.6319997  99.1709992  97.4514990  48.8969997
 100.7799992  97.0714990  48.1659997  99.2289992  95.6434990  47.6619997
  99.9309992  94.8104990  47.4419997  98.2429992  95.3304990  48.0679997
  98.8119992  96.1794990  46.1919997  99.8519992  96.3074990  45.8219997
  98.2849992  95.4124990  45.5859997  98.0909992  97.4884990  46.1679997
  97.2579992  97.5914990  46.8949997  98.8639992  98.1604990  46.5989997
  97.6769992  97.9734990  44.7429997  96.8739992  97.2694990  44.4359997
  97.3579992  99.0204990  44.9309997  98.8449992  97.9244990  43.7469997
  99.7099992  98.4994990  44.1399997  99.1459992  96.8584990  43.8179997
  98.4989992  98.1994990  42.2639997  99.2629992  97.7094990  41.6229997
  97.4879992  97.8024990  42.0329997  98.4929992  99.6774990  41.9369997
  98.9429992 100.5064990  42.6659997  97.9409992  99.8714990  40.7849997
  97.9009992 101.2594990  40.3209997  96.8979992 101.5004990  39.9069997
  98.0819992 102.0824990  41.0459997  98.7599992 101.5614990  39.0509997
  98.5629992 102.6194990  38.7729997  98.4189992 100.6084990  37.8739997
  98.3989992  99.5834990  38.3019997  97.4629992 100.9584990  37.4279997
  99.3719992 100.5404990  36.8309997  99.1929992  99.6344990  35.5829997
 100.1619992  98.4144990  35.7979997 101.3229992  98.5054990  36.6069997
 102.1279992  97.9074990  36.1289997 101.6969992  99.5514990  36.6329997
 101.1129992  97.9734990  38.1199997 102.0949992  97.9864990  38.5679997
 100.4009992  98.6614990  38.5509997 100.5099992  96.6174990  38.3139997
  99.0219992  96.6434990  38.0499997  98.5159992  96.8374990  38.9829997
  98.6939992  97.4344990  37.3919997  98.6039992  95.6994990  37.7339997
 101.2099992  95.6764990  37.3679997 101.0309992  95.9914990  36.3509997
 102.2769992  95.7414990  37.5189997 100.7799992  94.6864990  37.4199997
 100.7789992  96.2754990  39.7839997 101.8439992  96.1324990  39.8849997
 100.2839992  95.3314990  39.9569997 100.4629992  97.0894990  40.4199997
  97.8079992  99.0064990  35.6859997  99.5249992 100.3604990  34.3319997
 100.1579992 101.3024990  39.3109997 100.7289992 102.1504990  40.1639997
 100.3219992 103.1904990  40.6129997 102.1459992 101.6124990  40.4999997
 102.8159992 101.6264990  39.6139997 102.1279992 100.5944990  40.9439997
 102.6889992 102.4684990  41.6379997 102.7209992 103.5404990  41.3459997
 103.7249992 102.0734990  41.7059997 102.0289992 102.3514990  43.0059997
 100.9609992 102.6164990  42.8549997 102.4559992 103.1274990  43.6769997
 102.0529992 100.9764990  43.6079997 103.0479992 100.5044990  43.4629997
 101.3459992 100.2794990  43.1089997 101.7759992 101.0634990  45.1219997
 100.7029992 101.3234990  45.2459997 102.3449992 101.9144990  45.5529997
 102.2849992  99.8004990  45.8639997 103.0899992  99.2664990  45.3159997
 101.4469992  99.0714990  45.8639997 102.6969992  99.8654990  47.3179997
 103.6549992 100.4224990  47.4089997 103.0449992  98.8454990  47.5859997
 101.6809992 100.2384990  48.3369997 100.6489992 100.2264990  47.9559997
 102.0189992 100.6534990  49.5809997 101.2159992 100.9584990  50.2679997
 103.4019992 100.7874990  50.1039997 103.5349992 101.8304990  50.4629997
 104.2229992 100.6294990  49.3719997 103.7849992  99.8734990  51.2909997
 104.8699992 100.0764990  51.4119997 103.4069992  98.8374990  51.1539997
 103.3129992 100.4284990  52.5799997 102.2199992 100.2754990  52.7049997
 103.5939992 101.4974990  52.6929997 103.8749992  99.7354990  53.7789997
 104.9859992  99.7174990  53.7629997 103.5529992  98.6724990  53.8079997
 103.6299992 100.4744990  55.0569997 104.1089992 101.4474990  54.8159997
 104.0279992 100.1834990  56.0519997 102.1059992 100.8414990  55.2829997
 101.7519992 101.2004990  54.2929997 102.0779992 101.6514990  56.0419997
 101.2479992  99.6564990  55.7019997 101.6689992  99.0934990  56.5619997
 101.1529992  98.9094990  54.8849997  99.7969992 100.0054990  56.1699997
  99.8109992 100.4504990  57.1879997  99.2889992  99.0274990  56.3149997
  99.3209992 100.6884990  55.4339997  88.6029992  28.8434990  57.1929997
  89.0219992  28.9964990  58.2099997  89.3849992  29.2374990  56.5089997
  88.3489992  27.7644990  57.1159997  87.2929992  29.5784990  57.2189997
  86.6569992  29.1744990  58.0349997  87.4769992  30.6514990  57.4399997
  86.3819992  29.6204990  55.9479997  85.5139992  30.2914990  56.1239997
  86.9959992  30.0064990  55.1069997  85.7809992  28.2394990  55.6079997
  86.5949992  27.5014990  55.4439997  85.2059992  27.8784990  56.4879997
  84.7049992  28.3864990  54.5559997  84.2779992  27.3744990  54.3889997
  83.8849992  29.0654990  54.8719997  85.0879992  29.1124990  53.2499997
  85.5599992  30.0894990  53.4879997  85.7869992  28.3414990  52.8599997
  83.8869992  29.2664990  52.2819997  83.5089992  28.2274990  52.1729997
  83.1239992  29.9114990  52.7679997  84.3379992  29.8714990  50.9079997
  84.8399992  30.8504990  51.0569997  85.0739992  29.1674990  50.4639997
  83.2269992  29.8944990  49.8229997  82.8199992  28.8694990  49.6889997
  82.3949992  30.5814990  50.0869997  83.6239992  30.3364990  48.4319997
  82.6619992  30.6254990  47.9569997  84.2019992  31.2734990  48.5739997
  84.4439992  29.4204990  47.4979997  85.3429992  29.1774990  48.1039997
  83.8449992  28.5334990  47.1989997  84.8909992  30.2844990  46.2509997
  85.5229992  31.1264990  46.6069997  85.5799992  29.6154990  45.6919997
  83.8309992  30.6774990  45.3009997  83.1689992  29.7974990  45.1539997
  83.2869992  31.4514990  45.8839997  84.2929992  31.3704990  44.0739997
  85.3999992  31.4464990  44.1439997  84.1499992  30.6384990  43.2499997
  83.6119992  32.7634990  43.7449997  82.5289992  32.6944990  43.5069997
  83.7909992  33.4874990  44.5689997  84.2039992  33.3954990  42.5399997
  83.8109992  34.4914990  42.1619997  85.0989992  32.7374990  41.9319997
  85.5149992  33.0964990  40.5989997  84.8209992  32.6454990  39.8579997
  85.5369992  34.2054990  40.5409997  86.8259992  32.3014990  40.2759997
  87.3319992  32.8454990  39.4499997  86.6599992  30.7854990  40.0109997
  86.2199992  30.2194990  40.8589997  85.8839992  30.5494990  39.2509997
  87.9399992  30.3264990  39.6669997  88.2939992  30.1884990  38.0729997
  87.2929992  29.0744990  37.5989997  87.3919992  28.5314990  36.2649997
  88.3299992  28.8664990  35.7729997  87.2789992  27.4304990  36.3609997
  86.1869992  28.9594990  35.3619997  86.4089992  29.9574990  35.0129997
  86.1889992  28.3444990  34.4739997  84.7859992  28.7624990  35.8979997
  83.7999992  28.8464990  34.8359997  83.8089992  29.7564990  34.2549997
  83.9159992  28.0344990  34.1329997  82.7859992  28.7924990  35.2029997
  84.7509992  27.3664990  36.6139997  85.6219992  27.2384990  37.2399997
  83.7539992  27.1974990  36.9959997  84.9599992  26.5694990  35.9149997
  84.4079992  29.8534990  36.8479997  83.4029992  29.6994990  37.2129997
  84.3929992  30.7954990  36.3199997  85.0809992  29.8914990  37.6919997
  88.0089992  31.4284990  37.3449997  89.6569992  29.6294990  37.9659997
  87.6519992  32.4684990  41.4419997  88.8549992  32.9194990  41.3649997
  89.3539992  33.3154990  40.3149997  89.4919992  32.9094990  42.7289997
  88.8189992  33.5654990  43.3209997  90.5179992  33.3294990  42.6509997
  89.5209992  31.5084990  43.3339997  90.0919992  30.9504990  42.5609997
  88.5239992  31.0204990  43.3869997  90.1579992  31.3854990  44.7319997
  91.0499992  32.0464990  44.6759997  90.5859992  30.3764990  44.9119997
  89.0699992  31.7254990  45.7709997  88.1059992  31.1734990  45.7509997
  88.6969992  32.7354990  45.4949997  89.4349992  31.8214990  47.2869997
  88.5649992  32.2674990  47.8129997  90.2739992  32.5494990  47.2659997
  89.7009992  30.4594990  47.9319997  90.7139992  30.0284990  47.7839997
  88.9829992  29.7374990  47.4879997  89.4059992  30.4164990  49.5229997
  89.5689992  29.3644990  49.8379997  88.3199992  30.6274990  49.6309997
  90.2359992  31.3584990  50.3639997  91.2909992  31.1414990  50.5849997
  89.8979992  32.4994990  50.9639997  90.6559992  33.0284990  51.5609997
  88.4769992  33.1214990  51.0779997  88.1739992  33.1194990  50.0099997
  88.5609992  34.1914990  51.3639997  87.4159992  32.3534990  51.8579997
  87.8879992  31.8254990  52.7129997  86.8749992  31.5474990  51.3179997
  86.2909992  33.1654990  52.5059997  85.6819992  32.3214990  52.8959997
  85.7949992  33.7214990  51.6819997  86.7469992  34.0404990  53.5889997
  85.9219992  34.7374990  53.8519997  87.4469992  34.7714990  53.1299997
  87.2429992  33.3324990  54.8179997  88.0579992  32.5874990  54.6959997
  86.4279992  32.6914990  55.2169997  87.5259992  34.3954990  55.9309997
  88.3289992  35.0094990  55.4699997  87.8439992  33.9414990  56.8929997
  86.4649992  35.4694990  56.3899997  86.1229992  36.0534990  55.5079997
  86.9669992  36.1644990  57.0959997  85.1999992  34.8134990  56.9789997
  85.4919992  34.4454990  57.9859997  84.9969992  33.8824990  56.4079997
  84.2919992  35.4514990  56.9299997  40.3139992  34.7044990  54.9909997
  39.5239992  34.5704990  55.7609997  41.2489992  34.2404990  55.3689997
  40.0599992  34.0824990  54.1059997  40.4439992  36.2064990  54.6489997
  39.4289992  36.6494990  54.5549997  41.1099992  36.6294990  55.4309997
  41.2529992  36.5004990  53.2989997  41.3499992  37.6044990  53.2269997
  42.2109992  35.9384990  53.3359997  40.4219992  36.0494990  52.1389997
  39.6979992  35.2304990  52.3379997  39.8339992  36.9414990  51.8329997
  41.2489992  35.7554990  50.9249997  42.1139992  35.0664990  51.0319997
  40.4409992  35.3594990  50.2729997  41.9009992  36.9884990  50.2069997
  41.2879992  37.9024990  50.3569997  42.8419992  37.1424990  50.7769997
  42.1509992  36.8834990  48.6999997  42.7299992  35.9414990  48.5939997
  41.1439992  36.9094990  48.2299997  43.0889992  37.9394990  48.3529997
  42.5439992  38.8564990  48.6649997  43.8939992  37.9354990  49.1179997
  43.6819992  37.8934990  46.9499997  44.2389992  38.8034990  46.6419997
  44.3609992  37.0154990  46.9029997  42.7199992  37.4594990  45.9039997
  42.0919992  36.6484990  46.3279997  42.0609992  38.3024990  45.6039997
  43.4169992  37.0774990  44.5499997  43.6419992  37.9684990  43.9259997
  44.2959992  36.4394990  44.7819997  42.3749992  36.2674990  43.7559997
  42.1529992  35.3464990  44.3369997  41.4929992  36.9424990  43.7469997
  42.9079992  35.7824990  42.3529997  42.1659992  35.1074990  41.8749997
  43.1089992  36.6724990  41.7199997  44.2999992  35.0744990  42.2949997
  44.9699992  35.9394990  42.4869997  44.5119992  34.3934990  43.1469997
  44.6249992  34.4114990  40.9559997  44.2089992  35.1294990  40.2179997
  45.7199992  34.2304990  40.9019997  44.0049992  33.0264990  40.6869997
  43.4239992  32.3474990  41.5539997  44.2179992  32.6814990  39.4199997
  43.6409992  31.3124990  39.0669997  44.3859992  30.7244990  38.4889997
  43.4979992  30.7114990  39.9909997  42.2899992  31.4814990  38.3159997
  41.8189992  30.4774990  38.2459997  42.4109992  31.8374990  36.8279997
  43.1109992  31.0934990  36.3909997  41.5039992  31.6384990  36.2169997
  43.0469992  33.1664990  36.6749997  42.1599992  34.4204990  36.5249997
  40.7219992  33.7854990  36.7829997  39.6189992  34.1264990  35.8909997
  39.9109992  33.9834990  34.8279997  38.8609992  33.3204990  35.9799997
  39.0309992  35.4914990  36.1729997  39.8059992  36.2374990  36.0759997
  38.2399992  35.8464990  35.5289997  38.4629992  35.6094990  37.5779997
  38.0739992  34.2944990  38.1489997  37.6489992  34.3604990  39.1399997
  37.3999992  33.8944990  37.4059997  38.9609992  33.6824990  38.2139997
  39.4779992  36.2574990  38.5199997  40.4509992  35.8024990  38.6269997
  39.5189992  37.2704990  38.1459997  39.0659992  36.2634990  39.5179997
  37.2549992  36.4644990  37.3419997  37.5009992  37.3394990  36.7579997
  36.8559992  36.9524990  38.2189997  36.4419992  35.9204990  36.8829997
  42.4529992  35.2684990  37.6639997  42.3469992  34.9764990  35.1719997
  41.4829992  32.3374990  39.1129997  41.0379992  31.9194990  40.2909997
  41.1039992  30.7534990  40.7539997  40.3019992  33.0214990  40.9679997
  39.4299992  33.3964990  40.3919997  41.0979992  33.7964990  41.0029997
  40.0119992  32.6274990  42.4739997  41.0279992  32.5564990  42.9189997
  39.5149992  31.6464990  42.6349997  39.3819992  33.7844990  43.1929997
  38.5489992  34.1784990  42.5719997  40.0659992  34.6544990  43.0929997
  38.9519992  33.5004990  44.7109997  38.4779992  32.4984990  44.7779997
  38.3099992  34.2814990  45.1709997  40.1929992  33.3574990  45.5749997
  40.8969992  34.2164990  45.5269997  40.8049992  32.5034990  45.2149997
  39.8239992  33.1524990  47.0669997  39.1909992  32.2394990  47.0799997
  39.1539992  33.9384990  47.4769997  40.9989992  33.1864990  48.0639997
  40.6369992  33.3494990  49.1009997  41.6369992  34.0684990  47.8419997
  41.8959992  31.9444990  48.0239997  41.4969992  31.0934990  47.4529997
  43.1739992  31.8174990  48.4789997  43.6399992  30.8204990  48.4809997
  44.0009992  32.9344990  49.1079997  43.3629992  33.8064990  49.3669997
  44.9469992  33.1524990  48.5669997  44.4339992  32.5214990  50.5569997
  45.0039992  33.3924990  50.9459997  45.1189992  31.6464990  50.5459997
  43.2519992  32.2244990  51.4759997  42.9689992  31.1934990  51.1729997
  42.3909992  32.8784990  51.2219997  43.5059992  31.9594990  52.9989997
  44.0679992  32.8274990  53.4069997  44.2049992  31.1024990  53.1059997
  42.2499992  31.6024990  53.7709997  41.9489992  30.5904990  53.4239997
  41.4089992  32.3094990  53.6059997  42.4379992  31.5714990  55.2929997
  42.8689992  32.4934990  55.7379997  43.1449992  30.7294990  55.4509997
  41.1139992  31.3334990  55.9199997  40.7859992  30.2884990  55.7349997
  40.3539992  32.0764990  55.5939997  41.1869992  31.5494990  57.4949997
  41.9589992  30.8774990  57.9269997  40.1739992  31.3874990  57.9209997
  41.4579992  32.6274990  57.5049997 113.2309992  41.1284990  55.3639997
 113.3889992  41.8804990  56.1659997 112.5319992  41.5574990  54.6149997
 114.1919992  40.7634990  54.9429997 112.4529992  39.9734990  55.9029997
 112.7209992  39.5044990  56.8739997 111.4449992  40.3074990  56.2279997
 112.1269992  38.9014990  54.8459997 113.0549992  38.4054990  54.4889997
 111.4069992  38.1814990  55.2909997 111.3399992  39.4174990  53.6349997
 110.3049992  39.5704990  54.0079997 111.6729992  40.3974990  53.2299997
 111.3269992  38.5224990  52.3769997 112.3249992  38.0734990  52.1849997
 110.6409992  37.6534990  52.4689997 110.7689992  39.2134990  51.1609997
 109.6959992  39.4484990  51.3219997 111.2309992  40.2154990  51.0339997
 110.8909992  38.4154990  49.8879997 110.7329992  37.3244990  50.0289997
 110.2189992  38.7984990  49.0899997 112.3179992  38.3944990  49.2069997
 112.8829992  37.8934990  50.0219997 112.2759992  37.7624990  48.2939997
 112.9139992  39.7864990  48.8029997 112.5779992  40.5544990  49.5319997
 114.0199992  39.7454990  48.9039997 112.6179992  40.2224990  47.3279997
 113.0559992  39.4034990  46.7179997 111.5139992  40.2824990  47.2209997
 113.2409992  41.5334990  46.7849997 112.5109992  42.3624990  46.9089997
 114.1339992  41.8624990  47.3589997 113.7639992  41.4584990  45.2799997
 114.3729992  40.5464990  45.1029997 112.7849992  41.3994990  44.7579997
 114.5959992  42.6894990  44.7349997 115.5779992  42.7204990  45.2529997
 114.7559992  42.5104990  43.6509997 113.9499992  44.0354990  44.8269997
 113.8159992  44.2034990  45.9169997 114.5609992  44.9364990  44.6039997
 112.6129992  44.2644990  44.1089997 111.8399992  43.5534990  44.4689997
 112.1329992  45.2234990  44.3989997 112.6169992  44.0534990  42.5869997
 112.6619992  44.9224990  41.7589997 112.6689992  42.7334990  42.3139997
 112.9429992  42.4014990  40.9219997 112.0179992  42.5494990  40.3239997
 113.7359992  42.9954990  40.4189997 113.3809992  40.9154990  40.8079997
 114.4839992  40.8204990  40.8989997 112.9309992  40.2574990  39.4969997
 113.2349992  40.8234990  38.5899997 113.5689992  39.3694990  39.2999997
 111.5649992  39.9214990  39.4319997 110.9979992  39.5324990  38.0039997
 111.1779992  40.8474990  37.1309997 111.2259992  42.2624990  37.5099997
 110.4509992  42.4134990  38.2919997 112.2349992  42.5164990  37.8979997
 110.8169992  43.3384990  36.4389997 110.8229992  44.2974990  36.9359997
 111.5679992  43.2684990  35.6659997 109.4589992  43.1304990  35.8099997
 108.2919992  42.9014990  36.7039997 108.5029992  42.2144990  37.5099997
 108.0629992  43.8984990  37.0519997 107.4839992  42.4804990  36.1249997
 109.1319992  44.3284990  34.9119997 109.9279992  44.4514990  34.1919997
 108.2819992  44.2314990  34.2539997 108.9449992  45.1704990  35.5619997
 109.6179992  41.8904990  34.9249997 110.4379992  41.9954990  34.2299997
 108.7739992  41.6584990  34.2919997 109.8619992  41.0624990  35.5749997
 111.7929992  38.4184990  37.4709997 109.5349992  39.3004990  38.1329997
 112.7799992  40.2454990  41.8899997 113.3759992  39.1724990  42.3449997
 114.4169992  38.7174990  41.9289997 112.5939992  38.6384990  43.4549997
 111.8999992  39.3874990  43.8919997 113.2649992  38.2414990  44.2469997
 111.7599992  37.3874990  42.9859997 112.3169992  36.7144990  42.2989997
 110.8839992  37.6764990  42.3669997 111.2699992  36.5364990  44.2609997
 112.2419992  36.2154990  44.6949997 111.0739992  35.4694990  44.0239997
 110.2399992  37.2134990  45.2079997 110.7499992  38.1554990  45.5019997
 110.0659992  36.4454990  45.9909997 108.8279992  37.4494990  44.6819997
 108.4879992  36.5184990  44.1819997 108.8919992  38.2914990  43.9599997
 107.8309992  37.9104990  45.7069997 107.6529992  37.0034990  46.3229997
 106.8779992  38.1984990  45.2139997 108.2609992  39.1374990  46.5349997
 109.1539992  38.7714990  47.0869997 107.4869992  39.2774990  47.3189997
 108.5389992  40.4084990  45.7379997 109.0279992  40.1664990  44.7829997
 108.2039992  41.6944990  46.0779997 108.6609992  42.5214990  45.5149997
 107.4459992  42.1084990  47.2919997 106.6469992  41.3694990  47.5169997
 106.8869992  43.0394990  47.0559997 108.4509992  42.3644990  48.3919997
 109.1439992  43.0764990  47.8939997 109.1149992  41.4994990  48.6019997
 107.7519992  42.7694990  49.6589997 106.9249992  42.0554990  49.8589997
 107.1049992  43.6554990  49.4839997 108.6239992  42.9074990  50.8839997
 109.6899992  42.7934990  50.5929997 108.4199992  42.0154990  51.5149997
 108.5379992  44.2214990  51.6739997 107.4739992  44.2394990  51.9939997
 108.7719992  45.1034990  51.0399997 109.3779992  44.2354990  52.9529997
 110.4249992  44.4464990  52.6469997 109.4629992  43.1854990  53.3079997
 108.9789992  45.3214990  54.0099997 107.8749992  45.3724990  53.8939997
 109.4309992  46.2114990  53.5219997 109.4739992  45.2064990  55.4949997
 108.9389992  45.8764990  56.2019997 110.5459992  45.4954990  55.5419997
 109.3469992  44.1434990  55.7929997  27.2829992  85.8154990  54.4429997
  27.3219992  84.7054990  54.4679997  26.2849992  86.2444990  54.6769997
  28.0289992  86.1414990  55.1999997  27.7609992  86.3614990  53.0769997
  26.9419992  86.2534990  52.3329997  27.9169992  87.4524990  53.2169997
  28.9319992  85.6564990  52.4049997  29.2699992  86.2164990  51.5069997
  29.8079992  85.5844990  53.0839997  28.7109992  84.1594990  52.0149997
  29.7109992  83.6994990  51.8629997  28.2959992  83.6204990  52.8939997
  27.9669992  83.9464990  50.6989997  27.7319992  82.8604990  50.6649997
  27.0629992  84.5904990  50.7469997  28.6069992  84.1124990  49.2979997
  29.4519992  83.3944990  49.2309997  27.9039992  83.7044990  48.5409997
  28.9289992  85.5594990  48.7539997  27.9559992  86.0784990  48.8799997
  29.7329992  86.0694990  49.3259997  29.3459992  85.5974990  47.2719997
  28.9209992  84.7884990  46.6409997  29.0729992  86.5774990  46.8249997
  30.8749992  85.3934990  47.1999997  31.2709992  86.1624990  47.8969997
  31.2039992  84.3774990  47.5079997  31.4729992  85.5524990  45.8029997
  31.1669992  86.4834990  45.2799997  32.5429992  85.7924990  45.9819997
  31.4509992  84.2454990  44.8999997  32.4219992  83.7374990  45.0839997
  30.5889992  83.6214990  45.2169997  31.4269992  84.3524990  43.4209997
  30.3889992  84.4394990  43.0329997  32.0959992  85.1414990  43.0159997
  31.9129992  83.0834990  42.6429997  33.0099992  83.0574990  42.8179997
  31.2869992  82.3474990  43.1919997  31.6689992  82.9694990  41.1419997
  30.5599992  82.9104990  41.1749997  31.9759992  83.7994990  40.4699997
  32.0989992  81.6164990  40.4909997  31.9719992  81.6684990  39.3879997
  33.1949992  81.4334990  40.4819997  31.2729992  80.4894990  41.0289997
  31.2869992  80.0804990  42.1939997  30.5869992  79.8964990  40.0359997
  29.3329992  79.2274990  40.4169997  29.2799992  78.2524990  39.8859997
  29.2479992  79.0284990  41.5069997  28.1529992  80.0264990  39.8589997
  27.2619992  79.3654990  39.8099997  28.3789992  80.4294990  38.2879997
  28.8949992  79.6694990  37.6629997  27.3149992  80.4304990  37.9679997
  29.1059992  81.5904990  38.1779997  29.4929992  82.1154990  36.7109997
  30.2449992  83.5404990  37.0209997  29.4389992  84.5044990  37.7339997
  28.5549992  84.7034990  37.0919997  29.0759992  84.1724990  38.7309997
  30.1629992  85.8344990  38.0989997  29.4549992  86.5004990  38.5689997
  30.8929992  85.6914990  38.8819997  30.7869992  86.5544990  36.9489997
  32.0509992  85.9134990  36.5549997  32.4609992  86.5114990  35.7549997
  32.6699992  85.8594990  37.4389997  31.8099992  84.9294990  36.1809997
  29.8959992  86.6044990  35.6659997  29.5479992  85.5884990  35.5449997
  29.1099992  87.3344990  35.7879997  30.5299992  86.9084990  34.8469997
  31.1949992  87.9144990  37.4709997  31.8659992  87.7224990  38.2949997
  30.3599992  88.5774990  37.6419997  31.6979992  88.4484990  36.6779997
  30.5589992  81.1294990  36.2809997  28.3719992  82.3764990  35.8059997
  28.0989992  81.2584990  40.6199997  27.0499992  82.0344990  40.5389997
  26.1139992  81.8304990  39.8259997  27.2019992  83.3444990  41.3759997
  26.9249992  84.1924990  40.7129997  28.2359992  83.4664990  41.7639997
  26.2629992  83.4174990  42.6159997  25.2319992  83.4804990  42.2079997
  26.5079992  84.3044990  43.2389997  26.4379992  82.2534990  43.5759997
  25.9609992  81.2934990  43.2809997  25.7929992  82.6134990  44.4059997
  27.8839992  82.0044990  44.1609997  28.3479992  82.9264990  44.5729997
  28.4919992  81.5234990  43.3649997  27.8119992  80.8124990  45.2569997
  27.2549992  80.0344990  44.6929997  27.2689992  81.0604990  46.1939997
  29.2459992  80.3424990  45.5359997  29.8899992  80.7764990  44.7419997
  29.4119992  79.2604990  45.7249997  29.8769992  81.0544990  46.7859997
  29.5889992  82.1124990  46.6059997  30.9859992  81.0594990  46.7149997
  29.4579992  80.5484990  48.0939997  28.3779992  80.3934990  48.2359997
  30.1119992  80.3424990  49.3009997  29.4899992  80.1764990  50.1929997
  31.6319992  80.5554990  49.5519997  31.9499992  81.5954990  49.7759997
  32.1029992  80.2634990  48.5889997  32.0909992  79.5834990  50.6199997
  31.6219992  78.5774990  50.5659997  31.8019992  79.8534990  51.6589997
  33.6069992  79.5674990  50.7379997  34.1359992  79.3794990  49.7799997
  33.8969992  78.8204990  51.5079997  34.2089992  80.8834990  51.3259997
  34.0119992  81.6874990  50.5859997  35.2959992  80.7224990  51.4849997
  33.4649992  81.3374990  52.6229997  33.5579992  80.5474990  53.3979997
  32.4419992  81.6214990  52.2949997  34.2889992  82.5024990  53.3619997
  34.4899992  83.2044990  52.5239997  35.3039992  82.0884990  53.5449997
  33.6799992  83.2074990  54.5509997  32.6019992  83.4654990  54.4709997
  34.2949992  84.1204990  54.7019997  33.9279992  82.3554990  55.9099997
  33.2749992  82.8474990  56.6619997  34.9899992  82.2944990  56.2319997
  33.5429992  81.3154990  55.8379997  82.3559992 107.7874990  53.8699997
  81.7909992 106.9084990  54.2479997  81.6239992 108.6164990  53.7549997
  83.2389992 107.8224990  54.5429997  82.7049992 107.4064990  52.4319997
  81.7779992 107.6894990  51.8889997  83.5439992 108.0364990  52.0669997
  83.1379992 105.9534990  52.1629997  83.8169992 105.6884990  53.0019997
  82.2859992 105.2504990  52.2809997  83.6909992 105.5824990  50.7469997
  84.6919992 106.0584990  50.6679997  83.8419992 104.4834990  50.7959997
  82.7469992 105.9454990  49.5999997  82.8619992 105.2514990  48.7399997
  81.7069992 105.7074990  49.9099997  82.8409992 107.4664990  49.1319997
  82.4839992 108.1624990  49.9209997  83.8819992 107.7314990  48.8499997
  81.9409992 107.8214990  47.9459997  80.9279992 107.3954990  48.1089997
  81.8329992 108.9234990  47.8539997  82.4709992 107.2814990  46.5979997
  83.4529992 107.7624990  46.4009997  82.6449992 106.1884990  46.5059997
  81.5169992 107.6024990  45.4119997  81.8899992 107.0364990  44.5319997
  80.5859992 107.1634990  45.8279997  81.3769992 109.0754990  45.0849997
  80.9939992 109.6674990  45.9429997  82.4109992 109.4124990  44.8569997
  80.4479992 109.3164990  43.8419997  79.5099992 108.7524990  44.0309997
  80.1659992 110.3914990  43.8189997  81.0659992 108.7954990  42.5549997
  81.2279992 107.6964990  42.5649997  80.4289992 108.8684990  41.6479997
  82.3899992 109.5164990  42.1869997  82.3279992 110.6254990  42.2279997
  83.1359992 108.9614990  42.7939997  82.8839992 109.4084990  40.6929997
  83.0379992 108.3124990  40.5889997  82.0769992 109.7824990  40.0269997
  84.0389992 110.2574990  40.3969997  84.1519992 110.4074990  39.3019997
  83.9779992 111.2574990  40.8759997  85.4039992 109.6254990  40.6609997
  85.5449992 108.6724990  41.4379997  86.3129992 110.2084990  39.8909997
  87.7159992 109.9804990  40.0849997  88.2819992 110.8864990  39.7789997
  87.8489992 109.7024990  41.1529997  88.1739992 108.7464990  39.1999997
  89.2789992 108.7214990  39.3059997  87.9359992 108.9684990  37.7079997
  88.2689992 109.9954990  37.4459997  88.6719992 108.4044990  37.0949997
  86.5899992 108.9054990  37.2469997  86.1199992 108.0324990  35.9619997
  84.5649992 107.9664990  36.1369997  83.8609992 108.4054990  37.2749997
  84.4999992 109.1444990  37.8049997  82.9829992 109.0124990  36.9639997
  83.3759992 107.3804990  38.2679997  84.2259992 106.9784990  38.7979997
  82.8539992 107.8594990  39.0829997  82.5489992 106.1994990  37.8149997
  81.2559992 106.5974990  37.1839997  81.4449992 107.1814990  36.2949997
  80.6239992 105.7834990  36.8589997  80.6699992 107.2074990  37.8549997
  83.3819992 105.3444990  36.8079997  83.6839992 106.0074990  36.0109997
  84.2169992 105.0174990  37.4089997  82.7819992 104.5144990  36.4659997
  82.3289992 105.3354990  39.0589997  82.0949992 105.9674990  39.9039997
  83.2519992 104.8394990  39.3189997  81.6659992 104.5264990  38.7919997
  86.4419992 108.9064990  34.7619997  86.4919992 106.6734990  35.9549997
  87.5329992 107.5534990  39.6909997  88.1469992 106.4184990  39.5059997
  89.2989992 106.2814990  39.1019997  87.2759992 105.1504990  39.8399997
  87.9149992 104.3124990  40.1879997  86.7409992 104.9054990  38.8969997
  86.2019992 105.5184990  40.8139997  85.5919992 106.3044990  40.3189997
  86.6149992 106.0574990  41.6929997  85.3519992 104.3374990  41.3809997
  86.0719992 103.6734990  41.9059997  85.0109992 103.7414990  40.5079997
  84.1439992 104.7604990  42.2649997  83.3989992 103.9464990  42.3929997
  83.6229992 105.5674990  41.7079997  84.4479992 105.2144990  43.7049997
  83.7819992 106.0704990  43.9449997  85.4789992 105.6224990  43.7579997
  84.2459992 104.1564990  44.8389997  84.7839992 103.2154990  44.5959997
  83.1429992 104.1084990  44.9649997  84.9209992 104.6104990  46.1589997
  84.4089992 104.1124990  47.0099997  84.7379992 105.6994990  46.2789997
  86.4289992 104.3434990  46.2429997  86.7709992 103.5734990  45.5359997
  87.3829992 105.0474990  46.9429997  88.3879992 104.6194990  47.0809997
  87.0889992 106.2684990  47.7169997  87.5869992 106.2004990  48.7079997
  86.0069992 106.3314990  47.9619997  87.5069992 107.5434990  46.9899997
  86.7879992 107.7864990  46.1789997  88.5149992 107.4584990  46.5299997
  87.4969992 108.6044990  48.0399997  86.5549992 108.3814990  48.5859997
  87.3529992 109.5784990  47.5249997  88.6849992 108.7784990  49.0459997
  89.5869992 108.7064990  48.4019997  88.8389992 107.8594990  49.6509997
  88.4259992 109.9674990  49.9489997  87.8399992 109.4464990  50.7359997
  87.6929992 110.6934990  49.5369997  89.7889992 110.6454990  50.1829997
  90.3789992 110.8344990  49.2609997  90.3619992 109.8734990  50.7389997
  89.7199992 111.8564990  51.1819997  88.9359992 112.5904990  50.8989997
  90.5739992 112.5184990  50.9239997  89.6389992 111.5134990  52.6839997
  89.5539992 112.3774990  53.3759997  90.5239992 110.9964990  53.1119997
  88.7929992 110.8104990  52.8409997  62.3559992  25.6274990  53.9589997
  61.6119992  26.0354990  54.6769997  63.3369992  25.2944990  54.3609997
  61.8729992  24.7574990  53.4649997  62.7029992  26.6344990  52.8409997
  61.7499992  27.0554990  52.4559997  63.0909992  27.5844990  53.2649997
  63.7619992  26.1004990  51.9679997  64.7449992  25.9494990  52.4629997
  63.3549992  25.1974990  51.4639997  64.1439992  26.9024990  50.6439997
  64.6339992  26.1744990  49.9619997  63.2379992  27.2114990  50.0799997
  65.0179992  28.1214990  50.9269997  64.6109992  28.8464990  51.6629997
  66.0189992  27.8254990  51.3069997  65.1509992  28.9254990  49.5369997
  64.1499992  29.2464990  49.1749997  65.6239992  29.9054990  49.7619997
  66.0659992  28.1494990  48.4769997  67.0969992  28.0614990  48.8819997
  65.5689992  27.1674990  48.3269997  66.1349992  28.8894990  47.1509997
  65.0539992  29.0834990  46.9819997  66.5899992  29.9014990  47.2039997
  66.7239992  28.0554990  46.0579997  67.8229992  28.0074990  46.2099997
  66.2219992  27.0664990  45.9889997  66.5889992  28.8124990  44.6689997
  66.8719992  27.9734990  43.9979997  65.5079992  29.0014990  44.4979997
  67.4169992  30.0364990  44.4849997  67.2229992  30.7444990  45.3189997
  68.4689992  29.6824990  44.4369997  67.1879992  30.7724990  43.1169997
  66.1839992  31.2484990  43.1089997  67.9179992  31.6054990  43.0259997
  67.2009992  29.9884990  41.9029997  66.5379992  29.0984990  41.9539997
  66.9899992  30.6844990  41.0629997  68.5429992  29.4044990  41.5169997
  69.1349992  30.3104990  41.2639997  69.0489992  28.8724990  42.3499997
  68.4839992  28.4344990  40.2689997  67.9029992  28.8564990  39.4219997
  69.5019992  28.3094990  39.8409997  68.0459992  27.0154990  40.6529997
  67.6269992  26.6394990  41.8059997  68.0049992  26.1804990  39.6029997
  67.4699992  24.8484990  39.8629997  68.0289992  24.2014990  39.1539997
  67.5089992  24.4484990  40.8989997  65.9259992  24.8274990  39.4599997
  65.6799992  23.7644990  39.6709997  65.5969992  25.1834990  37.9889997
  66.4629992  24.8884990  37.3579997  64.6629992  24.6394990  37.7319997
  65.3469992  26.5824990  37.8949997  64.7949992  27.1634990  36.5149997
  63.6869992  28.1654990  36.9999997  64.0949992  29.2514990  37.8319997
  63.6019992  29.1584990  38.8229997  65.1829992  29.4264990  37.9749997
  63.5509992  30.5744990  37.1649997  63.9829992  31.3724990  37.7509997
  63.8759992  30.6584990  36.1389997  62.0719992  30.6694990  37.1039997
  61.4279992  29.5334990  36.3419997  61.8589992  29.4764990  35.3529997
  61.5689992  28.6174990  36.8959997  60.3759992  29.7264990  36.1919997
  61.4269992  30.6194990  38.5449997  61.5959992  29.6454990  38.9799997
  61.8639992  31.3784990  39.1769997  60.3519992  30.6864990  38.4629997
  61.5189992  31.9784990  36.4659997  60.4399992  31.9324990  36.4539997
  61.7319992  32.0224990  35.4079997  62.0879992  32.7644990  36.9389997
  65.8539992  27.9394990  35.8259997  64.1269992  26.1134990  35.7819997
  65.1809992  25.7174990  40.2749997  63.8879992  25.5144990  40.4429997
  63.3199992  24.5594990  39.9199997  63.3469992  26.4044990  41.5659997
  64.1209992  26.4254990  42.3629997  62.3969992  25.8994990  41.8439997
  62.8659992  27.8384990  41.2419997  62.2099992  27.9324990  40.3499997
  63.6889992  28.5724990  41.1089997  61.8599992  28.3904990  42.3689997
  61.1209992  27.5724990  42.5089997  61.4189992  29.3414990  42.0019997
  62.6579992  28.5994990  43.6869997  63.5299992  29.2684990  43.5189997
  63.0829992  27.6484990  44.0729997  61.8319992  29.2244990  44.8179997
  60.9789992  28.5204990  44.9169997  61.4649992  30.2214990  44.4949997
  62.6179992  29.3144990  46.0889997  63.4939992  29.9974990  46.0619997
  63.1479992  28.3694990  46.3349997  61.7969992  29.8424990  47.2799997
  61.4259992  30.7814990  46.8149997  62.4379992  30.0864990  48.1539997
  60.5569992  29.0474990  47.5579997  59.8369992  28.7814990  46.7699997
  60.0889992  28.7584990  48.8259997  59.1119992  28.2554990  48.8819997
  60.6699992  29.1914990  50.1219997  61.7669992  29.2364990  49.9539997
  60.4449992  28.4284990  50.8969997  60.2459992  30.6204990  50.6399997
  59.1409992  30.7194990  50.5849997  60.6419992  31.4574990  50.0249997
  60.5489992  30.9324990  52.1659997  59.7819992  30.4204990  52.7849997
  60.4939992  32.0174990  52.3999997  61.9849992  30.6934990  52.6319997
  62.8019992  31.0044990  51.9469997  62.2279992  29.6124990  52.5489997
  62.3099992  31.0594990  54.1549997  62.3249992  32.1684990  54.2219997
  63.3479992  30.7764990  54.4339997  61.3299992  30.7184990  55.2439997
  60.3479992  31.1844990  55.0159997  61.6989992  31.2534990  56.1449997
  61.0799992  29.2124990  55.4899997  62.0279992  28.8104990  55.9079997
  60.9389992  28.7524990  54.4889997  59.8979992  28.8974990  56.3289997
  59.8709992  27.7874990  56.3429997  58.9309992  29.2324990  55.8959997
  60.0029992  29.3074990  57.3559997  43.4999992 104.3984990  54.9179997
  43.1849992 104.7914990  55.9079997  43.1409992 103.3484990  54.8719997
  42.9819992 104.9694990  54.1179997  45.0879992 104.3424990  54.8729997
  45.5649992 105.3014990  54.5769997  45.4519992 104.0494990  55.8809997
  45.6119992 103.3224990  53.8539997  46.6509992 103.0954990  54.1749997
  44.9969992 102.4064990  53.9869997  45.3749992 103.8354990  52.4519997
  44.2689992 103.7464990  52.4069997  45.5569992 104.9304990  52.3989997
  46.1599992 103.1724990  51.2869997  47.2119992 103.2154990  51.6419997
  45.7959992 102.1234990  51.2499997  46.0339992 103.7954990  49.8569997
  46.4419992 103.0554990  49.1369997  44.9249992 103.8174990  49.7959997
  46.8999992 105.0084990  49.7659997  46.4999992 105.7844990  50.4529997
  47.9109992 104.7404990  50.1419997  46.9249992 105.6584990  48.3529997
  47.2649992 104.8394990  47.6839997  45.8949992 106.0174990  48.1419997
  47.8989992 106.9054990  48.2619997  47.5229992 107.6074990  49.0359997
  48.9239992 106.5584990  48.5149997  47.9359992 107.5904990  46.9129997
  48.4099992 108.5944990  46.9679997  48.4889992 106.9504990  46.1929997
  46.5379992 107.7804990  46.1869997  46.2129992 106.7524990  45.9169997
  45.7699992 108.2514990  46.8369997  46.7499992 108.4474990  44.8669997
  47.1419992 109.4534990  45.1299997  47.5609992 107.9104990  44.3289997
  45.4129992 108.7444990  44.1519997  44.7569992 109.3124990  44.8449997
  45.7529992 109.3714990  43.2999997  44.6089992 107.5904990  43.6529997
  44.5469992 106.8594990  44.4879997  43.5469992 107.8514990  43.4549997
  45.1699992 106.9614990  42.4009997  44.2809992 106.4924990  41.9269997
  45.4999992 107.7184990  41.6579997  46.1759992 105.9224990  42.5479997
  46.2709992 105.1224990  43.4989997  46.9509992 105.8354990  41.4099997
  47.5819992 104.5404990  41.0909997  48.6629992 104.7304990  40.9219997
  47.4769992 103.9044990  41.9959997  47.0129992 103.8084990  39.8649997
  47.4729992 102.8004990  39.7799997  47.6219992 104.6174990  38.5769997
  48.6099992 104.9494990  38.9619997  47.9119992 103.9554990  37.7339997
  46.7439992 105.6374990  38.2099997  47.2449992 106.8454990  37.3089997
  45.9559992 107.2354990  36.4199997  45.3679992 106.2794990  35.5939997
  44.9659992 106.8594990  34.7349997  46.0679992 105.5124990  35.2009997
  44.1779992 105.5864990  36.2639997  43.8859992 104.8094990  35.5729997
  44.6259992 105.0064990  37.0579997  42.8779992 106.2134990  36.8119997
  42.0469992 105.0934990  37.4819997  42.6499992 104.5974990  38.2279997
  41.2039992 105.6234990  37.9019997  41.7429992 104.2874990  36.8309997
  43.2389992 107.1354990  37.9169997  42.3259992 107.6404990  38.1949997
  43.5929992 106.6104990  38.7909997  43.9839992 107.8564990  37.6119997
  41.9389992 106.7924990  35.7559997  41.5469992 106.0214990  35.1099997
  42.5269992 107.4944990  35.1829997  41.0849992 107.2244990  36.2569997
  47.5059992 107.8984990  38.3179997  48.3489992 106.4234990  36.3909997
  45.6399992 103.7954990  39.8709997  44.9569992 102.8644990  40.5959997
  45.4329992 101.9164990  41.1489997  43.4469992 103.1494990  40.6669997
  42.9219992 102.4214990  40.0129997  43.1869992 104.1334990  40.2209997
  43.0109992 103.1024990  42.0759997  43.6189992 103.8804990  42.5859997
  43.2599992 102.1384990  42.5679997  41.5309992 103.4504990  42.4379997
  40.7909992 102.7814990  41.9479997  41.3429992 104.4934990  42.1049997
  41.1999992 103.4104990  43.9329997  41.0539992 102.3534990  44.2429997
  40.3419992 104.0954990  44.1039997  42.3049992 104.0014990  44.9129997
  42.5499992 105.0374990  44.5959997  43.2459992 103.4114990  44.9369997
  41.9019992 103.9734990  46.4149997  41.9069992 102.9464990  46.8399997
  40.8959992 104.4264990  46.5489997  42.7979992 104.6174990  47.5319997
  43.8229992 104.1924990  47.5979997  42.3709992 104.2444990  48.4869997
  42.9099992 106.1104990  47.5169997  43.3939992 106.5694990  46.6429997
  42.6839992 106.9184990  48.6099997  42.7399992 108.0104990  48.4879997
  42.2409992 106.4154990  50.0309997  41.7509992 105.4184990  50.0329997
  41.3479992 107.0364990  50.2629997  43.2099992 106.5984990  51.1549997
  44.0639992 105.8884990  51.1779997  42.5589992 106.4944990  52.0499997
  43.8079992 108.0244990  51.2939997  42.9249992 108.6964990  51.2229997
  44.6259992 108.2684990  50.5829997  44.5959992 108.3394990  52.5759997
  45.1269992 109.3114990  52.4849997  45.3229992 107.4994990  52.5919997
  43.7349992 108.4384990  53.8569997  44.4179992 108.6424990  54.7099997
  43.1869992 107.4894990  54.0449997  42.6569992 109.5064990  53.7029997
  41.9369992 109.3264990  52.8759997  43.3099992 110.2964990  53.2729997
  42.0059992 109.9474990  55.0969997  41.6659992 109.0364990  55.6339997
  41.1779992 110.6574990  54.8869997  43.0659992 110.6924990  55.8959997
  42.5329992 111.0244990  56.8119997  43.3849992 111.6244990  55.3819997
  44.0069992 110.1354990  56.0969997  59.2769992 115.6734990  54.8969997
  60.3859992 115.6764990  54.8319997  59.0319992 115.0924990  55.8119997
  59.0129992 116.7494990  54.9679997  58.6619992 115.0644990  53.5859997
  59.3629992 114.2624990  53.2679997  57.6239992 114.6864990  53.6959997
  58.5779992 116.1934990  52.4589997  57.7329992 116.8954990  52.6229997
  59.5059992 116.7974990  52.3709997  58.3529992 115.5424990  51.1209997
  59.1279992 114.7884990  50.8639997  57.3449992 115.0794990  51.1809997
  58.5219992 116.5394990  49.9639997  57.9299992 116.1224990  49.1209997
  58.0219992 117.4714990  50.3019997  59.9409992 116.8254990  49.6489997
  59.9169992 117.4174990  48.7089997  60.5119992 117.3844990  50.4209997
  60.9359992 115.6424990  49.3169997  61.2759992 115.3384990  50.3299997
  60.3429992 114.8464990  48.8189997  62.1909992 115.9944990  48.4109997
  62.6589992 116.8794990  48.8919997  62.9699992 115.2014990  48.3959997
  61.8499992 116.3974990  46.9479997  61.4799992 117.4454990  46.9359997
  62.7079992 116.4714990  46.2459997  60.7289992 115.4824990  46.3559997
  61.1299992 114.4564990  46.4989997  59.8029992 115.5924990  46.9609997
  60.5199992 115.6234990  44.8159997  61.4289992 115.4974990  44.1899997
  59.8009992 114.8194990  44.5499997  59.8909992 117.0534990  44.5239997
  58.9729992 117.0764990  45.1489997  60.4279992 117.9244990  44.9569997
  59.5489992 117.3144990  43.0629997  60.5179992 117.3784990  42.5229997
  59.0049992 116.4514990  42.6239997  58.8669992 118.6494990  42.9649997
  58.0869992 118.6354990  43.7559997  59.5569992 119.4904990  43.1899997
  58.0149992 118.8384990  41.6349997  57.4299992 117.9104990  41.4579997
  57.2999992 119.6724990  41.7959997  58.7309992 119.0824990  40.3129997
  58.3729992 118.8814990  39.1589997  60.0249992 119.4574990  40.5939997
  61.0719992 119.4104990  39.6249997  60.8009992 119.4244990  38.5469997
  61.7699992 120.2604990  39.7839997  61.7959992 118.0284990  39.7009997
  62.6739992 118.0314990  39.0199997  60.8559992 116.9164990  39.2369997
  59.8349992 116.9054990  39.6739997  60.6799992 117.3024990  38.2099997
  61.4199992 115.6094990  39.3309997  62.6879992 114.9724990  38.5439997
  62.1099992 113.8744990  37.4759997  60.9879992 113.1254990  37.6959997
  61.4219992 112.1154990  37.5369997  60.6389992 113.2264990  38.7449997
  59.8579992 113.2854990  36.7089997  59.2909992 112.3764990  36.8449997
  59.1999992 114.0414990  37.1139997  60.0849992 113.6074990  35.2719997
  61.0679992 112.5934990  34.6569997  61.8069992 112.4674990  35.4339997
  60.6729992 111.6024990  34.4869997  61.4749992 113.0914990  33.7899997
  58.7559992 113.5734990  34.5629997  58.1679992 114.3524990  35.0249997
  58.9379992 113.8964990  33.5489997  58.2649992 112.6114990  34.5919997
  60.7409992 114.9204990  35.1339997  60.1249992 115.7614990  35.4139997
  61.0439992 115.0294990  34.1029997  61.6509992 114.8634990  35.7139997
  63.3399992 116.0304990  37.6639997  63.5839992 114.2794990  39.4269997
  62.1879992 117.6734990  40.9979997  63.2019992 118.4184990  41.4219997
  63.6049992 119.4404990  40.8829997  63.5129992 117.9784990  42.8429997
  63.9219992 116.9514990  42.9559997  62.5279992 117.9994990  43.3559997
  64.4619992 118.9294990  43.4769997  64.0699992 119.9474990  43.2679997
  65.4609992 119.0634990  43.0089997  64.6259992 118.7694990  45.0169997
  65.6649992 118.6094990  45.3759997  63.9969992 117.8954990  45.2899997
  63.8719992 119.8704990  45.7679997  62.9369992 119.9934990  45.1799997
  64.5179992 120.7674990  45.6579997  63.6559992 119.6504990  47.2649997
  63.0929992 118.6934990  47.2639997  62.9479992 120.4144990  47.6519997
  64.9309992 119.3984990  48.0689997  65.5809992 120.2984990  48.0219997
  65.4919992 118.5424990  47.6369997  64.6409992 119.1794990  49.5359997
  65.4369992 118.5084990  49.9229997  63.7019992 118.5884990  49.5939997
  64.8229992 120.4424990  50.3769997  65.8339992 120.8754990  50.3659997
  63.9589992 121.0544990  51.1489997  64.3669992 121.9394990  51.6589997
  62.4639992 120.6664990  51.4409997  62.1619992 119.6804990  51.0269997
  61.8089992 121.4534990  51.0099997  61.9549992 120.7224990  52.9489997
  60.9299992 120.2924990  52.9649997  61.8929992 121.7844990  53.2679997
  62.9299992 120.0174990  53.9139997  62.4159992 119.9384990  54.8959997
  63.7379992 120.7464990  54.1389997  63.4179992 118.5934990  53.4949997
  64.3679992 118.3474990  54.0159997  63.6799992 118.5724990  52.4149997
  62.4869992 117.4064990  53.6699997  61.5009992 117.6784990  53.2369997
  62.2029992 117.2944990  54.7379997  63.1359992 116.0354990  53.3229997
  63.2159992 115.9544990  52.2179997  62.4429992 115.2114990  53.5989997
  64.5519992 115.6474990  53.9289997  65.3239992 116.3144990  53.4889997
  64.6999992 114.6474990  53.4679997  64.5899992 115.6534990  55.4599997
  63.7909992 115.0004990  55.8699997  64.3169992 116.6874990  55.7609997
  65.6109992 115.4964990  55.8699997 126.5119992  67.4104990  58.9519997
 126.6209992  66.3104990  59.0669997 125.9179992  67.8264990  59.7929997
 127.5259992  67.7474990  59.2569997 125.8599992  67.8804990  57.6249997
 124.9419992  67.2744990  57.4689997 125.5289992  68.9254990  57.8069997
 126.8129992  67.7184990  56.3799997 126.3739992  68.0534990  55.4159997
 127.6779992  68.3834990  56.5869997 127.4149992  66.3654990  56.1049997
 127.8679992  65.9934990  57.0489997 126.4869992  65.8164990  55.8379997
 128.3809992  66.3194990  54.9849997 129.2909992  66.9434990  55.1179997
 128.7509992  65.2754990  55.0729997 127.8429992  66.4254990  53.6009997
 128.4419992  65.7464990  52.9559997 126.8129992  66.0354990  53.4529997
 127.9649992  67.7784990  52.9759997 127.5969992  68.5054990  53.7309997
 129.0429992  67.9874990  52.8119997 127.2139992  67.9994990  51.6449997
 126.1389992  67.7174990  51.6769997 127.2209992  69.0524990  51.2909997
 127.8749992  67.3864990  50.4479997 128.9059992  67.7534990  50.6419997
 127.9749992  66.2824990  50.5079997 127.3599992  67.6774990  49.0689997
 127.1999992  68.7744990  48.9869997 128.2389992  67.5594990  48.3989997
 126.2219992  66.7344990  48.6579997 126.4959992  65.6834990  48.8929997
 125.2219992  66.9444990  49.0949997 125.9979992  66.9694990  47.1689997
 126.7549992  66.5964990  46.4459997 125.0719992  66.4044990  46.9269997
 125.7689992  68.4674990  46.7769997 125.2339992  68.8924990  47.6529997
 126.7639992  68.9584990  46.8459997 124.8579992  68.6984990  45.5749997
 125.4219992  68.2344990  44.7369997 123.8979992  68.1534990  45.6989997
 124.5129992  70.1534990  45.2109997 124.0979992  70.7454990  46.0539997
 125.5339992  70.5594990  45.0479997 123.5429992  70.1944990  43.9699997
 122.3459992  70.4164990  44.0609997 124.2729992  70.0904990  42.8979997
 123.6159992  70.1734990  41.6509997 122.5049992  70.2014990  41.6809997
 123.9229992  71.1414990  41.1999997 124.1049992  69.0274990  40.7639997
 125.1839992  69.2854990  40.7019997 123.3509992  69.0524990  39.3979997
 122.2779992  68.8734990  39.6219997 123.6019992  70.0234990  38.9209997
 123.9629992  68.0234990  38.5959997 123.2089992  67.3534990  37.4499997
 124.2649992  67.2704990  36.3559997 125.2049992  68.1854990  36.0329997
 125.4699992  68.0094990  34.9679997 124.8709992  69.2374990  36.1549997
 126.4899992  68.0664990  36.8489997 127.0639992  68.9524990  36.6209997
 126.2349992  68.0414990  37.8979997 127.3349992  66.7694990  36.6539997
 126.7649992  65.5184990  37.2949997 127.0299992  65.4344990  38.3389997
 125.7359992  65.3634990  37.0069997 127.2979992  64.6904990  36.8529997
 127.6059992  66.4444990  35.2199997 128.3279992  65.6484990  35.3279997
 126.7549992  66.2924990  34.5719997 128.1549992  67.2764990  34.8049997
 128.7089992  67.0594990  37.2039997 129.1629992  66.1094990  37.4449997
 128.6999992  67.7354990  38.0459997 129.2129992  67.6054990  36.4199997
 122.8129992  65.9264990  37.7939997 122.1329992  68.2834990  37.0219997
 123.8559992  67.7574990  41.3839997 124.7929992  66.7924990  41.2859997
 125.8299992  66.8894990  40.6649997 124.1869992  65.4484990  41.7219997
 124.4779992  64.6764990  40.9779997 123.0809992  65.5044990  41.6289997
 124.5869992  65.1784990  43.2199997 124.5229992  66.0584990  43.8949997
 125.6529992  64.8724990  43.2729997 123.6479992  64.0734990  43.8439997
 124.1759992  63.1254990  43.6049997 122.6539992  64.0904990  43.3489997
 123.4359992  64.2464990  45.3269997 124.3339992  64.5904990  45.8829997
 123.1339992  63.2574990  45.7319997 122.2039992  65.1814990  45.5769997
 121.4229992  64.8624990  44.8539997 122.5019992  66.2364990  45.3929997
 121.7869992  65.0314990  47.0849997 122.6569992  65.1994990  47.7549997
 121.4139992  63.9854990  47.1149997 120.5659992  65.8754990  47.5009997
 120.1149992  65.6224990  48.4839997 119.8019992  65.6314990  46.7319997
 121.1479992  67.2914990  47.4829997 121.1559992  67.7694990  46.4919997
 121.4709992  68.0424990  48.5839997 121.9129992  69.0304990  48.3919997
 121.3289992  67.7414990  50.0239997 120.5259992  66.9974990  50.2129997
 121.1439992  68.7304990  50.4949997 122.6989992  67.2814990  50.5179997
 123.5169992  67.9954990  50.2789997 122.9389992  66.3014990  50.0529997
 122.6479992  67.0784990  52.0829997 123.6849992  66.8404990  52.4039997
 121.9819992  66.2364990  52.3679997 122.1579992  68.2904990  52.8619997
 121.1269992  68.5214990  52.5209997 122.5639992  69.2154990  52.3999997
 122.3319992  68.3754990  54.3889997 121.8849992  69.3184990  54.7689997
 123.4029992  68.2934990  54.6719997 121.5179992  67.2874990  55.1469997
 121.8469992  66.2834990  54.8059997 120.4179992  67.3814990  55.0249997
 121.7249992  67.3464990  56.6909997 121.2889992  68.2504990  57.1689997
 122.8279992  67.3924990  56.8189997 121.2519992  66.0434990  57.3089997
 121.6819992  65.7864990  58.3009997 121.4559992  65.2844990  56.5239997
 120.1569992  66.1444990  57.4679997  41.1639992 101.6594990  56.9739997
  40.5559992 101.7064990  57.9019997  42.1109992 102.2104990  57.1579997
  41.3959992 100.6124990  56.6839997  40.4749992 102.3834990  55.8839997
  39.5199992 101.8504990  55.6909997  40.2069992 103.3534990  56.3549997
  41.2179992 102.5434990  54.5849997  42.2609992 102.9094990  54.6979997
  41.2529992 101.4584990  54.3529997  40.5009992 103.4014990  53.4599997
  40.7229992 104.3804990  53.9369997  41.1159992 103.3144990  52.5389997
  39.0969992 103.0994990  53.3249997  38.6499992 103.0564990  54.3409997
  38.5999992 104.0254990  52.9649997  38.7939992 101.9824990  52.3329997
  38.7809992 101.0034990  52.8589997  37.7269992 101.9694990  52.0239997
  39.5109992 101.9034990  51.0279997  39.1799992 102.8284990  50.5089997
  40.6129992 102.0264990  51.1029997  39.1749992 100.7054990  50.0809997
  38.0749992 100.5664990  50.0119997  39.6319992 100.9354990  49.0949997
  39.7909992  99.3584990  50.5529997  39.4549992  99.1764990  51.5959997
  39.3489992  98.5624990  49.9159997  41.3229992  99.1264990  50.5009997
  41.6509992  99.8274990  51.2979997  41.6989992  98.1334990  50.8309997
  42.0229992  99.5124990  49.1799997  42.0089992 100.6224990  49.1619997
  43.1079992  99.2844990  49.2579997  41.5499992  98.8834990  47.8859997
  41.8259992  97.8264990  47.6839997  40.4489992  99.0314990  47.8869997
  42.0879992  99.5244990  46.6179997  41.7609992 100.5854990  46.5809997
  43.1909992  99.4094990  46.5549997  41.5859992  98.8344990  45.4179997
  41.8429992  97.7644990  45.5709997  40.4879992  98.9754990  45.3239997
  42.3989992  99.2114990  44.1269997  42.3249992 100.2784990  43.8259997
  43.4649992  99.0854990  44.4109997  41.8679992  98.3564990  42.9359997
  41.9829992  97.1734990  42.8049997  41.1459992  99.1004990  42.2099997
  40.5619992  98.6344990  40.9669997  41.2899992  98.6964990  40.1299997
  40.1099992  97.6284990  41.0989997  39.4789992  99.7904990  40.5849997
  38.8369992  99.4904990  39.7289997  40.1239992 101.1674990  40.3029997
  40.6019992 101.5344990  41.2359997  40.9319992 100.8934990  39.5919997
  39.1689992 102.0514990  39.7699997  39.1469992 102.4134990  38.2499997
  38.6669992 101.0794990  37.5619997  39.1099992 100.8624990  36.1869997
  38.9259992 101.8094990  35.6369997  40.1519992 100.4924990  36.0689997
  38.2679992  99.8724990  35.4509997  37.2089992 100.0094990  35.6159997
  38.4829992  99.9034990  34.3929997  38.5009992  98.4634990  35.7629997
  37.4719992  97.6284990  35.0249997  36.5109992  97.9614990  35.3889997
  37.5879992  97.9624990  34.0039997  37.7219992  96.5914990  35.1899997
  39.8889992  98.0394990  35.2989997  40.0689992  98.0754990  34.2349997
  40.6309992  98.6824990  35.7489997  40.1679992  97.0454990  35.6159997
  38.3449992  98.0924990  37.2499997  38.6319992  97.0714990  37.4529997
  37.3059992  98.2554990  37.4949997  38.8829992  98.8624990  37.7819997
  38.0579992 103.4154990  38.0589997  40.5469992 102.7894990  37.8549997
  38.6049992 100.0914990  41.7389997  37.5339992  99.2664990  41.8129997
  37.1009992  98.5704990  40.9199997  36.8309992  99.2924990  43.1969997
  36.0259992 100.0384990  43.0219997  37.6119992  99.6594990  43.8969997
  36.2379992  97.9474990  43.5659997  35.7149992  97.4894990  42.6979997
  35.3909992  98.1434990  44.2569997  37.1709992  96.9724990  44.2089997
  38.1699992  97.0234990  43.7249997  36.7619992  95.9494990  44.0629997
  37.1789992  97.1554990  45.7379997  36.1559992  97.3654990  46.1169997
  37.7789992  98.0494990  46.0129997  37.7779992  95.9894990  46.5859997
  38.8229992  95.7334990  46.3069997  37.1929992  95.0884990  46.3049997
  37.7799992  96.2464990  48.1039997  36.8409992  96.8014990  48.3159997
  38.4569992  97.0464990  48.4719997  37.9609992  95.0104990  48.9869997
  38.8979992  94.5484990  48.6079997  37.1449992  94.3284990  48.6639997
  38.1379992  94.9474990  50.4669997  39.0619992  94.4924990  50.8519997
  37.2539992  95.3494990  51.3919997  37.3999992  95.1344990  52.4599997
  35.9069992  95.9514990  51.1149997  35.1669992  95.3114990  51.6399997
  35.5469992  95.9954990  50.0649997  35.5309992  97.3454990  51.5569997
  34.4569992  97.4874990  51.3119997  36.2439992  98.0384990  51.0619997
  35.8859992  97.5834990  53.0549997  36.9579992  97.3134990  53.1669997
  35.3369992  96.8864990  53.7249997  35.5939992  99.0084990  53.6739997
  34.5079992  99.2254990  53.5859997  36.1389992  99.7864990  53.0989997
  36.0009992  99.1414990  55.1689997  37.0389992  99.5374990  55.1659997
  35.8289992  98.2554990  55.8169997  35.1889992 100.2054990  55.9319997
  34.1539992  99.8344990  56.0909997  35.2919992 101.1174990  55.3059997
  35.6329992 100.6374990  57.2949997  35.4189992  99.7844990  57.9739997
  34.8909992 101.4044990  57.5999997  37.0959992 101.0804990  57.3559997
  37.2979992 101.8874990  58.0929997  37.3539992 101.5794990  56.3979997
  37.8239992 100.2444990  57.2809997  75.5629992  25.8814990  57.7889997
  74.9809992  25.8834990  58.7349997  74.9149992  25.5494990  56.9489997
  75.7409992  26.9424990  57.5109997  76.9649992  25.1344990  57.7729997
  77.6449992  25.4124990  58.6069997  76.6749992  24.0634990  57.8319997
  77.6369992  25.2144990  56.4199997  76.9139992  25.3914990  55.5949997
  78.2839992  26.1094990  56.5419997  78.6379992  24.1874990  56.0479997
  79.3459992  24.1664990  56.9029997  78.0249992  23.2614990  56.0029997
  79.5189992  24.3604990  54.7609997  78.8249992  24.3304990  53.8939997
  79.9489992  25.3844990  54.7769997  80.6999992  23.3884990  54.6079997
  81.2069992  23.4814990  55.5919997  80.3139992  22.3664990  54.4029997
  81.7129992  23.7984990  53.5719997  82.2339992  24.7204990  53.9089997
  82.4749992  23.0034990  53.4229997  81.0849992  24.0924990  52.2089997
  81.2119992  23.1034990  51.7199997  79.9839992  24.2384990  52.2209997
  81.6859992  25.2354990  51.4179997  81.4439992  26.1914990  51.9289997
  82.7909992  25.1434990  51.3469997  81.0789992  25.1834990  50.0169997
  81.2529992  24.1014990  49.8289997  79.9719992  25.2774990  50.0289997
  81.6979992  25.9704990  48.8399997  81.3649992  27.0174990  49.0039997
  82.8009992  26.0944990  48.9009997  81.1319992  25.7384990  47.4159997
  80.0369992  25.5704990  47.3359997  81.3559992  26.6894990  46.8869997
  81.8299992  24.7224990  46.5439997  82.9299992  24.7954990  46.6849997
  81.5109992  23.7304990  46.9279997  81.6859992  25.0154990  45.0529997
  80.6019992  25.0024990  44.8119997  81.9669992  26.0794990  44.8969997
  82.3249992  23.9594990  44.1749997  82.9029992  24.3924990  43.3309997
  83.0369992  23.3604990  44.7829997  81.2559992  23.1074990  43.5479997
  80.4739992  22.3854990  44.1199997  81.3379992  23.2234990  42.2579997
  80.3539992  22.5334990  41.4569997  80.8279992  22.4494990  40.4559997
  80.1309992  21.5034990  41.8099997  79.1029992  23.4274990  41.2119997
  78.5149992  22.9164990  40.4199997  79.6339992  24.7314990  40.5589997
  80.2329992  25.2474990  41.3399997  80.4149992  24.4084990  39.8369997
  78.7099992  25.5614990  39.9449997  79.2169992  26.7024990  39.0259997
  78.0979992  26.8974990  37.9529997  77.9049992  25.8944990  36.8899997
  78.3379992  24.9084990  37.1609997  76.8219992  25.7844990  36.6659997
  78.6319992  26.3064990  35.4819997  79.6549992  26.1304990  35.7799997
  78.1379992  25.5844990  34.8479997  78.5569992  27.7234990  34.8539997
  77.1769992  28.2334990  34.8159997  76.6949992  28.1644990  35.7799997
  77.3189992  29.2674990  34.5399997  76.5149992  27.6584990  34.1849997
  79.2189992  28.5984990  35.8339997  79.2609992  29.5634990  35.3509997
  78.6679992  28.6914990  36.7589997  80.1539992  28.0904990  36.0189997
  79.2829992  27.6994990  33.5889997  78.7829992  27.0404990  32.8949997
  80.3109992  27.4374990  33.7929997  79.2309992  28.7174990  33.2309997
  79.2569992  27.9284990  39.7589997  80.4739992  26.3144990  38.3239997
  78.3509992  23.7234990  42.4229997  77.1699992  23.1234990  42.6739997
  76.6879992  22.2574990  41.9419997  76.6219992  23.6134990  44.0339997
  75.5149992  23.5344990  43.9829997  76.8609992  24.6564990  44.3349997
  77.0199992  22.6354990  45.2149997  77.9409992  22.0784990  44.9409997
  76.1989992  21.9584990  45.5349997  77.5349992  23.4594990  46.4589997
  76.6619992  23.9794990  46.9099997  78.2949992  24.2364990  46.2279997
  77.9839992  22.5634990  47.6689997  79.0179992  22.2194990  47.4539997
  77.2869992  21.7024990  47.7459997  77.9989992  23.2734990  48.9659997
  78.6119992  24.1944990  48.8619997  78.5259992  22.6194990  49.6939997
  76.5809992  23.6524990  49.5369997  76.1749992  22.6874990  49.9079997
  75.9289992  24.0324990  48.7209997  76.7569992  24.4164990  50.8909997
  77.2729992  25.3474990  50.5709997  77.5649992  23.9474990  51.4929997
  75.4969992  24.5554990  51.6719997  75.2239992  23.7994990  52.4239997
  74.6709992  25.5764990  51.5489997  73.8349992  25.7134990  52.2509997
  74.7599992  26.7604990  50.6479997  73.7739992  26.8604990  50.1449997
  75.5609992  26.6294990  49.8889997  75.2069992  28.0294990  51.4029997
  74.4879992  28.3804990  52.1739997  75.2279992  28.8184990  50.6209997
  76.6819992  28.0894990  51.7809997  77.0739992  29.0954990  51.5209997
  77.4409992  27.4304990  51.3079997  77.0149992  27.9544990  53.3289997
  77.1459992  26.8814990  53.5849997  76.0979992  28.3274990  53.8329997
  78.1839992  28.7794990  53.9449997  78.3769992  28.5144990  55.0059997
  77.8339992  29.8274990  53.8229997  79.5339992  28.5004990  53.2839997
  79.5079992  29.0014990  52.2929997  79.6349992  27.3974990  53.3609997
  80.7229992  29.0684990  54.0229997  81.6489992  28.6654990  53.5589997
  80.6239992  28.7704990  55.0889997  80.8449992  30.6144990  53.8479997
  81.8059992  30.9354990  54.3039997  79.9439992  31.1544990  54.2079997
  80.8529992  30.8434990  52.7599997  79.0389992 111.4874990  58.9859997
  80.1379992 111.3474990  58.9009997  78.6229992 110.4584990  59.0069997
  78.9159992 111.8974990  60.0109997  78.4849992 112.3974990  57.9039997
  78.4339992 111.7734990  56.9859997  77.4259992 112.7174990  57.9979997
  79.2849992 113.6904990  57.4739997  79.6429992 114.2784990  58.3459997
  80.1979992 113.3104990  56.9699997  78.6139992 114.5954990  56.4759997
  77.9249992 115.0684990  57.2079997  79.4369992 115.2704990  56.1559997
  77.8739992 113.8904990  55.3739997  78.6109992 113.1514990  54.9909997
  77.0459992 113.2694990  55.7769997  77.1229992 114.8494990  54.3799997
  76.0399992 114.9474990  54.6059997  77.5729992 115.8654990  54.3549997
  77.2339992 114.3494990  52.9329997  76.9089992 113.2954990  53.0629997
  76.4449992 114.7834990  52.2819997  78.5139992 114.3474990  52.1729997
  78.4499992 115.1124990  51.3699997  79.2939992 114.7264990  52.8679997
  79.0369992 112.9794990  51.6039997  79.3569992 112.4064990  52.4999997
  78.1769992 112.5964990  51.0149997  80.2439992 113.0564990  50.5809997
  80.0569992 114.0314990  50.0829997  81.2119992 113.2944990  51.0709997
  80.3649992 111.9014990  49.6169997  81.0539992 111.0634990  49.8579997
  79.3289992 111.5184990  49.4959997  80.7709992 112.4264990  48.2119997
  80.1039992 113.3054990  48.0809997  81.7619992 112.9144990  48.3359997
  80.7039992 111.3544990  47.0649997  81.5939992 110.6884990  47.0839997
  79.7659992 110.7924990  47.2609997  80.4709992 111.6574990  45.5839997
  79.9499992 110.7784990  45.1479997  79.7489992 112.4994990  45.5399997
  81.7349992 112.0264990  44.7799997  82.0739992 113.0114990  45.1649997
  82.5679992 111.3044990  44.9099997  81.4989992 112.1094990  43.2499997
  81.0489992 113.1014990  42.6919997  81.6389992 110.9194990  42.7059997
  81.4709992 110.8694990  41.3059997  81.8189992 111.8224990  40.8539997
  82.1589992 110.0804990  40.9319997  80.0219992 110.5844990  40.8709997
  79.6959992 109.6504990  41.3769997  80.0579992 110.1934990  39.4389997
  80.9499992 110.5554990  38.8849997  80.2189992 109.0954990  39.3859997
  78.8409992 110.5514990  38.7889997  78.6309992 111.8214990  37.7729997
  76.9939992 111.7974990  37.3849997  76.1599992 112.7744990  38.0059997
  75.9599992 112.4854990  39.0599997  76.5519992 113.8134990  37.9739997
  74.7329992 112.7444990  37.4129997  74.3119992 111.7664990  37.5929997
  74.1849992 113.5344990  37.9049997  74.5719992 112.9734990  35.8869997
  75.1029992 111.7504990  35.0919997  75.2279992 112.0844990  34.0719997
  76.0319992 111.3554990  35.4739997  74.3739992 110.9544990  35.0789997
  73.0769992 113.2124990  35.5879997  72.5589992 112.3554990  35.9929997
  72.7889992 114.0474990  36.2099997  72.9309992 113.3264990  34.5239997
  75.3449992 114.2084990  35.4209997  74.6219992 115.0074990  35.3459997
  75.6199992 113.9794990  34.4019997  76.2449992 114.4744990  35.9549997
  79.0059992 112.9954990  38.5359997  79.4519992 111.5184990  36.5809997
  79.1399992 111.7494990  41.0529997  78.0189992 111.4254990  41.7209997
  77.6559992 110.3264990  41.9649997  77.2659992 112.7264990  41.9639997
  76.7279992 113.0174990  41.0359997  77.8939992 113.6314990  42.1089997
  76.1319992 112.4664990  42.9579997  75.5799992 111.5284990  42.7349997
  75.3179992 113.2214990  42.9189997  76.5569992 112.3804990  44.4319997
  77.4029992 111.6674990  44.5369997  75.6959992 112.1524990  45.0959997
  77.1559992 113.7404990  44.9969997  76.3269992 114.4434990  44.7659997
  78.0999992 113.9604990  44.4549997  77.4339992 113.8874990  46.4949997
  78.0829992 114.7854990  46.5849997  77.8979992 112.9194990  46.7809997
  76.1439992 114.2154990  47.2029997  75.4449992 113.5894990  46.6089997
  75.7739992 115.2334990  46.9539997  76.0279992 113.8714990  48.6959997
  76.8309992 114.4994990  49.1379997  76.3489992 112.8154990  48.8279997
  74.6549992 114.3374990  49.3219997  74.3289992 115.3604990  49.0829997
  73.7859992 113.5234990  49.9189997  72.8609992 113.9314990  50.3509997
  73.9529992 111.9644990  50.1159997  74.4099992 111.5494990  49.1919997
  72.9669992 111.4604990  50.1989997  74.8159992 111.7474990  51.3789997
  74.2179992 112.0134990  52.2769997  75.8439992 112.1614990  51.3049997
  74.9229992 110.2264990  51.5109997  75.0849992 109.7854990  50.5049997
  74.0469992 109.7914990  52.0379997  76.1199992 109.6964990  52.3549997
  77.0909992 110.0664990  51.9599997  76.0929992 108.5884990  52.2739997
  75.9829992 110.0504990  53.8059997  75.3409992 109.3074990  54.3249997
  75.5299992 111.0554990  53.9469997  77.4269992 110.0704990  54.4769997
  77.3089992 110.1454990  55.5789997  78.0479992 110.9654990  54.2619997
  78.2139992 108.8924990  54.2099997  78.5699992 108.9414990  53.1579997
  77.6039992 107.9694990  54.3109997  79.4489992 108.7794990  55.0959997
  79.2769992 108.3654990  56.1129997  79.8999992 109.7934990  55.0369997
  80.0729992 108.0574990  54.5269997  26.0559992  58.6614990  53.3739997
  25.1249992  59.2604990  53.2739997  26.6249992  58.4704990  52.4389997
  26.7479992  59.1864990  54.0679997  25.6869992  57.2644990  53.7479997
  26.5619992  56.6154990  53.5309997  25.6019992  57.1634990  54.8509997
  24.5439992  56.7424990  52.8179997  23.6699992  57.4274990  52.8369997
  24.9299992  56.6984990  51.7759997  23.8399992  55.4524990  53.2589997
  24.5889992  54.6724990  53.5129997  23.2639992  55.6144990  54.1939997
  22.8489992  54.8834990  52.1989997  22.2889992  53.9854990  52.5349997
  21.9559992  55.5384990  52.1109997  23.3829992  54.3904990  50.8059997
  23.6009992  55.2854990  50.1849997  24.3449992  53.8544990  50.9499997
  22.3909992  53.4704990  50.0589997  22.1819992  52.5664990  50.6719997
  21.4869992  54.0714990  49.8229997  22.9929992  52.9544990  48.6899997
  24.0899992  52.7864990  48.7479997  22.4319992  52.0114990  48.5149997
  22.8089992  53.9394990  47.5269997  22.4379992  53.2504990  46.7389997
  21.9669992  54.6544990  47.6409997  24.1389992  54.5734990  47.1419997
  24.4489992  55.3064990  47.9169997  24.9059992  53.7734990  47.0699997
  24.0849992  55.4634990  45.8959997  23.3419992  56.2814990  46.0109997
  25.0959992  55.8594990  45.6589997  23.5719992  54.7234990  44.6189997
  24.0819992  53.7364990  44.6409997  22.5029992  54.4514990  44.7509997
  23.6949992  55.4554990  43.2309997  24.7619992  55.3884990  42.9289997
  23.1149992  54.7994990  42.5479997  23.1159992  56.9224990  43.1759997
  22.0709992  56.8664990  43.5479997  23.7159992  57.5634990  43.8569997
  23.0909992  57.4604990  41.6819997  22.6229992  56.6704990  41.0559997
  22.3669992  58.3034990  41.6729997  24.4439992  58.0404990  41.2519997
  24.9129992  59.1354990  41.4729997  25.0849992  57.0564990  40.6199997
  26.4889992  57.4274990  40.4389997  26.6669992  58.1374990  39.6029997
  26.9839992  57.8534990  41.3379997  27.2219992  56.0574990  40.0439997
  28.3209992  56.1774990  39.9349997  26.4999992  55.5714990  38.7479997
  25.4089992  55.7214990  38.8939997  26.8289992  56.0994990  37.8279997
  26.8579992  54.1904990  38.5099997  25.9469992  52.9574990  38.6209997
  25.4129992  52.6954990  37.1349997  25.9399992  53.1994990  35.9739997
  26.5619992  54.0994990  36.1669997  26.5889992  52.4504990  35.4709997
  24.7669992  53.6754990  35.0139997  25.2059992  54.2304990  34.1969997
  24.1809992  52.8444990  34.6509997  23.6779992  54.5624990  35.5229997
  22.6429992  54.7864990  34.4769997  23.0769992  55.2064990  33.5819997
  22.0929992  53.8674990  34.3329997  21.9379992  55.5264990  34.8259997
  23.0039992  53.8954990  36.6449997  22.2059992  54.4114990  37.1579997
  22.5189992  53.0154990  36.2469997  23.8109992  53.5854990  37.2919997
  24.1909992  55.9974990  36.0309997  24.9579992  55.7854990  36.7609997
  23.4139992  56.6024990  36.4749997  24.6559992  56.5324990  35.2169997
  26.7619992  51.8354990  39.0819997  24.8009992  53.3294990  39.4599997
  27.0609992  55.0544990  41.1359997  27.9879992  55.1184990  42.1109997
  28.8049992  56.0824990  42.2679997  27.7489992  53.9354990  43.0929997
  26.7679992  54.0694990  43.5969997  28.4469992  53.9724990  43.9569997
  27.6809992  52.5894990  42.3319997  28.5339992  52.4324990  41.6379997
  26.7539992  52.5584990  41.7209997  27.6629992  51.4074990  43.3739997
  28.4469992  51.5264990  44.1519997  28.1219992  50.5534990  42.8309997
  26.2559992  51.1574990  44.0059997  25.4249992  51.3724990  43.2999997
  26.2249992  51.8584990  44.8669997  26.1909992  49.7424990  44.6439997
  27.1189992  49.3554990  45.1159997  25.9839992  49.0774990  43.7779997
  25.0279992  49.4554990  45.6149997  25.0009992  48.3534990  45.7509997
  24.0729992  49.6494990  45.0819997  25.0179992  50.2964990  46.8749997
  24.0979992  50.2624990  47.4959997  25.0939992  51.3494990  46.5269997
  26.0719992  49.9204990  47.8409997  25.8649992  49.0334990  48.4569997
  27.2319992  50.5584990  47.9459997  27.9729992  50.1054990  48.6209997
  27.7589992  51.8064990  47.2309997  26.9819992  52.2544990  46.5759997
  28.6119992  51.4164990  46.6369997  28.0709992  52.9584990  48.2229997
  27.1439992  53.1464990  48.8059997  28.3619992  53.8854990  47.6859997
  29.2099992  52.7554990  49.2149997  30.0149992  52.1454990  48.7519997
  28.8589992  52.0604990  50.0079997  29.7019992  54.0284990  49.9529997
  30.2469992  54.6684990  49.2259997  30.4449992  53.7094990  50.7149997
  28.5359992  54.8604990  50.5979997  27.9149992  55.2664990  49.7709997
  29.0319992  55.7084990  51.1159997  27.7939992  54.1954990  51.6889997
  27.3499992  53.2684990  51.2669997  26.9289992  54.8224990  51.9939997
  28.4519992  53.8084990  53.0549997  29.1799992  52.9824990  52.9039997
  27.6869992  53.3874990  53.7419997  29.1779992  54.9584990  53.8129997
  28.4329992  55.7594990  54.0039997  30.0699992  55.4584990  53.3779997
  29.6689992  54.4824990  54.6889997 123.2639992  58.9534990  53.7929997
 122.8919992  59.5114990  54.6789997 124.2099992  59.4264990  53.4529997
 123.2419992  57.8824990  54.0889997 122.3309992  59.0844990  52.5789997
 121.2869992  58.8084990  52.8419997 122.2789992  60.1644990  52.3229997
 122.9269992  58.3204990  51.3509997 122.2669992  58.5194990  50.4799997
 123.9909992  58.5944990  51.1879997 123.0589992  56.7544990  51.4289997
 123.6499992  56.3974990  52.2989997 122.0869992  56.2414990  51.5919997
 123.6819992  56.1184990  50.0099997 124.7589992  56.3824990  49.9429997
 123.5949992  55.0114990  49.9739997 123.1399992  56.6224990  48.6389997
 122.0599992  56.4004990  48.5009997 123.1319992  57.7264990  48.5109997
 123.9539992  55.9344990  47.4529997 125.0169992  56.2254990  47.5889997
 123.7529992  54.8474990  47.5579997 123.4509992  56.4774990  46.1339997
 122.4289992  56.1354990  45.8619997 123.4849992  57.5804990  46.2599997
 124.2679992  55.9844990  44.9459997 125.2639992  56.4584990  45.0799997
 124.1849992  54.8774990  44.9889997 123.7329992  56.3664990  43.5449997
 122.7909992  55.8004990  43.3819997 123.4779992  57.4354990  43.3849997
 124.7879992  56.0784990  42.3519997 125.6959992  56.6894990  42.5469997
 125.0859992  55.0114990  42.4289997 124.0889992  56.3764990  40.9359997
 123.3179992  57.1764990  40.9269997 124.7779992  56.6834990  40.1199997
 123.4589992  55.1194990  40.4379997 124.2719992  54.4164990  40.1549997
 122.9639992  54.4534990  41.1769997 122.5729992  55.1984990  39.2149997
 122.9989992  55.8904990  38.4559997 122.4719992  54.1584990  38.8369997
 121.0979992  55.5344990  39.4939997 120.5989992  55.1554990  38.5759997
 120.7909992  54.8574990  40.3199997 120.8109992  56.9874990  39.7519997
 120.5189992  57.4514990  40.8359997 120.7909992  57.6064990  38.5749997
 120.5329992  58.9844990  38.5629997 119.8739992  59.1604990  37.6859997
 120.1549992  59.4924990  39.4749997 121.8069992  59.7634990  38.2689997
 121.5649992  60.8354990  38.1069997 122.3439992  59.2954990  36.8749997
 121.4229992  59.0454990  36.3079997 122.7869992  60.1474990  36.3159997
 123.0979992  58.0124990  36.9349997 123.8929992  57.6154990  35.6479997
 125.2989992  58.4174990  35.6899997 125.4209992  59.7274990  36.1699997
 126.3249992  60.1314990  35.6649997 124.6009992  60.4294990  35.9049997
 125.6399992  59.8414990  37.7619997 125.8159992  60.9064990  37.7929997
 124.7119992  59.5094990  38.2039997 126.8319992  59.1584990  38.3549997
 126.8709992  57.6474990  38.1549997 126.7329992  57.4464990  37.1029997
 127.7649992  57.1654990  38.5219997 126.0189992  57.1194990  38.5569997
 128.1389992  59.6834990  37.7519997 128.9429992  59.0344990  38.0669997
 128.1419992  59.5534990  36.6799997 128.3189992  60.6684990  38.1559997
 126.8799992  59.4234990  39.8289997 127.6779992  58.8364990  40.2579997
 125.9679992  59.1864990  40.3579997 127.1129992  60.4594990  40.0219997
 124.1709992  56.1564990  35.7379997 123.1669992  58.0844990  34.4379997
 122.8129992  59.5764990  39.2829997 122.6809992  60.3124990  40.3849997
 121.8319992  61.1824990  40.5089997 123.6279992  59.8854990  41.4699997
 124.6989992  59.8514990  41.1739997 123.3809992  58.9094990  41.9399997
 123.6389992  60.7854990  42.7169997 122.6519992  61.1024990  43.1149997
 123.9509992  61.7894990  42.3579997 124.6499992  60.4464990  43.7579997
 125.6479992  60.1674990  43.3589997 124.1559992  59.5584990  44.2069997
 124.7119992  61.5854990  44.8069997 123.8929992  62.3354990  44.8239997
 125.4919992  62.2294990  44.3479997 125.0469992  61.2004990  46.2349997
 125.3779992  62.1564990  46.6949997 125.9239992  60.5254990  46.3279997
 123.8499992  60.6964990  47.0699997 123.7069992  59.5994990  46.9669997
 122.9239992  61.0774990  46.5889997 123.9589992  60.9364990  48.5479997
 123.0129992  60.4984990  48.9319997 123.9989992  62.0334990  48.7149997
 125.0339992  60.1554990  49.2209997 124.9659992  59.0824990  48.9879997
 126.0909992  60.6374990  49.8899997 126.7899992  59.9544990  50.3949997
 126.4449992  62.0944990  50.1399997 126.8409992  62.5364990  49.2009997
 127.2389992  62.0374990  50.9139997 125.5359992  63.1864990  50.7539997
 124.5919992  63.3134990  50.1829997 126.0849992  64.1514990  50.7219997
 125.1839992  62.9244990  52.1989997 126.1489992  62.8304990  52.7419997
 124.5619992  62.0144990  52.3409997 124.2889992  64.0734990  52.7819997
 123.3609992  64.0254990  52.1729997 124.6879992  65.0704990  52.4999997
 123.7989992  63.9174990  54.3169997 123.3639992  62.8964990  54.3789997
 123.0989992  64.7794990  54.3579997 124.8179992  64.0674990  55.4589997
 125.6639992  64.6894990  55.0969997 125.1409992  63.0654990  55.8109997
 124.0169992  64.6914990  56.6329997 123.2019992  64.0384990  57.0109997
 123.7439992  65.7314990  56.3529997 124.9139992  64.9044990  57.8379997
 125.8929992  65.3674990  57.5899997 125.2899992  63.9264990  58.2079997
 124.4789992  65.2624990  58.7959997 115.5049992  42.3814990  53.9939997
 115.9789992  42.2494990  54.9899997 115.0279992  41.4274990  53.6839997
 114.8069992  43.2464990  54.0049997 116.5699992  42.5284990  52.9799997
 117.3059992  41.7074990  53.1159997 116.1999992  42.5094990  51.9329997
 117.4819992  43.7754990  53.1569997 117.9989992  43.8244990  54.1389997
 118.3389992  43.6524990  52.4609997 116.7359992  45.0484990  52.9059997
 116.2499992  45.1534990  51.9129997 115.8599992  45.0994990  53.5879997
 117.7069992  46.2404990  53.0739997 118.2709992  46.0084990  54.0029997
 118.3609992  46.1734990  52.1779997 117.0439992  47.5774990  53.1109997
 116.4259992  47.6194990  54.0329997 117.7929992  48.3614990  53.3519997
 116.2739992  48.1194990  51.9029997 115.2369992  47.7244990  51.8399997
 116.1599992  49.2174990  52.0369997 117.0439992  47.8374990  50.5789997
 117.9549992  48.4734990  50.5629997 117.1829992  46.7364990  50.5189997
 116.2609992  48.3564990  49.3309997 116.1309992  49.4514990  49.4659997
 116.9009992  48.3924990  48.4229997 114.8639992  47.7524990  49.0449997
 114.1719992  48.1294990  49.8279997 114.4099992  48.0634990  48.0799997
 114.7059992  46.2484990  49.2839997 114.9559992  45.8254990  50.2809997
 113.6159992  46.0924990  49.1389997 115.3699992  45.5204990  48.1319997
 114.8899992  45.7914990  47.1679997 116.4199992  45.8764990  48.0539997
 115.3809992  43.9724990  48.3339997 115.9599992  43.6354990  49.2199997
 114.3219992  43.7344990  48.5699997 115.6319992  42.9944990  47.0999997
 115.9099992  41.9444990  47.3339997 114.7789992  42.9854990  46.3879997
 116.8109992  43.6234990  46.2789997 116.6129992  44.6644990  45.9439997
 117.7169992  43.6084990  46.9219997 117.2189992  42.7834990  45.0189997
 117.4599992  41.5784990  45.0099997 117.0209992  43.4984990  43.9899997
 117.3309992  42.8564990  42.7329997 118.2519992  42.2474990  42.8549997
 116.5169992  42.1484990  42.4679997 117.6809992  43.8674990  41.5439997
 116.9749992  44.7234990  41.4799997 117.8589992  43.2044990  40.1659997
 118.7509992  42.5484990  40.0749997 117.0619992  42.4374990  40.0639997
 117.8659992  44.1884990  39.1179997 119.1249992  44.5284990  38.3099997
 118.5189992  45.4184990  37.1329997 117.2589992  45.3544990  36.5579997
 116.9319992  44.3494990  36.2169997 116.5529992  45.6784990  37.3519997
 117.1749992  46.4074990  35.4179997 117.8209992  46.0924990  34.6119997
 116.1619992  46.4534990  35.0449997 117.6359992  47.8354990  35.7079997
 119.0939992  47.9784990  36.0479997 119.4319992  49.0004990  36.1329997
 119.1969992  47.4934990  37.0079997 119.7069992  47.4864990  35.3059997
 117.4109992  48.6484990  34.4599997 118.0009992  48.3904990  33.5929997
 116.3819992  48.6084990  34.1339997 117.6859992  49.6704990  34.6759997
 116.8599992  48.5324990  36.8639997 115.8359992  48.7854990  36.6319997
 117.4459992  49.3474990  37.2629997 116.6999992  47.6924990  37.5239997
 120.0009992  45.3154990  39.1659997 119.7649992  43.3734990  37.6879997
 118.9139992  44.5204990  41.9129997 118.7759992  45.4524990  42.8609997
 117.7469992  45.8204990  43.3249997 120.1469992  46.0434990  43.2669997
 120.0509992  46.8164990  44.0589997 120.6149992  46.6294990  42.4479997
 121.0639992  44.9164990  43.8579997 122.1039992  45.2844990  43.9859997
 120.9589992  43.9774990  43.2729997 120.6419992  44.7284990  45.3139997
 121.0479992  43.7744990  45.7129997 119.5499992  44.5344990  45.3849997
 121.1239992  45.7974990  46.2759997 120.5969992  46.7754990  46.2829997
 122.2019992  45.9634990  46.0649997 121.0209992  45.3764990  47.7579997
 121.6439992  46.0784990  48.3529997 121.3809992  44.3284990  47.8259997
 119.6169992  45.3054990  48.3449997 118.8699992  44.9784990  47.5899997
 119.3489992  46.2914990  48.7819997 119.3739992  44.3764990  49.6299997
 118.3019992  44.5344990  49.8729997 120.0259992  44.7194990  50.4619997
 119.5929992  42.9494990  49.2119997 118.7859992  42.5584990  48.5749997
 120.5709992  42.1844990  49.7109997 120.4629992  41.1074990  49.5119997
 121.6719992  42.5904990  50.6989997 122.1549992  43.5114990  50.3089997
 122.4139992  41.7734990  50.5699997 121.4269992  42.7514990  52.2079997
 120.6819992  41.9534990  52.4129997 120.9449992  43.7504990  52.2789997
 122.6199992  42.8154990  53.2489997 123.2629992  43.7084990  53.0899997
 123.2259992  41.9184990  52.9979997 122.3189992  42.6344990  54.7519997
 123.2709992  42.8564990  55.2789997 121.8299992  41.6474990  54.8939997
 121.2359992  43.7264990  55.1719997 121.1279992  43.5274990  56.2599997
 120.2659992  43.5454990  54.6619997 121.6489992  45.1774990  54.9419997
 121.5239992  45.4074990  53.8619997 122.6799992  45.5134990  55.1829997
 120.7929992  46.2114990  55.6749997 120.8609992  45.9844990  56.7609997
 119.7519992  46.2534990  55.2899997 121.2299992  47.6164990  55.5449997
 122.2859992  47.8154990  55.8299997 120.6149992  48.2794990  56.1889997
 120.9779992  47.9884990  54.5289997 124.9909992  75.9134990  58.6369997
 125.8569992  76.5704990  58.8669997 125.2339992  74.9494990  58.1409997
 124.4989992  75.8684990  59.6319997 124.0819992  76.6324990  57.6679997
 123.1219992  76.0804990  57.5779997 123.7739992  77.6034990  58.1119997
 124.5109992  77.1494990  56.2939997 125.4439992  77.7304990  56.4559997
 124.6469992  76.3334990  55.5539997 123.5589992  78.2704990  55.6939997
 123.3979992  79.0514990  56.4669997 124.1069992  78.6614990  54.8099997
 122.1929992  77.8184990  55.2619997 121.7559992  77.4294990  56.2059997
 121.6439992  78.7524990  55.0169997 122.1279992  76.7544990  54.1869997
 122.7829992  75.8844990  54.4069997 121.0819992  76.4084990  54.0449997
 122.7319992  77.2704990  52.7739997 123.7579992  77.6964990  52.7609997
 122.7629992  76.2834990  52.2629997 121.8169992  78.3004990  52.0979997
 120.7639992  78.0664990  52.3629997 122.1509992  79.3214990  52.3829997
 121.9899992  78.4154990  50.5649997 121.7139992  79.4834990  50.4389997
 123.0339992  78.1344990  50.3079997 121.0339992  77.5844990  49.7379997
 119.9989992  77.7034990  50.1219997 120.9709992  77.9574990  48.6929997
 121.3499992  76.0264990  49.5089997 121.4339992  75.4764990  50.4699997
 120.5999992  75.5034990  48.8779997 122.6489992  75.8784990  48.7799997
 122.7699992  76.6504990  47.9899997 123.4409992  75.8584990  49.5589997
 122.6509992  74.5444990  47.9979997 123.7049992  74.1944990  48.0109997
 121.9489992  73.8724990  48.5359997 122.2519992  74.5934990  46.5019997
 121.8509992  73.5714990  46.3329997 121.3589992  75.2294990  46.3249997
 123.4779992  74.9214990  45.6489997 123.8669992  75.8484990  46.1229997
 124.1909992  74.0954990  45.8579997 123.0609992  75.0974990  44.1909997
 121.8659992  74.8664990  43.7989997 124.0919992  75.5504990  43.4289997
 123.7139992  75.4144990  42.0169997 123.6659992  74.3434990  41.7269997
 122.8759992  76.0474990  41.6529997 124.8699992  76.0324990  41.1659997
 124.8509992  77.0914990  41.4999997 124.5619992  75.9374990  39.6479997
 123.4699992  75.7584990  39.5479997 124.6839992  76.9924990  39.3239997
 125.5199992  75.0744990  38.9469997 124.8859992  74.0484990  37.8619997
 125.1089992  74.7984990  36.5019997 126.2249992  75.6434990  36.3619997
 127.1769992  75.2564990  36.7849997 126.4379992  75.7404990  35.2759997
 125.8649992  77.0894990  36.8249997 125.6189992  77.0754990  37.8759997
 126.7619992  77.6914990  36.8209997 124.6319992  77.8454990  36.1679997
 125.0099992  78.4264990  34.8319997 125.0239992  77.5974990  34.1399997
 124.3469992  79.2634990  34.6689997 126.0049992  78.7994990  35.0259997
 123.3929992  76.9534990  36.0959997 123.6319992  76.0774990  35.5109997
 122.9709992  76.8034990  37.0789997 122.7109992  77.5504990  35.5089997
 124.3099992  78.9694990  37.0809997 125.0969992  79.7084990  37.0479997
 123.9299992  78.6864990  38.0519997 123.4619992  79.5054990  36.6819997
 125.6959992  72.7914990  37.7509997 123.4309992  74.0454990  38.0459997
 126.1159992  75.2754990  41.5309997 127.1559992  75.8024990  40.9359997
 127.1829992  76.8744990  40.3489997 128.4009992  74.9074990  41.1569997
 129.2029992  75.3344990  40.5179997 128.3089992  73.8684990  40.7739997
 128.6819992  74.8354990  42.6189997 128.7819992  75.8594990  43.0379997
 129.7039992  74.4034990  42.5589997 127.8749992  73.7934990  43.4159997
 127.2109992  73.1884990  42.7619997 127.1049992  74.4144990  43.9229997
 128.6859992  72.8714990  44.4039997 129.4009992  72.2704990  43.8029997
 127.9569992  72.1974990  44.9019997 129.4339992  73.5294990  45.6009997
 130.3819992  73.9524990  45.2049997 129.8299992  72.8074990  46.3459997
 128.6389992  74.6024990  46.3129997 128.2419992  75.4134990  45.6659997
 129.3609992  75.0574990  47.0239997 127.3029992  74.2054990  47.0509997
 127.6079992  73.2264990  47.4789997 126.5539992  73.8514990  46.3109997
 126.8159992  75.1494990  48.0859997 126.1239992  75.9304990  47.7389997
 126.8919992  75.1294990  49.4499997 126.3799992  75.9014990  50.0439997
 127.5599992  74.0614990  50.2659997 128.1889992  74.5214990  51.0579997
 128.2579992  73.4654990  49.6399997 126.5569992  73.0894990  50.8829997
 127.0949992  72.2414990  51.3589997 126.0239992  72.5864990  50.0469997
 125.6599992  73.6474990  51.9259997 125.0039992  72.9084990  52.4329997
 124.8929992  74.3024990  51.4609997 126.4069992  74.4964990  53.0279997
 125.5649992  75.0684990  53.4729997 127.1449992  75.1614990  52.5319997
 127.0659992  73.5994990  54.1689997 127.9729992  73.2174990  53.6529997
 126.3639992  72.7424990  54.2449997 127.2639992  74.2884990  55.5169997
 126.2839992  74.5304990  55.9809997 127.8659992  75.1984990  55.3059997
 128.0279992  73.3934990  56.5099997 127.3239992  72.5394990  56.6069997
 128.2129992  73.9244990  57.4679997 129.3799992  72.7954990  56.1039997
 129.3249992  72.2064990  55.1649997 129.8429992  72.2484990  56.9529997
 130.0989992  73.6264990  55.9399997  49.7919992  34.3804990  56.3119997
  50.4259992  34.6944990  55.4559997  50.3289992  34.7204990  57.2239997
  48.8539992  34.9754990  56.3059997  49.4879992  32.8604990  56.2789997
  50.4599992  32.3324990  56.1829997  49.0459992  32.5984990  57.2639997
  48.4549992  32.4034990  55.2009997  48.9399992  32.5374990  54.2109997
  48.2009992  31.3314990  55.3379997  47.1309992  33.1934990  55.2839997
  46.8609992  33.3824990  56.3459997  47.2069992  34.1864990  54.7909997
  45.9129992  32.5374990  54.6679997  45.6409992  31.7104990  55.3569997
  45.0959992  33.2894990  54.6609997  46.1979992  32.0434990  53.2579997
  46.6639992  32.8884990  52.7069997  46.9079992  31.1934990  53.3499997
  45.0439992  31.3804990  52.4299997  44.7179992  30.5874990  53.1369997
  44.3049992  32.1804990  52.2119997  45.5429992  30.7814990  51.1559997
  45.5629992  31.6704990  50.4909997  46.5469992  30.3394990  51.3349997
  44.6429992  29.6304990  50.5209997  44.6889992  28.7734990  51.2269997
  43.5939992  29.9764990  50.3989997  44.9549992  29.2514990  49.0789997
  44.1019992  28.5594990  48.9159997  44.8169992  30.1584990  48.4519997
  46.3489992  28.7004990  48.8059997  47.1129992  29.4654990  48.5509997
  46.6149992  28.0994990  49.7009997  46.2099992  27.8534990  47.5299997
  47.0849992  27.1724990  47.4559997  45.3589992  27.1654990  47.7219997
  46.2399992  28.6514990  46.2509997  45.4429992  29.4224990  46.3209997
  47.2389992  29.1264990  46.1509997  45.9979992  27.7854990  45.0129997
  46.7169992  26.9544990  45.1779997  45.0409992  27.2224990  44.9779997
  46.2819992  28.4434990  43.6559997  47.3049992  28.8764990  43.6509997
  46.3309992  27.7524990  42.7869997  45.2879992  29.4644990  43.2009997
  44.1279992  29.4374990  43.4579997  45.8449992  30.1904990  42.2009997
  44.9119992  31.0724990  41.5899997  44.1699992  30.4594990  41.0339997
  44.5139992  31.7684990  42.3589997  45.6729992  32.0874990  40.5349997
  44.9349992  32.8974990  40.3499997  45.9189992  31.3674990  39.1709997
  44.9989992  30.8564990  38.8149997  46.1329992  32.0984990  38.3629997
  46.8369992  30.3484990  39.3789997  48.3899992  30.4744990  38.9529997
  48.3699992  31.0764990  37.3979997  49.3559992  30.6054990  36.5379997
  49.4729992  31.3904990  35.7609997  50.3299992  30.4244990  37.0419997
  48.8359992  29.2964990  35.7419997  49.4589992  28.8084990  35.0079997
  48.7859992  28.4974990  36.4669997  47.4509992  29.4074990  35.1089997
  47.4069992  28.4204990  33.9709997  47.4769992  27.4224990  34.3799997
  46.5029992  28.5524990  33.3949997  48.1869992  28.5714990  33.2399997
  46.3189992  29.2254990  36.1589997  45.3479992  29.3444990  35.7009997
  46.4659992  28.2474990  36.5939997  46.4079992  30.0584990  36.8409997
  47.4019992  30.8464990  34.5569997  48.3039992  30.9974990  33.9829997
  47.2309992  31.5974990  35.3139997  46.5979992  30.8294990  33.8359997
  49.0979992  31.4354990  39.7709997  49.0279992  29.1264990  38.8949997
  46.8769992  32.6334990  41.0989997  46.7689992  33.5214990  42.0919997
  45.7829992  33.6444990  42.8229997  48.0429992  34.3614990  42.1519997
  47.7079992  35.3184990  42.6039997  48.3229992  34.4644990  41.0819997
  48.9609992  33.5634990  43.0549997  49.8969992  34.1614990  43.0859997
  49.3499992  32.5754990  42.7259997  48.5179992  33.4594990  44.4929997
  47.6659992  32.7864990  44.7289997  48.1769992  34.4964990  44.6999997
  49.5779992  33.1934990  45.5689997  49.3069992  33.7894990  46.4659997
  50.5749992  33.6354990  45.3559997  49.7569992  31.6664990  45.8899997
  49.6299992  31.1904990  44.8929997  48.9109992  31.4154990  46.5649997
  50.9939992  31.1914990  46.6409997  51.8879992  31.3484990  45.9999997
  50.8919992  30.1084990  46.8699997  51.3799992  32.0064990  47.8359997
  51.5549992  33.0764990  47.5959997  52.2859992  31.5344990  48.2729997
  50.3129992  31.9854990  48.8969997  49.5269992  32.7524990  48.8269997
  50.2749992  31.0974990  49.9119997  49.6089992  31.2854990  50.7669997
  51.2199992  29.9744990  50.2059997  52.1869992  30.3804990  50.5739997
  51.4349992  29.2744990  49.3709997  50.7289992  29.1734990  51.4699997
  50.8879992  29.8794990  52.3129997  51.4109992  28.3094990  51.6229997
  49.3459992  28.5054990  51.4389997  49.2329992  28.0074990  50.4519997
  48.4609992  29.1724990  51.3779997  48.9869992  27.5104990  52.5129997
  49.0379992  27.9974990  53.5099997  49.6209992  26.6004990  52.4429997
  47.4919992  26.9954990  52.4589997  47.2489992  26.4174990  51.5419997
  46.9079992  27.9394990  52.4099997  47.1779992  25.9954990  53.6569997
  48.1039992  25.4854990  53.9969997  46.4099992  25.2604990  53.3319997
  46.5399992  26.6444990  54.9129997  46.2289992  25.8014990  55.5649997
  45.5739992  27.0914990  54.5939997  47.3819992  27.6934990  55.5689997
  47.5449992  28.5984990  54.9449997  48.3929992  27.3434990  55.8689997
  46.8749992  28.1574990  56.4419997  22.9289992  64.4794990  55.5419997
  22.3509992  65.3624990  55.1979997  23.6709992  64.1954990  54.7649997
  23.3739992  64.8374990  56.4949997  22.0449992  63.2594990  55.7769997
  21.3759992  63.4784990  56.6359997  21.4489992  63.0704990  54.8579997
  22.8549992  61.9684990  55.9839997  23.6149992  61.9044990  55.1769997
  23.4169992  62.0534990  56.9389997  22.1099992  60.6044990  56.1729997
  22.8739992  59.9264990  56.6089997  21.2629992  60.7334990  56.8799997
  21.6689992  59.9954990  54.8499997  21.0749992  59.0774990  55.0469997
  21.0639992  60.8044990  54.3889997  22.8239992  59.7074990  53.9119997
  23.3489992  60.6454990  53.6339997  23.5689992  59.1864990  54.5509997
  22.5159992  58.9054990  52.6229997  23.5399992  58.4964990  52.4869997
  21.8079992  58.0954990  52.8989997  22.0849992  59.8654990  51.4479997
  21.0509992  60.2194990  51.6529997  22.6909992  60.7974990  51.4439997
  22.1259992  59.2124990  50.0459997  23.2189992  59.0974990  49.8809997
  21.5879992  58.2424990  50.0829997  21.5609992  60.1214990  48.8829997
  20.5329992  60.3694990  49.2239997  22.0819992  61.1034990  48.8639997
  21.5069992  59.4064990  47.5189997  22.4969992  59.0074990  47.2099997
  20.6799992  58.6644990  47.5399997  21.1439992  60.5144990  46.4429997
  20.1359992  60.9704990  46.5469997  21.7759992  61.4064990  46.6379997
  21.2679992  59.9734990  45.0609997  22.2979992  59.5714990  44.9539997
  20.6659992  59.0404990  45.0869997  20.7979992  60.9984990  44.0649997
  19.7469992  61.3164990  44.2329997  21.2749992  61.9764990  44.2909997
  21.1279992  60.4854990  42.6209997  22.2219992  60.4464990  42.4289997
  20.6639992  59.4774990  42.5809997  20.3009992  61.2114990  41.4579997
  19.4729992  62.0864990  41.7359997  20.5409992  60.6644990  40.3289997
  19.6869992  61.0414990  39.2209997  19.3569992  60.0644990  38.8049997
  18.7499992  61.5284990  39.5669997  20.4959992  61.9304990  38.2289997
  19.8269992  62.2614990  37.4059997  21.7439992  61.1184990  37.5939997
  21.2889992  60.1244990  37.4019997  22.1099992  61.6144990  36.6699997
  22.7569992  61.1244990  38.4779997  24.0279992  60.3634990  38.0699997
  24.9299992  61.4374990  37.2939997  25.2789992  62.6614990  37.9959997
  24.7629992  62.7094990  38.9789997  26.3889992  62.7084990  37.9629997
  24.8679992  63.9654990  37.1769997  23.8099992  64.1504990  37.2939997
  25.4839992  64.7054990  37.6659997  25.2409992  63.9004990  35.6689997
  24.2429992  63.1144990  34.7789997  24.1529992  62.1164990  35.1829997
  23.2839992  63.6014990  34.8789997  24.6779992  63.0904990  33.7909997
  25.2339992  65.3294990  35.1679997  25.5379992  65.4074990  34.1339997
  24.2309992  65.7284990  35.1229997  25.9159992  65.8324990  35.8379997
  26.6259992  63.4144990  35.4049997  27.3209992  64.1774990  35.7239997
  26.7239992  63.1154990  34.3719997  26.8959992  62.5914990  36.0499997
  24.7189992  60.0564990  39.3079997  23.7979992  59.2384990  37.1279997
  20.8689992  63.0954990  38.9729997  21.6439992  63.9674990  38.3289997
  21.8069992  64.0554990  37.1209997  22.1239992  64.9154990  39.4269997
  21.2779992  65.5634990  39.7399997  22.9859992  65.4564990  38.9789997
  22.4789992  64.1374990  40.6789997  23.1579992  63.3124990  40.3739997
  21.5959992  63.6634990  41.1589997  23.2809992  65.0274990  41.7109997
  23.9859992  65.7144990  41.1949997  23.9969992  64.3944990  42.2759997
  22.4319992  65.8204990  42.5729997  21.8459992  65.2264990  43.3059997
  21.6779992  66.2534990  41.8809997  23.0339992  67.0014990  43.4919997
  22.1799992  67.5014990  43.9959997  23.5159992  67.7334990  42.8099997
  24.1629992  66.6584990  44.5219997  25.0429992  67.3144990  44.3479997
  24.5759992  65.6354990  44.3899997  23.7599992  66.6584990  46.0139997
  23.4359992  67.7014990  46.2139997  24.7129992  66.4674990  46.5519997
  22.6779992  65.6434990  46.4249997  21.7499992  65.7844990  45.8529997
  22.7479992  64.6394990  47.2489997  21.8229992  64.0964990  47.4969997
  24.0279992  64.3114990  48.0799997  24.4509992  65.3114990  48.3169997
  24.8089992  63.7484990  47.5249997  23.7169992  63.6294990  49.3769997
  23.2339992  62.6434990  49.2069997  22.9359992  64.2014990  49.9219997
  24.9019992  63.5754990  50.4059997  25.5969992  62.9034990  49.8579997
  24.4529992  63.1604990  51.3329997  25.4669992  64.9234990  50.8799997
  24.6909992  65.6754990  51.1379997  25.9019992  65.4124990  49.9819997
  26.5719992  64.7994990  51.9729997  27.1529992  65.7444990  52.0419997
  27.2449992  63.9824990  51.6339997  26.1829992  64.5044990  53.4449997
  25.5079992  63.6264990  53.5269997  25.6689992  65.4794990  53.5809997
  27.3099992  64.4874990  54.5229997  27.7959992  65.4854990  54.4769997
  28.0789992  63.7834990  54.1379997  26.9119992  64.1864990  56.0059997
  27.8279992  64.3374990  56.6159997  26.5289992  63.1474990  56.0889997
  26.1399992  64.9264990  56.3059997  29.4699992  42.9824990  55.2919997
  29.4139992  43.8214990  54.5659997  30.1769992  42.1684990  55.0239997
  29.9449992  43.3534990  56.2249997  28.1679992  42.4144990  55.7449997
  28.1849992  41.7014990  56.5969997  27.5239992  43.2554990  56.0779997
  27.5309992  41.4824990  54.7009997  28.2739992  40.6674990  54.5679997
  26.5929992  40.9704990  55.0049997  27.2619992  42.2684990  53.4229997
  26.4019992  42.9084990  53.7159997  28.1599992  42.7474990  52.9769997
  26.7489992  41.3604990  52.2599997  27.3389992  40.4354990  52.0859997
  25.6949992  41.1434990  52.5369997  26.8129992  42.2014990  50.9679997
  26.3059992  43.1824990  51.0929997  27.8859992  42.2734990  50.6879997
  26.1059992  41.3654990  49.8949997  26.8789992  40.6294990  49.5879997
  25.2509992  40.8324990  50.3629997  25.6519992  42.2814990  48.7359997
  24.8069992  41.7994990  48.1989997  25.1829992  43.2244990  49.0889997
  26.7519992  42.6064990  47.6079997  27.7889992  42.7874990  47.9639997
  26.9569992  41.6584990  47.0669997  26.2739992  43.6094990  46.5469997
  25.2309992  43.4524990  46.1989997  26.3079992  44.6124990  47.0239997
  27.1159992  43.5734990  45.2449997  26.8249992  44.5174990  44.7379997
  28.1629992  43.7664990  45.5609997  26.8869992  42.3824990  44.2979997
  27.3999992  41.5334990  44.7999997  25.8129992  42.0984990  44.3309997
  27.4259992  42.5304990  42.8199997  27.1329992  43.4654990  42.2969997
  28.5269992  42.3854990  42.7899997  26.6989992  41.4424990  41.9179997
  26.5189992  40.5864990  42.6029997  25.7009992  41.7774990  41.5639997
  27.5019992  40.9164990  40.6429997  27.6259992  41.6894990  39.8559997
  28.4539992  40.5774990  41.1059997  26.9099992  39.7054990  39.8959997
  26.5539992  38.6284990  40.4099997  26.7619992  40.1214990  38.7129997
  26.3009992  39.2244990  37.6759997  27.2349992  39.0534990  37.0979997
  25.9249992  38.2464990  38.0439997  25.1549992  39.9454990  36.8849997
  24.9669992  39.2674990  36.0249997  25.6239992  41.3484990  36.3899997
  25.5299992  41.9774990  37.3009997  26.6869992  41.4254990  36.0749997
  24.7659992  42.0744990  35.4559997  25.3259992  43.4144990  34.9059997
  25.4879992  44.3024990  36.1599997  24.3839992  44.9964990  36.7929997
  23.9699992  45.6684990  36.0109997  23.6179992  44.2414990  37.0719997
  24.8669992  45.9504990  37.9309997  25.3359992  46.7814990  37.4239997
  23.9749992  46.2944990  38.4329997  25.8799992  45.5044990  38.9199997
  27.2359992  45.4104990  38.3959997  27.9409992  44.9934990  39.0999997
  27.2619992  44.8534990  37.4709997  27.5079992  46.4484990  38.2709997
  25.7859992  46.3244990  40.1499997  24.8879992  46.0824990  40.6989997
  26.6099992  46.0514990  40.7919997  25.9319992  47.3434990  39.8259997
  25.4259992  44.1574990  39.3709997  25.3449992  43.5164990  38.5059997
  24.4069992  44.1974990  39.7259997  26.0749992  43.6704990  40.0849997
  26.6509992  43.1254990  34.3879997  24.3379992  44.0564990  34.0009997
  24.0389992  40.1964990  37.6569997  22.8879992  40.3874990  37.1279997
  22.6009992  40.3264990  35.9359997  21.7869992  40.5014990  38.1849997
  21.2109992  39.5524990  38.1659997  21.1629992  41.3694990  37.8819997
  22.4179992  40.6724990  39.5949997  23.0259992  41.5994990  39.6679997
  23.1589992  39.8514990  39.7019997  21.3909992  40.7274990  40.7249997
  20.8349992  39.7704990  40.8269997  20.6779992  41.5694990  40.5939997
  22.1469992  40.9534990  42.0659997  22.7649992  41.8764990  42.0779997
  22.7729992  40.0814990  42.3499997  21.1779992  41.1524990  43.2369997
  20.4409992  40.3234990  43.1719997  20.6559992  42.1324990  43.2659997
  21.7769992  40.9584990  44.6729997  22.0269992  39.8804990  44.7709997
  20.9359992  41.1454990  45.3739997  22.9579992  41.8904990  45.0299997
  23.6689992  41.8204990  44.1789997  23.3919992  41.5064990  45.9779997
  22.3959992  43.2524990  45.1969997  22.7059992  44.0494990  44.5049997
  21.7759992  43.6964990  46.3129997  21.5099992  44.7634990  46.3439997
  21.4229992  43.0214990  47.5779997  21.9869992  42.0644990  47.5739997
  20.3539992  42.7304990  47.6629997  21.9069992  43.8524990  48.7669997
  21.1319992  44.6244990  48.9619997  22.8239992  44.4544990  48.5899997
  22.0829992  43.0534990  50.0389997  23.1179992  42.6764990  49.8959997
  21.3699992  42.2024990  50.0209997  22.0129992  43.9464990  51.3209997
  21.0389992  44.4814990  51.3569997  22.8169992  44.7114990  51.2739997
  22.1229992  43.2394990  52.7349997  21.2689992  42.5684990  52.9679997
  22.2049992  44.0474990  53.4929997  23.3659992  42.3854990  53.0199997
  24.2429992  43.0654990  52.9579997  23.3479992  41.7074990  52.1399997
  23.3739992  41.6374990  54.4019997  24.1889992  40.8864990  54.4779997
  22.4339992  41.0554990  54.2999997  23.5169992  42.6144990  55.5849997
  22.6799992  43.3414990  55.6609997  24.4949992  43.1414990  55.5709997
  23.6009992  42.0234990  56.5229997  23.8889992  73.2294990  54.8609997
  22.9169992  73.3824990  55.3769997  24.4499992  74.1824990  54.7579997
  24.4369992  72.6134990  55.6059997  23.7449992  72.5204990  53.4999997
  24.7399992  72.3444990  53.0379997  23.2499992  71.5474990  53.7039997
  22.8319992  73.2814990  52.4479997  21.9409992  73.6054990  53.0279997
  23.4039992  74.1674990  52.1009997  22.4979992  72.2454990  51.3499997
  22.0369992  71.4354990  51.9549997  21.7029992  72.6574990  50.6919997
  23.5779992  71.6474990  50.5009997  24.2799992  72.4464990  50.1789997
  24.0079992  70.8594990  51.1549997  23.1449992  70.9024990  49.2449997
  22.5749992  71.6364990  48.6359997  24.0299992  70.5704990  48.6599997
  22.1119992  69.8324990  49.3619997  21.1899992  70.1164990  49.9119997
  21.7279992  69.5114990  48.3699997  22.5959992  68.6054990  50.1379997
  22.8959992  68.8564990  51.1769997  21.7049992  67.9494990  50.0349997
  23.9069992  68.0264990  49.4749997  23.7149992  67.8054990  48.4029997
  24.7459992  68.7504990  49.5479997  24.2739992  66.6224990  49.9809997
  24.1909992  66.6154990  51.0889997  23.5249992  65.8924990  49.6079997
  25.7249992  66.2254990  49.4459997  26.5389992  66.9694990  49.5849997
  26.0539992  65.3154990  49.9909997  25.7969992  65.9974990  47.9219997
  26.6129992  65.2854990  47.6709997  24.9109992  65.4554990  47.5289997
  26.1839992  67.1544990  47.0119997  25.4459992  67.9834990  47.0609997
  27.1729992  67.5434990  47.3369997  26.4959992  66.9444990  45.4869997
  27.2959992  66.1734990  45.4519997  25.5999992  66.4434990  45.0619997
  26.8389992  68.2354990  44.7879997  26.0279992  68.9714990  44.9739997
  27.8489992  68.6284990  45.0339997  26.8829992  67.9034990  43.2819997
  27.0559992  66.8244990  42.7579997  26.8349992  69.1174990  42.6399997
  26.6399992  68.9904990  41.2379997  26.8649992  69.9734990  40.7729997
  27.3309992  68.2324990  40.8109997  25.1709992  68.6924990  40.9159997
  24.9879992  67.5974990  40.8789997  24.8419992  69.3074990  39.5089997
  25.5209992  70.1864990  39.4729997  25.0629992  68.5184990  38.7589997
  23.4309992  69.7114990  39.5309997  23.0799992  71.0324990  38.7559997
  23.8639992  70.7634990  37.4389997  23.4189992  70.7744990  36.0899997
  22.4739992  70.1894990  36.0779997  23.1069992  71.7994990  35.7989997
  24.5489992  70.4224990  35.1579997  24.7179992  69.3554990  35.1769997
  24.2319992  70.5814990  34.1379997  25.8439992  71.1834990  35.3079997
  25.6449992  72.6274990  35.0749997  24.9549992  72.8544990  35.8749997
  26.6449992  73.0354990  35.0969997  25.1459992  72.8504990  34.1439997
  26.4849992  70.8274990  36.6449997  27.4249992  71.3584990  36.6179997
  25.9179992  71.3184990  37.4219997  26.6769992  69.7854990  36.8489997
  26.9059992  70.7404990  34.3699997  27.7639992  70.3224990  34.8749997
  27.1399992  71.5464990  33.6909997  26.5259992  69.9924990  33.6879997
  21.5979992  71.0244990  38.5309997  23.6259992  72.1424990  39.5689997
  24.3369992  69.4054990  41.8689997  23.5799992  68.7184990  42.6819997
  23.6519992  67.5254990  42.9139997  22.6329992  69.6644990  43.4669997
  22.1079992  68.9924990  44.1799997  21.9279992  70.0714990  42.7119997
  23.4449992  70.6754990  44.2509997  24.2419992  70.1524990  44.8209997
  22.6989992  71.1054990  44.9529997  24.1339992  71.8634990  43.5479997
  23.4509992  72.3074990  42.7929997  25.0629992  71.5014990  43.0569997
  24.5289992  73.0464990  44.4199997  23.5999992  73.5594990  44.7489997
  25.0889992  73.8334990  43.8709997  25.4759992  72.6834990  45.5509997
  26.4849992  72.5304990  45.1119997  25.1619992  71.7334990  46.0349997
  25.4619992  73.6974990  46.7479997  24.4069992  73.9494990  46.9869997
  25.9839992  74.5994990  46.3629997  25.9629992  73.1724990  48.0589997
  25.4069992  72.2534990  48.3419997  25.8109992  73.9524990  48.8359997
  27.4309992  72.8064990  47.8019997  28.0589992  73.6614990  47.5119997
  28.1379992  71.6814990  48.0009997  29.2059992  71.7804990  47.7569997
  27.5999992  70.3594990  48.6089997  28.3279992  69.5234990  48.6749997
  26.8749992  69.8464990  47.9409997  27.1249992  70.3794990  50.1089997
  26.5319992  69.4444990  50.2009997  26.4559992  71.2354990  50.3409997
  28.3629992  70.5374990  51.0939997  28.8029992  71.5234990  50.8329997
  29.0669992  69.7154990  50.8419997  28.0129992  70.4914990  52.5539997
  27.4799992  71.4504990  52.7259997  28.9519992  70.5004990  53.1479997
  26.9769992  69.3904990  52.9809997  25.9679992  69.5664990  52.5509997
  26.8399992  69.4884990  54.0789997  27.5879992  67.9614990  52.8409997
  27.6999992  67.6544990  51.7789997  26.7609992  67.4404990  53.3689997
  28.7809992  67.6244990  53.7529997  29.6139992  68.3244990  53.5309997
  29.0719992  66.6504990  53.3049997  28.4439992  67.5884990  55.2359997
  27.7229992  68.4094990  55.4359997  29.3609992  67.7004990  55.8539997
  28.0069992  66.5974990  55.4809997 128.1349992  85.3204990  57.8429997
 128.7359992  84.4484990  58.1779997 128.1329992  86.1124990  58.6219997
 128.7029992  85.7614990  56.9959997 126.6959992  84.9354990  57.4049997
 126.3019992  84.2374990  58.1749997 126.0699992  85.8514990  57.3589997
 126.5469992  84.1184990  56.1219997 127.0619992  83.1474990  56.2859997
 125.4769992  83.9224990  55.8929997 127.2189992  84.7774990  54.8459997
 128.3049992  84.6664990  55.0549997 127.0119992  84.1144990  53.9789997
 126.8479992  86.2424990  54.6429997 126.9509992  86.8814990  55.5459997
 127.5429992  86.5334990  53.8269997 125.5279992  86.3344990  53.9699997
 125.3809992  85.4574990  53.3039997 124.8469992  86.1834990  54.8349997
 125.1929992  87.6104990  53.1759997 124.1219992  87.9044990  53.1659997
 125.7159992  88.4604990  53.6639997 125.5019992  87.5884990  51.6359997
 125.1779992  88.5014990  51.0919997 126.5869992  87.4274990  51.4599997
 124.6869992  86.5074990  50.8249997 125.0839992  85.4864990  51.0089997
 123.6659992  86.6954990  51.2199997 124.8359992  86.7344990  49.3699997
 124.3469992  87.6974990  49.1079997 125.9059992  86.6814990  49.0749997
 124.1749992  85.4814990  48.7129997 124.5269992  84.5774990  49.2549997
 123.1319992  85.8144990  48.9009997 124.3979992  85.3634990  47.1769997
 125.4849992  85.2164990  46.9979997 123.8409992  84.4414990  46.9049997
 123.8909992  86.6014990  46.3639997 122.9259992  86.9954990  46.7489997
 124.6409992  87.4094990  46.2279997 123.6339992  86.1954990  44.8419997
 122.8099992  85.4514990  44.8249997 123.2169992  87.1374990  44.4259997
 124.8939992  85.6554990  44.2009997 125.7699992  86.2864990  44.4639997
 125.0849992  84.6154990  44.5429997 124.7589992  85.6084990  42.6489997
 123.7889992  85.4354990  42.0239997 126.0029992  85.8804990  42.0069997
 125.8899992  86.0104990  40.6149997 124.9149992  86.3964990  40.2469997
 126.5899992  86.8214990  40.3209997 126.3109992  84.7114990  39.8809997
 127.2799992  84.2464990  40.1609997 126.6649992  85.1114990  38.3619997
 125.8299992  85.6554990  37.8699997 127.5099992  85.8204990  38.2319997
 126.8579992  83.8834990  37.6289997 125.9669992  83.3844990  36.4399997
 124.5299992  84.1184990  36.7329997 123.7579992  84.8994990  35.8359997
 124.1389992  85.9394990  35.7499997 123.9019992  84.5194990  34.8019997
 122.2719992  85.0054990  36.1799997 121.8459992  85.7724990  35.5509997
 121.7489992  84.1324990  35.8169997 121.9479992  85.2244990  37.6079997
 122.7859992  86.3414990  38.1869997 122.4949992  87.1824990  37.5749997
 122.4409992  86.5474990  39.1899997 123.8429992  86.1194990  38.1829997
 120.4769992  85.6314990  37.6429997 119.8819992  84.7344990  37.5589997
 120.2979992  86.1504990  38.5729997 120.3589992  86.2594990  36.7719997
 122.1469992  83.9254990  38.4429997 123.1219992  83.4874990  38.2949997
 121.4479992  83.1274990  38.2359997 122.1519992  84.2084990  39.4849997
 126.4719992  83.9894990  35.1699997 125.7189992  81.8974990  36.6029997
 125.3439992  83.7224990  39.8629997 125.3159992  82.8604990  40.7939997
 126.0579992  82.8094990  41.7559997 124.1329992  81.9064990  40.6149997
 124.4619992  81.3954990  39.6859997 123.1889992  82.4854990  40.5179997
 124.1029992  80.6854990  41.5529997 125.0859992  80.3054990  41.9039997
 123.6479992  79.8584990  40.9679997 123.2189992  80.9204990  42.7689997
 123.1269992  79.9464990  43.2949997 122.2029992  81.2394990  42.4519997
 123.8239992  81.8704990  43.8259997 123.7299992  82.9334990  43.5159997
 124.9049992  81.6694990  43.9859997 123.1549992  81.7104990  45.2729997
 122.0839992  81.9844990  45.1669997 123.7219992  82.3754990  45.9579997
 123.0339992  80.2654990  45.9349997 124.0489992  79.8674990  46.1469997
 122.5899992  79.5124990  45.2499997 122.1659992  80.1674990  47.1889997
 121.9429992  79.0874990  47.3249997 121.2359992  80.7594990  47.0479997
 123.0089992  80.6434990  48.3089997 124.0169992  80.2044990  48.2919997
 122.7109992  81.6294990  49.1799997 123.4509992  81.8114990  49.9739997
 121.4409992  82.4454990  49.1389997 120.5989992  82.0054990  48.5619997
 121.7729992  83.3464990  48.5819997 120.8059992  83.0634990  50.3779997
 120.3069992  82.2514990  50.9499997 120.0349992  83.8234990  50.1249997
 121.8379992  83.8084990  51.2029997 122.1839992  84.6934990  50.6269997
 122.6809992  83.0974990  51.3389997 121.2029992  84.4044990  52.5049997
 120.3249992  85.0324990  52.2409997 122.0039992  84.9424990  53.0539997
 120.5869992  83.3254990  53.4309997 119.6759992  82.9584990  52.9139997
 120.1799992  83.8504990  54.3209997 121.5739992  82.1824990  53.8809997
 121.6519992  81.5334990  52.9829997 121.0549992  81.7064990  54.7409997
 122.9809992  82.6094990  54.4559997 122.8209992  83.2564990  55.3449997
 123.4979992  83.2004990  53.6689997 123.7569992  81.5104990  55.0689997
 124.2479992  80.9264990  54.2609997 123.1189992  81.0524990  55.8549997
 124.6359992  81.8834990  55.6369997  70.3579992 117.6484990  55.8609997
  69.5349992 117.2034990  56.4599997  70.8079992 118.3524990  56.5939997
  71.1209992 116.8724990  55.6339997  69.9649992 118.3514990  54.5409997
  69.7279992 117.5554990  53.8039997  68.9789992 118.8064990  54.7789997
  71.0029992 119.3674990  53.9239997  71.2789992 120.1884990  54.6199997
  71.9059992 118.7224990  53.8679997  70.5889992 120.0484990  52.6829997
  69.5699992 120.4854990  52.7629997  71.2009992 120.9084990  52.3369997
  70.4779992 119.1834990  51.3849997  69.8329992 118.3084990  51.6119997
  69.9589992 119.8064990  50.6239997  71.8249992 118.8564990  50.7909997
  72.4489992 119.7484990  50.5669997  72.2509992 118.2734990  51.6349997
  71.6149992 117.9684990  49.5139997  72.3319992 117.1234990  49.5859997
  70.5859992 117.5884990  49.3399997  72.2049992 118.5784990  48.2169997
  73.2069992 119.0564990  48.1849997  72.0769992 117.8534990  47.3849997
  71.2229992 119.6634990  47.6339997  70.1469992 119.3864990  47.6419997
  71.4819992 120.5904990  48.1889997  71.7669992 120.2154990  46.3399997
  72.8369992 120.4984990  46.4369997  71.8589992 119.3494990  45.6499997
  71.1629992 121.5164990  45.7859997  70.0549992 121.4604990  45.7269997
  71.3589992 122.3454990  46.4989997  71.7559992 121.9514990  44.4519997
  71.4579992 122.9824990  44.1659997  72.8619992 122.0494990  44.4739997
  71.5049992 121.0034990  43.3169997  72.1009992 120.0754990  43.4569997
  70.4489992 120.6604990  43.3569997  71.9569992 121.3694990  41.8999997
  71.3619992 122.2514990  41.5829997  73.0139992 121.7104990  41.9369997
  71.5259992 120.2254990  40.9489997  70.5099992 119.8754990  41.2279997
  71.3269992 120.7714990  40.0019997  72.5969992 119.1194990  40.8229997
  73.7099992 119.2974990  40.3559997  72.0929992 118.0474990  41.3749997
  72.9629992 116.9084990  41.4519997  73.9349992 117.1374990  40.9639997
  73.0639992 116.6854990  42.5349997  72.2999992 115.7934990  40.6119997
  72.9389992 114.8854990  40.6149997  72.1319992 116.1904990  39.0889997
  71.7679992 117.2394990  39.1329997  73.0739992 116.1694990  38.5009997
  71.1799992 115.3084990  38.4619997  70.1749992 115.8504990  37.3789997
  69.5089992 117.1404990  38.1049997  68.0929992 117.3794990  37.9249997
  67.4339992 116.4904990  38.0299997  67.7989992 118.0734990  38.7409997
  67.8759992 118.0864990  36.5619997  68.1969992 117.4154990  35.7789997
  66.7979992 118.0704990  36.6169997  68.4749992 119.4564990  36.2499997
  69.9239992 119.2684990  35.9889997  70.4329992 119.0914990  36.9249997
  70.1179992 118.4424990  35.3209997  70.3159992 120.1744990  35.5519997
  67.9719992 120.0774990  35.0049997  68.1759992 121.1254990  34.8459997
  68.3559992 119.5704990  34.1319997  66.9159992 119.8564990  35.0339997
  68.3399992 120.3704990  37.4779997  67.2849992 120.4284990  37.7039997
  68.6209992 121.3464990  37.1119997  68.8439992 119.9204990  38.3199997
  70.9119992 116.3524990  36.1649997  69.1209992 114.8074990  37.1509997
  71.0069992 115.5694990  41.1189997  70.8759992 114.6294990  42.1389997
  71.7539992 113.8704990  42.5659997  69.4809992 114.8444990  42.7089997
  69.3539992 114.0074990  43.4279997  68.7699992 114.7284990  41.8629997
  69.3449992 116.3914990  43.1799997  69.2619992 116.9574990  42.2279997
  70.2789992 116.6244990  43.7349997  68.2259992 116.7284990  44.1339997
  68.1479992 116.0544990  45.0139997  67.2379992 116.5554990  43.6559997
  68.2629992 118.1384990  44.7559997  68.1249992 118.9384990  43.9979997
  69.2109992 118.3954990  45.2749997  67.1539992 118.3384990  45.7999997
  66.2059992 118.3584990  45.2219997  67.2119992 119.3874990  46.1609997
  67.0099992 117.3544990  46.9089997  66.7469992 116.3424990  46.5329997
  66.1289992 117.6994990  47.4909997  68.2029992 117.2714990  47.8549997
  68.1949992 118.2374990  48.4039997  69.1209992 117.1494990  47.2399997
  68.0519992 116.1804990  48.8859997  67.2139992 116.2094990  49.5979997
  68.8549992 115.0854990  48.8629997  68.5719992 114.2214990  49.4809997
  70.0049992 114.8174990  47.9259997  70.5939992 115.7234990  47.6689997
  69.6339992 114.4864990  46.9319997  70.7349992 113.6484990  48.5689997
  71.2689992 113.0934990  47.7679997  69.9809992 112.8864990  48.8609997
  71.8019992 113.9804990  49.6429997  72.2699992 114.9184990  49.2749997
  72.5389992 113.1504990  49.6049997  71.4009992 114.2274990  51.1659997
  70.6999992 115.0854990  51.0909997  72.2779992 114.4154990  51.8219997
  70.6419992 113.0444990  51.7659997  71.2609992 112.1224990  51.7749997
  69.8219992 112.7704990  51.0679997  70.1369992 113.4354990  53.1649997
  70.8009992 114.1544990  53.6909997  70.0789992 112.5014990  53.7639997
  68.8039992 114.1534990  53.2189997  68.7679992 114.7764990  52.2999997
  68.6439992 114.8184990  54.0949997  67.5729992 113.2384990  53.1159997
  66.6769992 113.8834990  53.2359997  67.5919992 112.5504990  53.9889997
  67.5199992 112.6674990  52.1649997  32.5209992  96.7214990  56.1129997
  33.2679992  96.2484990  56.7849997  31.6479992  96.9554990  56.7589997
  32.9589992  97.6944990  55.8019997  32.1209992  95.7314990  54.9969997
  32.9509992  95.7684990  54.2599997  31.9659992  94.7474990  55.4879997
  30.8229992  96.1434990  54.2879997  29.9419992  96.2664990  54.9549997
  30.9779992  97.0694990  53.6949997  30.2449992  95.0834990  53.2739997
  30.3949992  94.0724990  53.7099997  29.1539992  95.2894990  53.2429997
  30.8259992  95.0574990  51.8449997  31.9339992  95.1064990  51.8989997
  30.4619992  94.1064990  51.4009997  30.2639992  96.2694990  51.0449997
  29.1849992  96.0154990  50.9659997  30.4429992  97.2054990  51.6179997
  30.8169992  96.4304990  49.5959997  30.2449992  97.1684990  48.9939997
  31.8679992  96.7884990  49.6379997  30.8449992  95.0964990  48.7529997
  31.2669992  95.3104990  47.7469997  31.6559992  94.4754990  49.1909997
  29.5459992  94.3254990  48.5519997  28.9459992  94.4324990  49.4809997
  29.0079992  95.0254990  47.8779997  29.6199992  92.9024990  47.8339997
  30.0659992  92.9864990  46.8199997  30.2029992  92.2534990  48.5219997
  28.2789992  92.1654990  47.7129997  28.5599992  91.1364990  47.4009997
  27.9159992  92.0324990  48.7539997  27.1799992  92.8564990  46.8059997
  26.4759992  92.0114990  46.6459997  26.7569992  93.7354990  47.3379997
  27.7619992  93.2564990  45.4169997  28.5909992  93.9974990  45.4299997
  28.3049992  92.3734990  45.0169997  26.7049992  93.7084990  44.4159997
  25.8739992  92.9714990  44.4009997  26.2009992  94.5404990  44.9529997
  27.3839992  94.0964990  43.1009997  28.1279992  93.3034990  42.8759997
  26.6539992  94.2514990  42.2779997  28.2559992  95.4004990  43.2879997
  28.1549992  96.1474990  44.2469997  28.9469992  95.5524990  42.2039997
  29.7389992  96.6674990  41.9189997  29.0809992  97.2114990  41.2079997
  29.8559992  97.2264990  42.8709997  31.0919992  96.2214990  41.3239997
  31.5919992  97.1814990  41.0749997  30.8759992  95.5064990  39.9489997
  29.9829992  95.8874990  39.4079997  31.8379992  95.6114990  39.4039997
  30.7219992  94.1114990  40.1889997  30.7549992  93.2084990  38.9039997
  29.7869992  93.9454990  37.9529997  30.2379992  94.7924990  36.9209997
  29.7469992  95.7694990  37.1179997  31.3269992  95.0074990  36.8769997
  29.6529992  94.3144990  35.5609997  28.5749992  94.2454990  35.5949997
  29.9079992  95.0304990  34.7939997  30.2659992  93.0534990  34.9739997
  29.8129992  91.8034990  35.7249997  28.8509992  91.5864990  35.2849997
  30.4099992  90.9874990  35.3449997  29.7949992  91.7514990  36.8039997
  29.9099992  92.8174990  33.5109997  30.4029992  91.8984990  33.2309997
  28.8609992  92.7214990  33.2749997  30.3509992  93.6024990  32.9139997
  31.7979992  93.1354990  35.0849997  32.2399992  93.9514990  34.5329997
  32.2489992  92.2654990  34.6299997  32.1609992  93.1384990  36.1029997
  32.0959992  93.2124990  38.3709997  30.2209992  91.8824990  39.2769997
  31.7329992  95.4554990  42.3959997  33.0839992  95.1784990  42.1349997
  33.6129992  95.5184990  41.1059997  33.5909992  94.3794990  43.3029997
  33.2839992  94.8404990  44.2659997  34.6739992  94.1324990  43.2779997
  32.9049992  93.0264990  43.3299997  33.0719992  92.5094990  42.3609997
  31.8129992  93.2214990  43.2749997  33.3149992  92.2094990  44.5779997
  33.7919992  92.9284990  45.2789997  34.0709992  91.4864990  44.2059997
  32.2209992  91.4084990  45.3299997  31.5879992  92.1824990  45.8129997
  32.6839992  90.9014990  46.2039997  31.3419992  90.4164990  44.4869997
  32.0739992  89.7894990  43.9329997  30.7009992  90.9594990  43.7599997
  30.4259992  89.5584990  45.3979997  29.8339992  88.7124990  44.9869997
  29.6319992  90.2924990  45.6549997  31.1079992  88.8004990  46.5479997
  31.5459992  89.5384990  47.2529997  31.9239992  88.1954990  46.0979997
  30.1829992  87.9354990  47.2599997  29.4279992  87.4664990  46.6119997
  30.1969992  87.6784990  48.5869997  29.4749992  86.9224990  48.9269997
  31.0919992  88.1844990  49.6599997  31.8579992  88.8574990  49.2179997
  31.7229992  87.4594990  50.2179997  30.4759992  89.0964990  50.7449997
  29.7029992  88.4654990  51.2329997  29.8679992  89.9424990  50.3579997
  31.4819992  89.6194990  51.7389997  31.9939992  90.4134990  51.1539997
  32.2449992  88.8794990  52.0629997  30.8929992  90.3004990  53.0149997
  30.4039992  89.4534990  53.5419997  30.3189992  91.2124990  52.7439997
  32.0319992  90.6314990  54.0729997  32.6809992  91.3684990  53.5539997
  32.5349992  89.6794990  54.3459997  31.5149992  91.2724990  55.4089997
  30.7549992  92.0434990  55.1619997  32.4289992  91.7644990  55.8019997
  31.0089992  90.1984990  56.4379997  31.7369992  89.4434990  56.8029997
  30.2459992  89.5584990  55.9459997  30.2659992  90.8924990  57.5969997
  29.9769992  90.2074990  58.4229997  29.4189992  91.5384990  57.2799997
  31.1049992  91.3934990  58.1249997  68.8219992  20.5074990  57.0509997
  68.0919992  21.3374990  56.9379997  69.8409992  20.7854990  57.3949997
  68.3369992  19.8374990  57.7929997  68.8389992  19.6794990  55.8069997
  69.2349992  18.6904990  56.1189997  67.7689992  19.4494990  55.6159997
  69.5779992  20.1814990  54.5799997  69.5389992  19.4794990  53.7199997
  69.0969992  21.1214990  54.2349997  71.0499992  20.6964990  54.7219997
  70.9259992  21.4544990  55.5249997  71.6989992  19.9284990  55.1949997
  71.7389992  21.2994990  53.5069997  71.6069992  20.5754990  52.6749997
  71.3149992  22.2884990  53.2289997  73.2029992  21.5124990  53.7239997
  73.4649992  22.1234990  54.6139997  73.6459992  20.5064990  53.8809997
  73.9509992  22.0524990  52.4839997  73.7689992  21.3454990  51.6459997
  73.6609992  23.0834990  52.1899997  75.4959992  22.0584990  52.7119997
  75.6749992  22.4254990  53.7449997  75.8589992  21.0154990  52.5969997
  76.1829992  22.8204990  51.6399997  75.9189992  23.8944990  51.7389997
  77.2909992  22.7494990  51.6739997  75.9689992  22.3194990  50.2399997
  76.8029992  22.8014990  49.6859997  76.0099992  21.2174990  50.1079997
  74.6849992  22.7794990  49.4769997  73.8219992  22.1134990  49.6919997
  74.4949992  23.8284990  49.7909997  74.9799992  22.8894990  47.9899997
  74.1369992  23.3924990  47.4709997  75.8219992  23.5764990  47.7579997
  74.9819992  21.5284990  47.2599997  75.8129992  20.9054990  47.6539997
  74.0289992  21.0284990  47.5349997  74.9539992  21.6794990  45.6899997
  73.9979992  22.2334990  45.5729997  75.9089992  22.1444990  45.3639997
  74.8499992  20.4084990  44.7729997  75.8559992  19.9394990  44.7289997
  74.1359992  19.6144990  45.0779997  74.3869992  20.8134990  43.3799997
  73.7549992  21.8644990  43.2069997  74.7099992  20.0334990  42.3719997
  74.1719992  20.3334990  41.1499997  74.1049992  21.4274990  40.9669997
  74.8839992  19.8954990  40.4179997  72.8199992  19.5934990  40.9149997
  72.9789992  18.4934990  40.9209997  72.3039992  20.0374990  39.4999997
  73.1919992  20.5224990  39.0409997  71.9739992  19.1484990  38.9209997
  71.2079992  21.0104990  39.4759997  71.2129992  22.4834990  38.9779997
  71.7559992  22.4614990  37.4499997  70.9969992  22.0034990  36.3079997
  71.3729992  21.0284990  35.9319997  69.9359992  21.9194990  36.6269997
  70.9759992  22.9194990  35.0219997  71.9179992  22.6764990  34.5539997
  70.3419992  22.4224990  34.3019997  70.7809992  24.3794990  35.1419997
  70.5949992  24.8864990  33.6799997  70.1049992  25.8484990  33.6499997
  71.5839992  24.8734990  33.2469997  69.9499992  24.1954990  33.1579997
  69.6869992  24.7854990  36.0159997  68.7419992  24.5914990  35.5309997
  69.5509992  24.2844990  36.9629997  69.7669992  25.8294990  36.2779997
  72.0799992  24.9614990  35.6179997  72.7629992  24.6414990  34.8449997
  72.3619992  24.6414990  36.6099997  72.0289992  26.0394990  35.5659997
  69.7389992  22.8514990  38.9329997  72.1569992  23.3424990  39.8499997
  71.8389992  19.9774990  41.8709997  70.7219992  19.3284990  42.1899997
  70.3819992  18.3104990  41.6869997  69.8319992  20.2294990  43.1669997
  69.2879992  19.5134990  43.8209997  69.0299992  20.7204990  42.5749997
  70.5819992  21.3134990  43.8559997  70.9279992  22.0424990  43.0919997
  71.4869992  20.9014990  44.3509997  69.7119992  22.1004990  44.8649997
  69.4459992  21.2994990  45.5869997  68.6829992  22.2784990  44.4849997
  70.3759992  23.3434990  45.5489997  70.3259992  24.0744990  44.7129997
  71.4229992  23.0774990  45.8069997  69.5849992  23.8314990  46.7209997
  69.5119992  22.9134990  47.3429997  68.6949992  24.1174990  46.1219997
  70.1279992  25.0104990  47.4959997  69.3869992  25.2334990  48.2939997
  70.1619992  25.9164990  46.8539997  71.4739992  24.8094990  48.2529997
  72.2879992  24.6884990  47.5069997  71.3849992  23.9184990  48.9119997
  71.7679992  26.0534990  49.1309997  72.3159992  26.8444990  48.5989997
  71.6369992  26.2404990  50.4859997  71.8589992  27.2344990  50.9029997
  71.1049992  25.1634990  51.4709997  71.7679992  24.7584990  52.2649997
  71.0769992  24.1604990  50.9929997  69.6329992  25.4864990  51.8039997
  69.1059992  25.3744990  50.8319997  69.6709992  26.5304990  52.1809997
  68.9299992  24.5604990  52.8539997  68.9149992  23.5654990  52.3609997
  67.8889992  24.8834990  53.0689997  69.5349992  24.5734990  54.2649997
  70.4269992  23.9224990  54.1379997  68.8759992  24.0234990  54.9699997
  69.8659992  25.9574990  54.8739997  69.0459992  26.6494990  54.5839997
  70.6499992  26.3134990  54.1719997  70.1429992  26.0084990  56.4129997
  69.2529992  25.7814990  57.0379997  70.4339992  27.0584990  56.6299997
  71.4309992  25.2924990  56.8999997  71.2879992  24.1904990  56.8949997
  71.4939992  25.4954990  57.9899997  72.7659992  25.6094990  56.1289997
  72.5409992  25.7574990  55.0509997  73.4529992  24.7394990  56.2009997
  73.3229992  26.4564990  56.5829997  54.4439992  26.4874990  56.6319997
  53.8989992  26.4424990  57.5999997  54.0939992  27.4014990  56.1059997
  55.4979992  26.7164990  56.8979997  54.0829992  25.3514990  55.7139997
  54.5779992  24.4454990  56.1239997  52.9859992  25.1844990  55.6639997
  54.5859992  25.5144990  54.3029997  54.0599992  26.4024990  53.8899997
  55.6919992  25.5904990  54.2409997  54.2449992  24.2734990  53.3079997
  54.8029992  23.3784990  53.6569997  53.1439992  24.1484990  53.3809997
  54.5489992  24.4534990  51.8229997  53.8649992  25.2404990  51.4379997
  55.5979992  24.8054990  51.7269997  54.3739992  23.1744990  51.1069997
  55.3069992  22.6154990  51.3309997  53.4739992  22.5664990  51.3399997
  54.3919992  23.2854990  49.5299997  55.3619992  23.6944990  49.1739997
  54.2929992  22.2334990  49.1859997  53.2489992  24.1054990  48.9249997
  52.2009992  23.7454990  49.0059997  53.1439992  25.1524990  49.2809997
  53.5129992  24.2524990  47.3539997  54.5589992  24.5204990  47.0909997
  53.4909992  23.1874990  47.0369997  52.5429992  25.2424990  46.8669997
  51.5149992  25.1074990  47.2659997  52.8839992  26.1994990  47.3159997
  52.6019992  25.4944990  45.3439997  53.6089992  25.8184990  45.0029997
  52.0779992  24.6114990  44.9209997  51.7339992  26.7274990  45.0159997
  50.6749992  26.6474990  45.3419997  52.2779992  27.5654990  45.5009997
  51.7449992  27.1474990  43.5269997  52.7999992  27.3884990  43.2769997
  51.4839992  26.3544990  42.7929997  50.9409992  28.4404990  43.0819997
  49.8439992  28.3734990  43.2429997  51.3169992  29.3344990  43.6229997
  51.1059992  28.6034990  41.5759997  51.0289992  27.5984990  41.1079997
  50.2749992  29.2124990  41.1599997  52.4459992  29.2564990  41.1269997
  53.2909992  29.5634990  41.8989997  52.4829992  29.2674990  39.8519997
  53.6579992  29.7904990  39.1389997  53.2839992  30.4284990  38.3099997
  54.2539992  30.4274990  39.8259997  54.4549992  28.6744990  38.5179997
  55.4139992  29.0794990  38.1299997  53.5759992  28.0314990  37.3989997
  52.7319992  28.7214990  37.1839997  54.2019992  27.9944990  36.4819997
  52.9199992  26.8464990  37.8019997  53.3579992  25.4114990  37.3129997
  54.9339992  25.3974990  37.7729997  55.5469992  24.1104990  37.9309997
  56.1239992  24.1794990  38.8779997  54.8339992  23.2954990  38.1789997
  56.5019992  23.5664990  36.7839997  56.9969992  22.6594990  37.0979997
  55.8809992  23.3604990  35.9249997  57.6749992  24.4624990  36.3309997
  57.2059992  25.7244990  35.6969997  58.0399992  26.3764990  35.4839997
  56.6539992  25.4344990  34.8149997  56.5899992  26.2554990  36.4069997
  58.4609992  24.8684990  37.4959997  58.0019992  25.7384990  37.9419997
  58.5579992  24.0174990  38.1529997  59.4829992  25.0524990  37.1969997
  58.3989992  23.7114990  35.2499997  58.9349992  24.4504990  34.6729997
  57.7479992  23.1164990  34.6259997  59.1289992  23.0464990  35.6869997
  52.7219992  24.4784990  38.2499997  53.1829992  25.2654990  35.8459997
  54.8799992  27.7374990  39.5489997  55.7619992  28.1514990  40.4189997
  56.2749992  29.2714990  40.4569997  56.2349992  27.0204990  41.3469997
  57.0129992  26.5054990  40.7439997  55.4359992  26.3424990  41.7149997
  56.8439992  27.6784990  42.6339997  57.4049992  28.5834990  42.3169997
  57.6399992  26.9744990  42.9549997  55.9299992  28.1174990  43.7989997
  55.4739992  27.1994990  44.2279997  55.1359992  28.7334990  43.3269997
  56.5859992  29.0004990  44.9379997  57.1989992  29.8674990  44.6119997
  57.2889992  28.2404990  45.3419997  55.5489992  29.4754990  45.9469997
  54.9779992  28.5454990  46.1589997  54.8619992  30.2454990  45.5359997
  56.3079992  29.9054990  47.2219997  56.9019992  30.8274990  47.0459997
  56.9749992  29.0484990  47.4549997  55.2919992  30.2514990  48.3099997
  54.4139992  30.7364990  47.8319997  55.8159992  31.0694990  48.8479997
  54.8899992  29.1264990  49.1699997  54.2229992  28.4014990  48.6799997
  55.4609992  28.7424990  50.3369997  55.0489992  27.8104990  50.7509997
  56.6549992  29.2614990  51.1029997  56.4169992  29.2514990  52.1879997
  56.9159992  30.2924990  50.7819997  57.9319992  28.3854990  51.1569997
  58.7669992  29.0014990  51.5549997  58.2779992  28.0634990  50.1519997
  57.7679992  27.0724990  51.9689997  56.8319992  26.5684990  51.6459997
  57.5869992  27.5484990  52.9559997  58.9979992  26.2454990  51.9749997
  59.8659992  26.6774990  52.5159997  59.3809992  26.3774990  50.9399997
  58.7829992  24.8004990  52.3589997  59.7759992  24.3284990  52.1999997
  58.0369992  24.3674990  51.6589997  58.4119992  24.4414990  53.8449997
  57.4669992  25.0144990  53.9629997  59.1179992  24.8094990  54.6199997
  57.9439992  22.9884990  54.0559997  58.7029992  22.2024990  53.8579997
  57.2769992  22.7524990  53.1989997  57.2479992  22.7674990  55.3479997
  56.6579992  21.8294990  55.2699997  56.4759992  23.5584990  55.4609997
  57.9249992  22.7334990  56.2279997  20.7739992  80.0744990  56.4429997
  20.8029992  79.1994990  57.1259997  19.8289992  80.0564990  55.8589997
  20.7699992  80.9214990  57.1619997  21.9569992  80.1654990  55.5089997
  22.8599992  80.0414990  56.1439997  22.1049992  79.2294990  54.9289997
  21.9209992  81.4394990  54.6759997  20.9439992  81.3664990  54.1529997
  21.8469992  82.3024990  55.3719997  23.0669992  81.6824990  53.7789997
  24.0209992  81.7734990  54.3409997  23.2049992  80.8574990  53.0489997
  22.9199992  83.0084990  53.0049997  22.0109992  82.9144990  52.3729997
  22.6749992  83.8224990  53.7199997  24.0019992  83.4724990  52.0619997
  23.6839992  84.4764990  51.7059997  24.9439992  83.5654990  52.6439997
  24.3889992  82.4684990  50.9749997  24.6219992  81.5414990  51.5419997
  23.4589992  82.3154990  50.3869997  25.4879992  82.9404990  50.0739997
  25.1789992  83.8344990  49.4919997  26.4109992  83.1204990  50.6659997
  25.8529992  81.8724990  49.0539997  25.0719992  81.9314990  48.2659997
  26.7799992  82.2694990  48.5879997  25.8049992  80.3454990  49.3969997
  26.4919992  80.0634990  50.2229997  24.7389992  80.1834990  49.6649997
  26.1529992  79.4584990  48.2049997  26.1879992  78.3734990  48.4399997
  25.3679992  79.6474990  47.4409997  27.4839992  79.8064990  47.4579997
  27.3829992  80.8154990  47.0049997  28.3219992  79.8374990  48.1869997
  27.7899992  78.8474990  46.2669997  28.5209992  79.4114990  45.6489997
  28.2459992  77.9064990  46.6399997  26.5379992  78.4484990  45.4189997
  25.7889992  77.8624990  45.9949997  25.9989992  79.4194990  45.3909997
  26.8719992  77.7704990  44.0379997  27.4709992  78.4284990  43.3719997
  27.5019992  76.9024990  44.3249997  25.6059992  77.4094990  43.3999997
  24.6209992  77.0294990  43.9849997  25.7349992  77.6744990  42.1289997
  24.7239992  77.4354990  41.1539997  25.2369992  77.3044990  40.1769997
  24.1109992  76.5294990  41.3489997  23.7739992  78.6324990  40.9289997
  23.0329992  78.4124990  40.1309997  24.5719992  79.8774990  40.3979997
  25.1769992  80.1174990  41.2989997  25.2519992  79.6804990  39.5419997
  23.7189992  80.9704990  40.1479997  23.4319992  81.3334990  38.6539997
  23.6149992  79.9194990  37.9049997  22.4309992  79.3794990  37.1979997
  21.6739992  78.9824990  37.9079997  21.9399992  80.1404990  36.5549997
  22.7359992  78.2384990  36.2339997  22.8769992  77.3234990  36.7889997
  21.8339992  78.1614990  35.6459997  23.8259992  78.4784990  35.1639997
  23.5129992  79.8154990  34.4889997  24.0929992  80.0084990  33.5989997
  22.4429992  79.8494990  34.3469997  23.7919992  80.6254990  35.1469997
  25.1709992  78.5674990  35.6689997  25.4489992  77.5234990  35.6609997
  25.8109992  79.0814990  34.9669997  25.0649992  79.1224990  36.5889997
  23.6849992  77.3444990  34.1739997  24.1819992  77.6954990  33.2819997
  22.6719992  77.3194990  33.7999997  23.9309992  76.3744990  34.5789997
  22.0169992  81.7494990  38.5959997  24.5299992  82.2554990  38.2409997
  23.1039992  78.9674990  42.1179997  21.8489992  78.4884990  42.3489997
  21.1649992  77.7324990  41.6859997  21.2379992  79.2194990  43.5509997
  20.1379992  79.1044990  43.4469997  21.5659992  80.2734990  43.4289997
  21.7189992  78.6694990  44.9289997  22.7999992  78.7894990  44.7019997
  21.4999992  77.6034990  45.1539997  21.2449992  79.4534990  46.1369997
  20.1609992  79.5214990  45.9039997  21.7369992  80.4474990  46.2099997
  21.3989992  78.6984990  47.4929997  20.8519992  77.7424990  47.3469997
  20.8569992  79.2724990  48.2749997  22.8129992  78.3404990  47.9269997
  23.3659992  79.3034990  47.9659997  23.2049992  77.6254990  47.1719997
  23.1679992  77.8414990  49.3919997  22.8209992  78.6554990  50.0629997
  24.2609992  77.8004990  49.5859997  22.5289992  76.5214990  49.7279997
  21.5339992  76.5344990  49.2349997  22.4229992  76.4654990  50.8329997
  23.4219992  75.3924990  49.2069997  23.4109992  75.1714990  48.1289997
  24.3359992  74.8004990  50.0079997  25.1129992  74.2214990  49.4869997
  24.7109992  75.0844990  51.4759997  25.0639992  74.1404990  51.9419997
  23.8789992  75.4074990  52.1389997  25.8959992  76.0624990  51.5779997
  25.8259992  77.0584990  51.0909997  26.8419992  75.5544990  51.2899997
  26.3209992  76.3454990  53.0709997  27.2339992  76.9414990  53.2849997
  26.3209992  75.3704990  53.6029997  25.2029992  77.1794990  53.8209997
  24.2389992  76.6444990  53.6869997  25.2249992  78.2024990  53.3899997
  25.5419992  77.3394990  55.3089997  25.3939992  76.3154990  55.7139997
  24.8049992  78.0294990  55.7729997  27.0319992  77.9484990  55.5509997
  27.1069992  78.8434990  54.8959997  27.7849992  77.2024990  55.2169997
  27.3239992  78.4094990  56.9929997  27.3509992  77.5834990  57.7359997
  26.5759992  79.2044990  57.2039997  28.6209992  79.1944990  57.0989997
  29.3759992  78.8634990  56.3529997  29.1719992  79.0064990  58.0449997
  28.3779992  80.2704990  56.9649997 126.7569992  48.7564990  56.0969997
 126.9959992  48.1454990  56.9939997 126.3739992  49.7654990  56.3599997
 127.6149992  48.9484990  55.4189997 125.6319992  48.1814990  55.1839997
 126.0409992  47.3024990  54.6419997 124.6799992  48.0374990  55.7389997
 125.2919992  49.1694990  54.0329997 124.8499992  50.1194990  54.4019997
 126.2769992  49.4854990  53.6269997 124.4459992  48.8144990  52.7709997
 124.6079992  49.5004990  51.9109997 124.6949992  47.8614990  52.2569997
 122.9559992  48.7764990  53.1959997 122.7369992  47.8724990  53.8039997
 122.8739992  49.6284990  53.9049997 121.9839992  49.0264990  52.0969997
 121.9299992  48.1684990  51.3929997 120.9719992  49.1404990  52.5419997
 122.2529992  50.2084990  51.1509997 123.3259992  50.1534990  50.8659997
 121.6689992  49.9974990  50.2299997 121.8209992  51.5854990  51.6359997
 120.7129992  51.6144990  51.5489997 122.1499992  51.6324990  52.6959997
 122.3079992  52.7894990  50.9399997 121.7699992  53.6314990  51.4249997
 123.3839992  52.9634990  51.1539997 122.1239992  52.9064990  49.4309997
 121.1229992  52.4654990  49.2359997 122.0769992  53.9744990  49.1279997
 123.2609992  52.1474990  48.6529997 124.2199992  52.3714990  49.1669997
 123.2479992  51.0384990  48.7199997 123.2359992  52.6254990  47.2509997
 123.7239992  51.9194990  46.5449997 122.1999992  52.7964990  46.8879997
 123.9909992  53.9314990  46.8899997 123.5309992  54.8204990  47.3699997
 125.0239992  53.8184990  47.2829997 124.0779992  54.2204990  45.4299997
 123.0489992  53.9384990  45.1199997 124.2059992  55.3114990  45.2609997
 125.2829992  53.6304990  44.6789997 126.3209992  53.9654990  44.8929997
 125.3339992  52.5844990  45.0469997 125.0109992  53.5864990  43.1749997
 123.9339992  53.7414990  42.5989997 126.1529992  53.2034990  42.6519997
 126.1919992  52.8304990  41.3279997 125.6439992  53.5714990  40.7079997
 127.2769992  52.8014990  41.0909997 125.5599992  51.4334990  40.9409997
 126.0949992  50.7944990  41.6759997 125.9139992  51.0154990  39.4699997
 126.9759992  50.7014990  39.5569997 125.1569992  50.2704990  39.1449997
 125.8629992  52.1614990  38.7019997 124.8639992  52.3504990  37.4819997
 125.0179992  50.9524990  36.7179997 126.2749992  50.5854990  36.2149997
 126.6099992  51.2834990  35.4179997 127.0909992  50.5424990  36.9679997
 126.1829992  49.1374990  35.6269997 125.4239992  49.1844990  34.8599997
 127.1729992  48.9614990  35.2339997 125.8989992  48.0094990  36.5459997
 124.5159992  48.2004990  36.9929997 124.2689992  47.2774990  37.4969997
 124.4619992  49.0464990  37.6619997 123.8609992  48.3614990  36.1489997
 126.0059992  46.7084990  35.8539997 125.8299992  45.9174990  36.5679997
 125.3489992  46.6024990  35.0039997 126.9959992  46.6824990  35.4229997
 126.7759992  47.9584990  37.7409997 127.7869992  47.9174990  37.3619997
 126.4639992  47.1044990  38.3229997 126.6459992  48.8524990  38.3329997
 123.5009992  52.4694990  38.0029997 125.3099992  53.4614990  36.5899997
 124.1529992  51.4734990  41.2029997 123.5599992  50.3444990  41.6119997
 124.1359992  49.2514990  41.7849997 122.0699992  50.6004990  41.8569997
 121.5209992  50.4504990  40.9019997 122.1259992  51.6424990  42.2409997
 121.6669992  49.5644990  42.9159997 121.8069992  48.5644990  42.4519997
 120.5939992  49.7424990  43.1449997 122.3279992  49.6994990  44.3869997
 122.1069992  50.7344990  44.7259997 123.4229992  49.5304990  44.3109997
 121.7669992  48.6884990  45.3309997 121.7369992  47.6664990  44.8989997
 120.6829992  48.9244990  45.3919997 122.3619992  48.6354990  46.7689997
 121.8549992  47.9364990  47.4689997 122.1429992  49.6744990  47.0939997
 123.8329992  48.3984990  46.8809997 124.4559992  49.1074990  46.2949997
 123.9009992  47.4704990  46.2749997 124.4319992  48.2374990  48.3219997
 123.8759992  47.4594990  48.8859997 124.2099992  49.1284990  48.9469997
 125.9049992  47.8364990  48.2389997 126.0979992  46.8234990  47.8559997
 126.9739992  48.5414990  48.5379997 127.9869992  48.2924990  48.1879997
 126.9529992  49.9574990  49.1109997 125.9169992  50.3604990  49.1209997
 127.5769992  50.6494990  48.5059997 127.5459992  49.9764990  50.4699997
 128.5279992  49.4574990  50.4449997 127.0199992  49.3014990  51.1789997
 127.8379992  51.3014990  51.0469997 128.2229992  51.9944990  50.2699997
 128.6129992  51.2574990  51.8419997 126.6439992  51.9244990  51.7809997
 126.2709992  51.2834990  52.6079997 125.8879992  51.9984990  50.9709997
 126.9119992  53.3954990  52.2159997 127.3079992  54.0404990  51.4029997
 127.6199992  53.4184990  53.0719997 125.6899992  54.1134990  52.6989997
 124.9059992  53.9204990  51.9349997 125.8879992  55.1984990  52.8249997
 125.2299992  53.7894990  54.1819997 124.8199992  52.7564990  54.1499997
 124.4559992  54.5324990  54.4689997 126.3589992  53.7824990  55.2659997
 127.2089992  53.1604990  54.9139997 125.9799992  53.3454990  56.2149997
 126.6999992  54.8334990  55.3809997  94.3399992  26.8254990  53.9549997
  93.4399992  27.4714990  54.0449997  95.2329992  27.4764990  54.0699997
  94.4139992  26.0844990  54.7799997  94.4039992  26.1614990  52.5519997
  93.6269992  25.3674990  52.5869997  94.3039992  26.9524990  51.7779997
  95.7259992  25.4934990  52.0829997  96.4199992  26.3314990  51.8599997
  96.1789992  24.8824990  52.8939997  95.4409992  24.5014990  50.9269997
  96.4319992  24.0894990  50.6379997  94.7189992  23.6794990  51.1239997
  94.9019992  25.2454990  49.7569997  93.8739992  25.5744990  50.0189997
  95.5009992  26.1014990  49.3799997  94.7519992  24.3594990  48.5059997
  95.7359992  24.0974990  48.0609997  94.3039992  23.3934990  48.8229997
  93.7519992  25.0064990  47.4939997  92.7109992  25.0844990  47.8759997
  94.0249992  26.0814990  47.4209997  93.6259992  24.3474990  46.1419997
  93.7499992  23.2724990  46.3939997  92.6059992  24.5294990  45.7409997
  94.6039992  24.8004990  45.1409997  94.3479992  25.7974990  44.7219997
  95.5689992  25.0884990  45.6089997  94.8769992  23.7854990  43.9749997
  95.6539992  24.0914990  43.2419997  95.2349992  22.8044990  44.3529997
  93.6119992  23.5814990  43.1679997  92.9419992  22.8534990  43.6729997
  93.1079992  24.5714990  43.1839997  93.8119992  23.2314990  41.7209997
  94.4039992  24.0244990  41.2169997  94.4149992  22.2994990  41.6819997
  92.5209992  22.9634990  40.9459997  92.1929992  23.9534990  40.5629997
  92.6919992  22.3194990  40.0569997  91.3699992  22.3014990  41.8059997
  91.6719992  21.3404990  42.2749997  91.0229992  23.0484990  42.5519997
  90.1839992  21.8964990  40.8629997  90.6179992  21.5954990  39.8849997
  89.5269992  21.1484990  41.3549997  89.3289992  23.1704990  40.7999997
  88.6429992  23.5544990  41.7319997  89.4939992  23.7834990  39.6209997
  88.7049992  25.0014990  39.4309997  88.2239992  24.8664990  38.4379997
  87.8999992  25.1044990  40.1899997  89.6189992  26.2504990  39.3849997
  89.0309992  27.1924990  39.3509997  90.5109992  26.1964990  38.0169997
  89.8439992  25.8764990  37.1889997  90.9229992  27.2044990  37.7939997
  91.5989992  25.3534990  38.1389997  92.2259992  24.5224990  36.9089997
  93.7969992  24.5714990  37.2249997  94.1799992  25.6414990  38.0829997
  93.6439992  26.5714990  37.7959997  93.8779992  25.5634990  39.1489997
  95.6669992  26.0034990  38.0609997  95.6959992  26.9114990  38.6439997
  96.2779992  25.2474990  38.5309997  96.3499992  26.2794990  36.6989997
  96.4289992  25.0344990  35.8639997  97.0309992  24.3324990  36.4229997
  95.4729992  24.5434990  35.7609997  96.8259992  25.1374990  34.8649997
  95.4739992  27.2714990  35.9299997  95.7379992  27.2154990  34.8839997
  94.4989992  26.8494990  36.1189997  95.8029992  28.2394990  36.2769997
  97.6949992  26.8554990  36.9309997  97.9989992  27.4444990  36.0779997
  98.4199992  26.1014990  37.1999997  97.6349992  27.6294990  37.6819997
  91.7999992  23.0814990  37.0339997  92.0149992  25.2124990  35.5969997
  90.4029992  26.1734990  40.5689997  91.1549992  27.2224990  40.8709997
  91.2219992  28.2204990  40.2069997  91.8729992  27.2144990  42.2109997
  92.9229992  27.5794990  42.2319997  91.8919992  26.1214990  42.4069997
  91.0579992  28.0384990  43.2709997  90.0879992  28.4654990  42.9359997
  91.6319992  28.9694990  43.4639997  90.7569992  27.3944990  44.5909997
  90.5419992  28.0844990  45.4349997  91.6239992  26.7754990  44.9059997
  89.4639992  26.5264990  44.5179997  89.4579992  25.8504990  43.6369997
  88.6099992  27.2094990  44.3169997  89.3209992  25.7814990  45.8699997
  90.2759992  25.5404990  46.3859997  88.7819992  24.8144990  45.7799997
  88.5539992  26.6794990  46.8389997  87.5479992  26.8564990  46.4019997
  89.0509992  27.6724990  46.8589997  88.3699992  26.1674990  48.2979997
  88.1639992  25.0784990  48.3769997  87.4809992  26.6854990  48.7179997
  89.5499992  26.5434990  49.1969997  89.8719992  27.5954990  49.1749997
  90.3369992  25.7794990  49.9429997  91.0289992  26.3494990  50.5799997
  90.2679992  24.2414990  50.1689997  91.2719992  23.7974990  49.9979997
  89.5939992  23.6524990  49.5109997  89.6879992  24.0204990  51.5759997
  88.6679992  24.4604990  51.5419997  90.3139992  24.4404990  52.3919997
  89.3869992  22.5574990  52.0969997  88.4499992  22.1844990  51.6329997
  89.2189992  22.7024990  53.1859997  90.5129992  21.5494990  51.7739997
  90.6029992  21.3194990  50.6909997  90.1729992  20.7004990  52.4049997
  91.9599992  21.7224990  52.3319997  92.3359992  22.6154990  51.7879997
  92.6319992  20.8614990  52.1269997  92.0229992  22.0734990  53.7969997
  91.5869992  21.2174990  54.3549997  91.3569992  22.9334990  54.0219997
  93.4309992  22.4774990  54.2909997  93.9189992  23.2744990  53.6909997
  94.1129992  21.6024990  54.2309997  93.4689992  22.9504990  55.6899997
  92.8479992  23.8674990  55.7849997  94.5179992  23.1324990  56.0089997
  93.0349992  22.3194990  56.4949997 114.5819992 100.7114990  57.5999997
 114.0559992 100.7204990  58.5789997 113.8339992 100.4134990  56.8349997
 115.1279992 101.6064990  57.2329997 115.6389992  99.6324990  57.9249997
 116.3369992 100.0494990  58.6829997 115.1449992  98.7124990  58.3049997
 116.4259992  99.2934990  56.5919997 115.6839992  99.3344990  55.7669997
 117.2469992 100.0314990  56.4689997 117.0759992  97.8424990  56.6439997
 117.8749992  97.9554990  57.4069997 116.4259992  96.9814990  56.9119997
 117.7929992  97.3994990  55.3109997 118.7439992  96.8814990  55.5569997
 117.2069992  96.7894990  54.5899997 118.1719992  98.5734990  54.2899997
 117.2589992  99.0924990  53.9259997 118.7609992  99.3174990  54.8689997
 118.8409992  97.9784990  53.0549997 119.5189992  97.1894990  53.4459997
 118.0369992  97.5774990  52.4009997 119.8299992  98.8444990  52.2139997
 120.5799992  99.1734990  52.9639997 120.2529992  98.2044990  51.4099997
 119.3439992 100.2104990  51.6269997 118.7309992 100.7834990  52.3549997
 120.2039992 100.8084990  51.2579997 118.5649992 100.0204990  50.3379997
 119.1979992  99.7074990  49.4799997 117.8229992  99.2504990  50.6399997
 117.9079992 101.3674990  49.8849997 117.3799992 101.7994990  50.7619997
 118.7499992 102.0464990  49.6329997 117.1289992 101.2584990  48.6489997
 116.9489992 102.2654990  48.2169997 117.7939992 100.8354990  47.8649997
 115.8109992 100.4714990  48.6359997 116.0289992  99.4054990  48.4079997
 115.3829992 100.5324990  49.6589997 114.8309992 101.0064990  47.5819997
 113.8899992 100.4154990  47.5769997 114.6019992 102.0414990  47.9129997
 115.3059992 101.2544990  46.1339997 114.6129992 102.0184990  45.7189997
 116.3489992 101.6374990  46.1319997 115.0759992 100.0034990  45.2639997
 114.5469992  99.0474990  45.7799997 115.6309992 100.1044990  44.0759997
 115.3079992  99.1324990  43.0179997 115.5149992  98.0694990  43.2659997
 114.2099992  99.2494990  42.8919997 116.1549992  99.4694990  41.8129997
 115.9249992 100.4634990  41.3739997 115.8569992  98.4994990  40.6229997
 115.8539992  97.5214990  41.1519997 114.8609992  98.6874990  40.1689997
 116.8459992  98.5164990  39.6389997 116.7349992  97.3094990  38.6089997
 115.3889992  97.7174990  37.8759997 115.2399992  99.0224990  37.3989997
 114.3559992  99.4854990  37.8879997 116.1079992  99.6574990  37.6749997
 115.2009992  98.9494990  35.8849997 114.9309992  99.9174990  35.4889997
 116.1839992  98.5984990  35.6079997 114.2009992  98.0754990  35.1569997
 114.6079992  96.5824990  35.2779997 114.6639992  96.3054990  36.3199997
 113.9229992  95.9224990  34.7669997 115.6039992  96.4484990  34.8829997
 112.8809992  98.3974990  35.8309997 112.2009992  97.6854990  35.3879997
 112.9729992  98.2434990  36.8959997 112.4899992  99.3624990  35.5419997
 114.1949992  98.4614990  33.7019997 113.8049992  99.4674990  33.6869997
 113.6669992  97.7234990  33.1149997 115.1889992  98.4504990  33.2789997
 117.8649992  97.3264990  37.6999997 116.4529992  96.0574990  39.3969997
 117.5109992  99.3014990  42.1679997 118.1469992 100.4454990  42.5769997
 117.5249992 101.4764990  42.7139997 119.6439992 100.2844990  42.6909997
 120.0489992 101.3134990  42.7949997 120.0339992  99.7414990  41.8039997
 119.8589992  99.1874990  43.7709997 120.9229992  98.8744990  43.8329997
 119.3089992  98.3484990  43.2929997 119.2509992  99.5844990  45.1369997
 118.3149992 100.1764990  45.0569997 120.0669992 100.2444990  45.5009997
 119.1779992  98.4784990  46.1809997 118.9849992  98.8014990  47.2269997
 120.1339992  97.9224990  46.0749997 118.0709992  97.4784990  45.7719997
 118.2389992  97.0144990  44.7769997 117.0989992  98.0164990  45.7449997
 118.0209992  96.3754990  46.8799997 117.7899992  96.8224990  47.8709997
 118.9869992  95.8314990  46.9469997 116.9359992  95.3864990  46.7529997
 117.1229992  94.5384990  47.4469997 117.0129992  94.9944990  45.7169997
 115.4309992  95.7674990  47.0639997 114.8719992  96.1504990  46.1979997
 114.7289992  95.7434990  48.1399997 113.6399992  95.8614990  48.0389997
 115.2379992  95.3134990  49.4999997 116.3309992  95.5074990  49.4589997
 115.0559992  94.2834990  49.8759997 114.7209992  96.3554990  50.5819997
 113.6399992  96.1104990  50.5139997 114.9479992  97.4094990  50.3139997
 115.1449992  96.0704990  52.0019997 116.2479992  95.9854990  52.1069997
 114.7939992  95.1304990  52.4809997 114.8039992  97.2934990  52.8209997
 115.2669992  98.2384990  52.4649997 115.2109992  97.1894990  53.8489997
 113.2319992  97.4324990  52.8769997 112.7649992  96.4294990  52.7779997
 112.8259992  98.0364990  52.0369997 112.7009992  98.1554990  54.1009997
 113.4099992  99.0014990  54.2259997 112.7589992  97.5244990  55.0129997
 111.3019992  98.6074990  54.0699997 110.6079992  97.7444990  53.9809997
 111.0159992  99.1264990  53.1299997 110.8339992  99.5614990  55.2369997
 111.0819992  99.1194990  56.2259997 109.7799992  99.9094990  55.2119997
 111.4199992 100.4994990  55.1369997  99.4709992 103.9254990  53.5669997
 100.2089992 103.7184990  54.3719997  99.5239992 103.0954990  52.8299997
  98.4279992 103.9324990  53.9499997  99.8079992 105.2294990  52.8909997
  99.6919992 106.1084990  53.5609997 100.7839992 105.1864990  52.3609997
  98.7929992 105.4154990  51.7789997  98.8459992 104.5764990  51.0529997
  97.7239992 105.4064990  52.0819997  99.0219992 106.7974990  51.1679997
  99.0609992 107.6184990  51.9159997 100.0149992 106.6694990  50.6879997
  97.9279992 107.2654990  50.1869997  97.5379992 106.4534990  49.5369997
  97.1249992 107.5724990  50.8899997  98.4109992 108.4164990  49.3219997
  98.5059992 109.3764990  49.8739997  99.3519992 108.1744990  48.7829997
  97.4099992 108.6524990  48.1619997  97.0489992 107.6524990  47.8369997
  96.5489992 109.2124990  48.5849997  98.1549992 109.4514990  47.0439997
  98.8859992 108.7044990  46.6679997  97.4649992 109.7024990  46.2089997
  98.9299992 110.7534990  47.4459997  98.2119992 111.4864990  47.8709997
  99.7559992 110.4724990  48.1329997  99.5029992 111.6044990  46.2759997
  98.6329992 111.8774990  45.6409997 100.0009992 112.5104990  46.6839997
 100.5029992 110.9714990  45.3149997 100.0939992 110.1774990  44.6549997
 100.8549992 111.7914990  44.6529997 101.8399992 110.4084990  45.9669997
 102.5889992 111.2124990  46.1309997 101.5599992 109.8644990  46.8939997
 102.5039992 109.4074990  44.9849997 101.7959992 108.5574990  44.8769997
 102.5369992 109.8364990  43.9609997 103.8589992 108.8494990  45.4729997
 104.4689992 109.7504990  45.6949997 103.8479992 108.2604990  46.4149997
 104.5249992 107.9074990  44.4789997 104.6339992 108.4444990  43.5119997
 105.4909992 107.7354990  44.9989997 103.6979992 106.5924990  44.2949997
 103.1159992 106.0274990  45.2129997 103.7269992 106.1824990  42.9909997
 102.7139992 105.2354990  42.5969997 103.2589992 104.5474990  41.9159997
 102.3599992 104.6544990  43.4749997 101.5349992 105.8374990  41.7919997
 100.7929992 105.0734990  41.4779997 102.1699992 106.5074990  40.4709997
 103.0099992 107.1574990  40.7969997 102.6409992 105.7504990  39.8069997
 101.1849992 107.2754990  39.8279997 101.3129992 107.7894990  38.3479997
 100.5819992 106.7214990  37.4589997  99.4479992 105.9594990  37.7869997
  99.6789992 105.4154990  38.7279997  98.5959992 106.6194990  38.0539997
  99.1339992 105.0454990  36.5619997 100.1039992 104.6774990  36.2619997
  98.6019992 104.1504990  36.8499997  98.5299992 105.6844990  35.3249997
  98.1869992 104.6824990  34.2889997  99.0579992 104.5234990  33.6719997
  97.7489992 103.8054990  34.7429997  97.5009992 105.1584990  33.6039997
  97.2959992 106.3224990  35.8479997  96.6519992 105.5524990  36.2469997
  97.4289992 106.9504990  36.7159997  96.7709992 106.8654990  35.0759997
  99.4279992 106.7634990  34.7349997  98.8849992 107.2504990  33.9379997
 100.3859992 106.4254990  34.3699997  99.5779992 107.4964990  35.5139997
 100.6089992 109.0724990  38.2379997 102.7429992 107.7364990  38.0519997
 100.8719992 106.7774990  42.6789997  99.5629992 106.8304990  42.5619997
  98.8939992 106.2594990  41.6839997  99.0009992 107.5374990  43.7869997
  98.4929992 108.4904990  43.5279997  99.7769992 107.9234990  44.4819997
  98.0999992 106.6164990  44.5439997  97.1949992 106.3954990  43.9389997
  97.7779992 107.2584990  45.3909997  98.7569992 105.4194990  45.1749997
  99.2729992 104.8994990  44.3399997  97.9049992 104.8444990  45.5959997
  99.7589992 105.7084990  46.3009997  99.2459992 106.5144990  46.8679997
 100.6289992 106.0944990  45.7289997 100.3569992 104.6534990  47.1639997
  99.5989992 104.2644990  47.8759997 101.1589992 105.1524990  47.7489997
 100.8929992 103.4164990  46.3209997 101.5229992 103.8174990  45.4989997
 100.0009992 102.9254990  45.8759997 101.8139992 102.4964990  47.1809997
 101.8139992 101.4944990  46.7019997 101.3169992 102.3054990  48.1559997
 103.2099992 103.0854990  47.3009997 103.7519992 103.1804990  46.3479997
 103.9099992 103.6634990  48.3179997 104.8919992 104.1004990  48.0839997
 103.3349992 103.8534990  49.7349997 104.1299992 103.5704990  50.4589997
 102.5439992 103.0984990  49.9309997 102.8949992 105.2994990  50.0859997
 102.8589992 105.4344990  51.1879997 101.8579992 105.3854990  49.6979997
 103.6419992 106.4804990  49.5189997 103.7799992 106.2044990  48.4509997
 104.6749992 106.5174990  49.9279997 102.8889992 107.8724990  49.6859997
 101.8679992 107.7834990  49.2559997 103.4829992 108.6284990  49.1289997
 102.8209992 108.3164990  51.2579997 102.1499992 107.5914990  51.7679997
 102.3309992 109.3114990  51.3169997 104.2289992 108.4654990  51.8919997
 104.7979992 109.2244990  51.3139997 104.7189992 107.4704990  51.9559997
 104.2459992 108.9154990  53.3319997 103.6839992 109.8744990  53.3499997
 105.3049992 109.0904990  53.6199997 103.5579992 107.9224990  54.2379997
 103.6419992 108.2564990  55.2939997 103.7699992 106.8354990  54.1459997
 102.5009992 108.0094990  53.9059997 102.6929992  32.1344990  54.9289997
 102.5739992  31.3394990  54.1619997 102.8869992  33.1544990  54.5339997
 101.6619992  32.1374990  55.3449997 103.5859992  31.9034990  56.0739997
 103.4719992  32.6634990  56.8759997 103.4739992  30.8464990  56.3989997
 105.0039992  32.1144990  55.3849997 104.8509992  32.1914990  54.2869997
 105.4119992  33.0734990  55.7689997 105.8429992  30.8274990  55.7059997
 106.8769992  31.1204990  55.4229997 105.8449992  30.6854990  56.8079997
 105.3319992  29.5074990  55.0379997 105.6439992  28.6884990  55.7209997
 104.2239992  29.4594990  54.9809997 105.9259992  29.1564990  53.6509997
 106.9609992  28.7544990  53.6309997 105.1409992  28.4304990  53.3499997
 105.8279992  30.3164990  52.6799997 104.8709992  30.8684990  52.7939997
 106.6769992  31.0134990  52.8499997 105.8889992  29.8284990  51.1629997
 106.8809992  29.3504990  51.0179997 105.1129992  29.0424990  51.0369997
 105.7559992  30.8784990  50.0729997 104.7129992  31.2614990  50.1039997
 106.4569992  31.6674990  50.4199997 106.1259992  30.2954990  48.6659997
 106.9749992  29.6044990  48.8549997 105.2179992  29.7784990  48.2879997
 106.4649992  31.2904990  47.5819997 105.6129992  31.9824990  47.4109997
 107.3589992  31.8414990  47.9429997 106.9509992  30.5154990  46.2489997
 107.2219992  31.2494990  45.4599997 107.8209992  29.8794990  46.5179997
 105.8059992  29.6704990  45.6469997 106.2239992  28.9764990  44.8859997
 105.4299992  29.0254990  46.4689997 104.7209992  30.4904990  44.8939997
 103.8259992  29.9824990  45.3129997 104.7529992  31.5674990  45.1639997
 104.6729992  30.3014990  43.3719997 104.9929992  29.2734990  43.0979997
 103.6339992  30.3554990  42.9819997 105.5249992  31.3234990  42.5469997
 105.8279992  32.4254990  42.9559997 105.9049992  30.7844990  41.4079997
 106.6659992  31.7034990  40.6369997 106.3479992  32.7674990  40.6749997
 107.7119992  31.5624990  40.9849997 106.5199992  31.1384990  39.1759997
 107.2509992  31.8034990  38.6679997 105.0359992  31.2274990  38.7179997
 104.6869992  32.1384990  39.2509997 104.9479992  31.4774990  37.6389997
 104.3309992  30.0324990  39.0979997 102.8049992  29.6494990  38.8429997
 102.5449992  30.3734990  37.4759997 101.2629992  30.0754990  36.7949997
 100.3779992  30.3674990  37.3989997 101.1829992  30.8884990  36.0429997
 101.2259992  28.6184990  36.1079997 101.2389992  27.9504990  36.9559997
 100.2559992  28.4034990  35.6839997 102.2829992  28.2424990  35.1249997
 102.2969992  26.8224990  34.7249997 102.9419992  26.7094990  33.8659997
 102.5729992  26.1544990  35.5269997 101.3029992  26.5514990  34.4019997
 102.0539992  29.1724990  33.9939997 102.5789992  28.8664990  33.1019997
 100.9949992  29.2134990  33.7829997 102.4799992  30.1524990  34.1509997
 103.6899992  28.4944990  35.6379997 104.4209992  28.2454990  34.8829997
 103.8489992  27.9824990  36.5759997 103.7239992  29.5714990  35.7189997
 102.6569992  28.1444990  38.7309997 102.0179992  30.3124990  39.9379997
 107.1339992  29.8324990  39.0779997 106.7799992  28.9904990  38.1389997
 106.4729992  29.2454990  36.9749997 107.0849992  27.5164990  38.6599997
 108.1229992  27.4334990  39.0469997 106.9349992  26.8684990  37.7709997
 106.0179992  27.1594990  39.7229997 105.0699992  27.3444990  39.1739997
 106.1559992  27.7464990  40.6559997 106.0039992  25.6824990  40.1349997
 107.0669992  25.4794990  40.3869997 105.7059992  25.0444990  39.2759997
 105.1509992  25.4644990  41.3759997 105.6579992  25.8164990  42.2999997
 105.0899992  24.3804990  41.6129997 103.7679992  25.9844990  41.3449997
 103.1529992  25.7694990  40.4449997 103.9009992  27.0864990  41.2899997
 102.9229992  25.5524990  42.6339997 103.5869992  25.7184990  43.5089997
 102.6149992  24.5034990  42.4349997 101.5649992  26.2674990  42.8399997
 100.8549992  25.6194990  43.3969997 101.1359992  26.2874990  41.8149997
 101.6119992  27.6754990  43.3149997 101.6959992  28.4444990  42.5329997
 101.7279992  28.1184990  44.6329997 101.7639992  29.1904990  44.8779997
 101.8179992  27.3134990  45.9119997 102.0729992  26.2464990  45.7329997
 100.8189992  27.3184990  46.3979997 102.7839992  27.6794990  47.0599997
 102.8679992  28.7504990  47.3429997 103.7449992  27.1854990  46.7999997
 102.3489992  27.1574990  48.4499997 101.8259992  26.1854990  48.3249997
 101.5199992  27.7654990  48.8699997 103.4229992  27.0354990  49.6059997
 103.9119992  28.0304990  49.5259997 104.0429992  26.1284990  49.4439997
 102.8489992  26.7674990  50.9999997 103.6149992  26.8564990  51.7999997
 102.4709992  25.7274990  51.0999997 101.6259992  27.5734990  51.3809997
 100.8079992  27.4954990  50.6339997 101.9719992  28.6224990  51.5019997
 100.9709992  27.1744990  52.7689997 100.7499992  26.0884990  52.6909997
 100.0099992  27.7314990  52.7959997 101.8709992  27.4554990  54.0269997
 102.4929992  26.5534990  54.2129997 101.3129992  27.7284990  54.9479997
 102.5199992  28.3204990  53.7699997 109.8829992  34.4354990  55.4139997
 108.8099992  34.3864990  55.1279997 109.9679992  35.4924990  55.7459997
 110.1209992  33.7174990  56.2279997 110.9729992  34.3304990  54.2699997
 110.6529992  34.9494990  53.4049997 111.9179992  34.8164990  54.5919997
 111.1839992  32.9584990  53.6529997 111.5149992  32.2354990  54.4299997
 110.2259992  32.5574990  53.2569997 112.2589992  32.8274990  52.5939997
 113.1439992  33.4744990  52.7789997 112.5589992  31.7664990  52.4599997
 111.7619992  33.3804990  51.2129997 110.6609992  33.2324990  51.1999997
 111.8909992  34.4814990  51.1409997 112.3219992  32.5284990  49.9719997
 113.3909992  32.2354990  50.0459997 111.8199992  31.5414990  50.0599997
 111.8249992  33.0714990  48.5669997 110.7429992  33.3244990  48.5599997
 112.4619992  33.9664990  48.4039997 112.0749992  31.9854990  47.4649997
 111.5559992  31.0904990  47.8689997 111.4029992  32.3064990  46.6409997
 113.5009992  31.9784990  46.9389997 113.8509992  33.0124990  46.7299997
 114.1399992  31.6114990  47.7699997 113.6329992  31.0054990  45.7399997
 114.7209992  30.7824990  45.7789997 113.1459992  30.0074990  45.7899997
 113.3929992  31.5284990  44.3109997 112.3319992  31.8534990  44.2809997
 114.0639992  32.4064990  44.1989997 113.8179992  30.4924990  43.2199997
 114.9219992  30.5904990  43.1479997 113.4819992  29.4814990  43.5359997
 113.2449992  30.7914990  41.8089997 112.1729992  30.5114990  41.8849997
 113.3729992  31.8664990  41.5579997 114.0929992  30.0314990  40.8449997
 115.0959992  30.4894990  40.9789997 114.1809992  28.9924990  41.2279997
 113.8039992  30.1884990  39.4139997 113.4279992  31.2074990  39.1799997
 114.7039992  29.9704990  38.8009997 112.7299992  29.1044990  38.9549997
 112.2669992  28.3494990  39.7829997 112.4269992  29.2674990  37.7429997
 111.6399992  28.2004990  37.1989997 111.7319992  28.1494990  36.0929997
 111.9609992  27.2224990  37.6189997 110.1319992  28.4394990  37.2779997
 109.6849992  27.4294990  37.1609997 109.7379992  29.4754990  36.1789997
 109.8199992  28.9274990  35.2159997 108.6769992  29.7224990  36.3959997
 110.4959992  30.6704990  36.2129997 110.1549992  31.6794990  35.0489997
 110.1619992  33.0734990  35.8599997 111.3199992  33.3144990  36.6849997
 112.2619992  32.8974990  36.2699997 111.5409992  34.4024990  36.7369997
 111.0119992  32.8314990  38.1399997 111.1709992  31.7634990  38.1639997
 111.7389992  33.1594990  38.8689997 109.6389992  33.1824990  38.7339997
 109.3639992  34.6404990  38.8509997 109.1729992  35.0814990  37.8839997
 108.4919992  34.7934990  39.4689997 110.2349992  35.0784990  39.3159997
 108.3679992  32.5694990  38.1619997 108.3199992  32.8684990  37.1259997
 108.3609992  31.4904990  38.2169997 107.5179992  33.0174990  38.6549997
 109.8559992  32.6194990  40.1609997 108.9019992  32.6644990  40.6659997
 110.6589992  33.1484990  40.6529997 109.9979992  31.5714990  39.9459997
 111.2539992  31.6784990  34.0939997 108.7789992  31.4834990  34.5229997
 109.8099992  28.9494990  38.5909997 108.5249992  28.6194990  38.8459997
 107.6879992  28.0924990  38.1339997 108.2209992  29.0264990  40.2799997
 107.3159992  28.3874990  40.3649997 107.9449992  30.1014990  40.3369997
 109.2879992  28.5824990  41.2589997 110.1019992  29.2444990  40.8949997
 109.6169992  27.5334990  41.1009997 109.1409992  28.7854990  42.7849997
 108.1599992  28.3474990  43.0649997 109.0129992  29.8544990  43.0609997
 110.2999992  28.1014990  43.4359997 111.2079992  28.4664990  42.9099997
 110.0919992  27.0204990  43.2829997 110.5249992  28.3024990  44.9399997
 109.5799992  28.0604990  45.4719997 110.8009992  29.3574990  45.1499997
 111.6719992  27.3514990  45.4879997 112.5459992  27.8474990  45.0119997
 111.4469992  26.3294990  45.1159997 111.8669992  27.4544990  47.0119997
 112.2439992  28.4674990  47.2679997 112.7149992  26.7864990  47.2749997
 110.6389992  26.9144990  47.7739997 110.0809992  26.1074990  47.2759997
 110.2599992  27.3094990  49.0089997 109.3039992  26.9314990  49.3989997
 110.9369992  28.3394990  49.8929997 110.9079992  29.3554990  49.4449997
 112.0119992  28.0704990  49.8239997 110.5459992  28.4364990  51.3759997
 109.4719992  28.6984990  51.4929997 111.0559992  29.2894990  51.8729997
 110.7849992  27.1554990  52.1599997 111.8659992  27.0754990  52.4039997
 110.5089992  26.3374990  51.4609997 109.9469992  27.1144990  53.5389997
 110.0909992  26.1234990  54.0209997 108.8799992  27.2314990  53.2509997
 110.3369992  28.1304990  54.5619997 110.2969992  29.2014990  54.2719997
 111.3579992  27.9024990  54.9379997 109.3979992  27.9974990  55.8049997
 109.2239992  26.9094990  55.9429997 108.4059992  28.4284990  55.5519997
 109.7789992  28.7464990  57.1269997 110.5039992  28.0794990  57.6419997
 108.8779992  28.9184990  57.7539997 110.5109992  30.0824990  56.9469997
 109.9389992  30.8264990  56.3519997 111.5219992  29.9424990  56.5079997
 110.8069992  30.5894990  57.8899997 106.1499992 100.8064990  53.9579997
 106.5439992 101.8444990  53.9179997 105.5549992 100.5814990  54.8689997
 105.2929992 100.6914990  53.2599997 107.0539992  99.6494990  53.6569997
 107.8499992  99.4454990  54.4049997 106.3719992  98.7814990  53.7709997
 107.6909992  99.5924990  52.3329997 108.2699992  98.6604990  52.1589997
 106.8579992  99.6564990  51.6009997 108.7599992 100.6714990  52.1609997
 108.3029992 101.6814990  52.2409997 109.5249992 100.5534990  52.9579997
 109.5499992 100.6484990  50.8709997 109.9229992  99.6114990  50.7309997
 108.8869992 100.8754990  50.0089997 110.7059992 101.7154990  50.9009997
 111.3469992 101.8714990  51.7949997 111.4199992 101.3944990  50.1139997
 110.3259992 103.1134990  50.3949997 109.4889992 103.5674990  50.9669997
 111.2109992 103.7784990  50.4889997 109.9089992 103.1104990  48.9259997
 110.6049992 102.5704990  48.2479997 108.9169992 102.6554990  48.7169997
 109.8469992 104.5254990  48.3849997 109.1819992 105.0684990  49.0889997
 110.8819992 104.9284990  48.4069997 109.2249992 104.7064990  46.9599997
 109.8799992 104.0974990  46.3009997 108.1919992 104.3194990  47.0939997
 109.1069992 106.1344990  46.4579997 108.7049992 106.6274990  47.3689997
 110.1609992 106.4864990  46.4489997 108.2139992 106.3024990  45.2329997
 108.1419992 107.3724990  44.9439997 108.7659992 105.8414990  44.3869997
 106.7049992 105.8004990  45.3489997 106.7359992 104.6894990  45.3579997
 106.1989992 106.0304990  46.3099997 105.7939992 106.1674990  44.1759997
 104.7659992 105.8174990  44.4129997 105.6679992 107.2674990  44.0819997
 106.1949992 105.5994990  42.7799997 106.6759992 104.6274990  43.0199997
 105.2539992 105.5334990  42.1919997 107.1859992 106.3254990  41.9159997
 107.6779992 107.4294990  42.0899997 107.6209992 105.4464990  41.0659997
 108.9319992 105.6654990  40.5839997 109.0979992 106.5694990  39.9579997
 109.5699992 105.7964990  41.4839997 109.4479992 104.5164990  39.7549997
 110.5389992 104.4164990  39.9379997 109.2979992 104.7714990  38.2289997
 109.8529992 105.7154990  38.0459997 109.7529992 103.9244990  37.6729997
 107.9029992 104.8204990  37.9589997 107.4389992 104.5514990  36.4549997
 107.1099992 102.9604990  36.4219997 106.6509992 102.3534990  37.6049997
 107.2989992 102.5094990  38.4939997 105.6409992 102.7764990  37.7909997
 106.6209992 100.7554990  37.4979997 106.1779992 100.3624990  38.4009997
 106.0279992 100.5704990  36.6139997 107.9829992 100.0784990  37.2609997
 107.7259992  98.6274990  36.8359997 107.0259992  98.6224990  36.0129997
 108.6479992  98.1994990  36.4719997 107.2929992  97.9964990  37.5979997
 108.7949992 100.7834990  36.1969997 109.7799992 100.3624990  36.0559997
 108.2089992 100.8314990  35.2909997 109.0679992 101.7384990  36.6209997
 108.8679992 100.0874990  38.5119997 108.2909992  99.7304990  39.3519997
 109.1199992 101.0814990  38.8499997 109.7829992  99.5264990  38.3979997
 106.1379992 105.2404990  36.3049997 108.4789992 104.6874990  35.4229997
 108.8209992 103.2824990  40.0319997 108.7209992 102.8114990  41.3349997
 109.4759992 103.1474990  42.2339997 107.5319992 101.7904990  41.4629997
 107.8449992 100.8124990  41.0399997 106.6429992 102.1154990  40.8819997
 107.0729992 101.5684990  42.9349997 106.9069992 102.5344990  43.4589997
 107.9279992 100.9814990  43.3329997 105.7799992 100.9404990  43.2199997
 105.6069992 100.0014990  42.6529997 105.0569992 101.6514990  42.7679997
 105.5349992 100.6944990  44.7089997 105.9359992 101.3964990  45.4719997
 106.1649992  99.7844990  44.8079997 104.1289992 100.1764990  45.0059997
 103.6909992  99.8134990  44.0509997 103.5239992 101.0774990  45.2479997
 103.9629992  99.1804990  46.1249997 104.3949992  98.2054990  45.8119997
 102.8969992  98.8724990  46.1679997 104.4699992  99.6854990  47.4699997
 105.4729992 100.1634990  47.4589997 104.5909992  98.9314990  48.2769997
 103.4809992 100.7304990  48.0409997 102.4089992 100.5354990  47.8939997
 103.8189992 101.9424990  48.6439997 103.0479992 102.6164990  49.0459997
 105.2459992 102.4334990  48.7589997 105.6369992 102.3564990  47.7219997
 105.8149992 101.7894990  49.4629997 105.3219992 103.9304990  49.1789997
 104.3139992 104.3294990  48.9359997 106.1129992 104.4754990  48.6209997
 105.6969992 104.0644990  50.6679997 106.6029992 103.5454990  51.0459997
 104.9109992 103.5914990  51.2959997 105.8849992 105.5584990  51.0269997
 104.9639992 106.0874990  50.6999997 106.7629992 105.9764990  50.4909997
 106.2159992 105.8634990  52.5199997 105.1709992 105.8764990  52.8969997
 106.7159992 106.8474990  52.6459997 107.0439992 104.8354990  53.2939997
 107.9529992 104.6844990  52.6749997 106.4389992 103.9044990  53.3239997
 107.4729992 105.3474990  54.7299997 108.1149992 106.2204990  54.4849997
 108.0629992 104.5534990  55.2359997 106.3519992 105.7174990  55.6739997
 105.7869992 104.7874990  55.8959997 105.6269992 106.4824990  55.3219997
 106.7779992 106.0754990  56.6369997  30.9359992  28.6254990  56.3569997
  30.4209992  29.5304990  55.9709997  31.7039992  28.8694990  57.1229997
  30.1199992  27.9994990  56.7779997  31.3889992  27.9004990  55.0679997
  31.8549992  26.9064990  55.2389997  30.4999992  27.7494990  54.4189997
  32.3339992  28.7814990  54.2199997  33.1709992  29.0194990  54.9109997
  32.7179992  28.1264990  53.4089997  31.9029992  30.1624990  53.5549997
  31.8469992  30.8094990  54.4559997  32.7709992  30.5274990  52.9649997
  30.6859992  29.9644990  52.5879997  30.9339992  29.0844990  51.9569997
  29.7689992  29.7404990  53.1729997  30.3469992  31.2204990  51.7119997
  29.9989992  31.8564990  52.5549997  31.2769992  31.7284990  51.3789997
  29.1009992  31.0674990  50.7939997  28.1579992  30.8204990  51.3279997
  28.8779992  32.0314990  50.2899997  29.3899992  30.0624990  49.6239997
  29.5969992  29.0694990  50.0759997  28.4969992  29.8564990  48.9959997
  30.5369992  30.4944990  48.6009997  30.3679992  31.5664990  48.3609997
  31.5619992  30.4394990  49.0249997  30.5659992  29.6214990  47.3349997
  29.5759992  29.6944990  46.8359997  31.2559992  30.1224990  46.6229997
  31.0449992  28.1574990  47.5559997  32.1129992  28.2514990  47.8469997
  30.5169992  27.7044990  48.4229997  30.9379992  27.1944990  46.3169997
  31.2199992  26.1574990  46.5999997  29.8619992  27.2074990  46.0409997
  31.8919992  27.5814990  45.1759997  31.4459992  28.4914990  44.7209997
  32.9279992  27.7104990  45.5559997  31.9909992  26.4834990  44.1819997
  32.8979992  26.6814990  43.5709997  32.3889992  25.7044990  44.8669997
  30.6869992  26.1304990  43.3759997  30.5529992  25.0484990  43.1599997
  29.7549992  26.5394990  43.8199997  30.6379992  26.9434990  42.0699997
  31.1169992  26.5724990  41.0519997  29.8729992  28.0544990  42.2669997
  29.6469992  28.9454990  41.1849997  30.2769992  28.6864990  40.3069997
  28.5859992  28.8894990  40.8579997  29.9989992  30.4164990  41.5999997
  29.1649992  30.8654990  42.1809997  29.9909992  31.3354990  40.3019997
  29.1229992  31.0494990  39.6709997  29.8219992  32.3634990  40.6889997
  31.2009992  31.1794990  39.4679997  31.1429992  32.0974990  38.1799997
  31.2639992  31.0844990  36.9599997  31.9409992  29.8704990  37.2399997
  32.7119992  29.9344990  38.0379997  31.1289992  29.2044990  37.5999997
  32.7479992  29.2384990  36.0789997  33.0799992  28.2854990  36.4639997
  32.1969992  29.0864990  35.1629997  34.0019992  29.9944990  35.7419997
  33.6839992  31.4644990  35.2939997  32.9779992  31.3024990  34.4939997
  33.2239992  31.9154990  36.1609997  34.6919992  31.7844990  35.0729997
  34.9859992  30.1514990  36.9059997  35.2699992  29.1874990  37.3009997
  35.8739992  30.6724990  36.5769997  34.5879992  30.7164990  37.7359997
  34.6949992  29.2634990  34.6179997  35.7349992  29.5524990  34.6589997
  34.2489992  29.4364990  33.6489997  34.5319992  28.2214990  34.8489997
  29.8009992  32.7064990  37.8719997  32.4269992  32.9564990  38.1119997
  31.2839992  30.4434990  42.1849997  31.6169992  31.6024990  42.7939997
  30.8259992  32.4944990  42.9529997  33.1149992  31.6964990  43.1689997
  33.2529992  32.6864990  43.6549997  33.7009992  31.6944990  42.2259997
  33.4129992  30.4334990  43.9549997  33.0129992  29.4924990  43.5229997
  32.8759992  30.4974990  44.9259997  34.9609992  30.2894990  44.2539997
  35.5469992  30.2684990  43.3099997  35.2109992  29.3024990  44.6989997
  35.5809992  31.3954990  45.1289997  35.3529992  32.3674990  44.6419997
  36.6909992  31.3554990  45.1169997  35.0209992  31.4944990  46.6099997
  33.9229992  31.3774990  46.4859997  35.2939992  32.5024990  46.9909997
  35.3949992  30.3554990  47.5119997  36.3799992  29.9844990  47.1549997
  34.6249992  29.5574990  47.4489997  35.6399992  30.7814990  48.9319997
  36.4729992  31.5154990  48.9089997  36.0669992  29.9184990  49.4879997
  34.3939992  31.2304990  49.5819997  33.6159992  30.4774990  49.7809997
  34.0589992  32.4414990  50.0459997  33.0939992  32.6954990  50.5089997
  34.9819992  33.5894990  49.9449997  35.3449992  33.6274990  48.8959997
  35.8279992  33.3694990  50.6299997  34.3079992  34.9374990  50.4319997
  33.5159992  35.2644990  49.7239997  35.0179992  35.7804990  50.5719997
  33.6539992  34.8984990  51.8599997  32.8759992  34.1144990  51.9779997
  33.2169992  35.9114990  51.9889997  34.7469992  34.6134990  52.9829997
  35.5419992  35.3884990  52.9669997  35.3069992  33.6754990  52.7829997
  34.1379992  34.6914990  54.3569997  33.3019992  33.9664990  54.4609997
  33.7459992  35.7204990  54.4989997  35.1149992  34.5484990  55.5229997
  34.7809992  35.2104990  56.3499997  36.1369992  34.9154990  55.2859997
  35.2809992  33.1914990  56.2339997  36.1109992  33.4574990  56.9229997
  35.5469992  32.3654990  55.5399997  34.1229992  32.7804990  57.0769997
  33.2559992  33.0334990  56.4299997  34.2879992  33.4164990  57.9729997
  34.1209992  31.7044990  57.3539997  90.7699992 112.4094990  54.1529997
  90.9069992 111.3074990  54.1279997  89.9489992 112.5124990  53.4109997
  90.4049992 112.6574990  55.1729997  92.0229992 113.1694990  53.8679997
  92.8559992 112.9634990  54.5739997  92.4479992 112.7864990  52.9159997
  91.8309992 114.7004990  53.8849997  91.4089992 114.9734990  54.8759997
  92.8749992 115.0554990  53.7479997  91.1689992 115.2444990  52.6699997
  90.3419992 114.6174990  52.2719997  90.7499992 116.2554990  52.8629997
  92.1319992 115.3034990  51.4729997  93.0659992 115.8764990  51.6549997
  92.4769992 114.2494990  51.4239997  91.6699992 115.7504990  50.0539997
  91.6159992 116.8604990  50.0649997  92.4629992 115.4674990  49.3289997
  90.4419992 115.0934990  49.5709997  89.5529992 115.0664990  50.2359997
  90.1669992 115.6884990  48.6729997  90.7499992 113.6674990  49.0069997
  91.7309992 113.7504990  48.4919997  90.8749992 112.8164990  49.7109997
  89.7209992 113.2344990  47.9809997  89.3239992 114.0934990  47.3999997
  90.3589992 112.5824990  47.3459997  88.6139992 112.3974990  48.5229997
  89.0419992 111.4284990  48.8599997  88.1419992 112.7784990  49.4539997
  87.5479992 112.2184990  47.4079997  86.6319992 111.7434990  47.8209997
  87.2069992 113.2314990  47.1029997  88.0449992 111.4594990  46.1569997
  88.8019992 112.1454990  45.7199997  88.6629992 110.6664990  46.6299997
  87.0359992 110.9224990  45.1269997  86.1749992 110.2674990  45.3829997
  86.5979992 111.8684990  44.7429997  87.8829992 110.2514990  43.9639997
  88.5789992 111.0744990  43.6979997  88.4249992 109.4264990  44.4739997
  87.0829992 109.9394990  42.6719997  86.3429992 109.1154990  42.7599997
  86.5379992 110.8274990  42.2859997  88.2559992 109.6304990  41.6119997
  89.4689992 109.7704990  41.8019997  87.6459992 109.3974990  40.4079997
  88.5239992 109.2934990  39.2509997  89.6069992 109.1994990  39.4809997
  88.1259992 108.4054990  38.7149997  88.5659992 110.5014990  38.3339997
  87.5309992 110.8064990  38.0709997  89.2999992 110.4314990  36.9429997
  90.3069992 109.9634990  36.9489997  88.6469992 109.7924990  36.3109997
  89.2989992 111.7024990  36.3099997  90.3979992 112.3894990  35.4599997
  91.7439992 111.8954990  36.0399997  92.1129992 112.3514990  37.3819997
  92.3109992 113.4444990  37.3629997  91.2879992 112.1844990  38.1069997
  93.4059992 111.7924990  37.9949997  94.2439992 112.1094990  37.3929997
  93.4709992 112.2374990  38.9769997  93.5309992 110.2654990  38.2879997
  92.3269992 109.8104990  39.1639997  92.1449992 110.6694990  39.7919997
  91.5829992 109.6664990  38.3949997  92.5879992 108.8914990  39.6659997
  93.6589992 109.3924990  37.0389997  93.6549992 108.3334990  37.2529997
  92.7969992 109.7424990  36.4909997  94.6049992 109.5534990  36.5429997
  94.7979992 109.9724990  39.1579997  94.9549992 110.7094990  39.9319997
  95.6719992 109.9174990  38.5249997  94.5829992 109.0424990  39.6639997
  90.2349992 111.8534990  34.0569997  90.3169992 113.8324990  35.5789997
  89.1689992 111.5614990  39.0349997  88.3609992 112.4534990  39.6119997
  87.1839992 112.2844990  39.8159997  89.1979992 113.6414990  39.8569997
  88.8179992 114.4904990  39.2499997  90.2849992 113.6374990  39.6289997
  89.0709992 114.0804990  41.3209997  88.0159992 114.2014990  41.6489997
  89.5009992 115.1044990  41.2959997  89.7759992 113.1914990  42.3829997
  89.2109992 112.2444990  42.2459997  89.5329992 113.5134990  43.4179997
  91.2699992 112.7384990  42.1269997  91.4119992 112.3634990  41.0909997
  91.5099992 111.8724990  42.7809997  92.2699992 113.8554990  42.4369997
  92.0529992 114.2164990  43.4659997  92.1149992 114.6224990  41.6489997
  93.7999992 113.5704990  42.4589997  94.2469992 114.5884990  42.4599997
  94.1439992 113.1274990  41.4999997  94.2259992 112.7504990  43.6209997
  93.8499992 113.1974990  44.5659997  95.3279992 112.7684990  43.7609997
  93.9679992 111.2384990  43.4939997  94.6539992 110.8294990  42.7379997
  93.0459992 110.3874990  44.1899997  93.0189992 109.3474990  43.8319997
  92.0319992 110.6504990  45.2609997  90.9879992 110.5034990  44.9099997
  92.1519992 111.7134990  45.5599997  92.1959992 109.8824990  46.6569997
  91.7169992 110.5394990  47.4139997  93.2759992 110.0214990  46.8739997
  91.6839992 108.4644990  46.6249997  92.3749992 107.9604990  45.9169997
  90.6659992 108.6094990  46.2049997  91.6129992 107.8164990  48.0579997
  92.5829992 107.8264990  48.6009997  91.3429992 106.7434990  47.9679997
  90.4779992 108.3754990  48.9679997  89.5219992 107.9274990  48.6209997
  90.5429992 109.4774990  48.8429997  90.6379992 108.1174990  50.5129997
  91.4549992 108.7524990  50.9169997  90.7169992 107.0364990  50.7539997
  89.4449992 108.5464990  51.2309997  88.5649992 108.0924990  50.7279997
  89.4659992 109.6524990  51.1199997  89.4359992 108.2014990  52.6799997
  90.2849992 108.5544990  53.3039997  89.4709992 107.1044990  52.8469997
  88.4849992 108.5784990  53.1139997  48.5999992 118.4564990  53.7159997
  49.1399992 119.2834990  54.2239997  48.6569992 117.4834990  54.2489997
  47.5309992 118.7394990  53.8209997  49.1069992 118.4914990  52.2699997
  49.1669992 119.5134990  51.8379997  50.1519992 118.1204990  52.2039997
  48.2579992 117.6594990  51.2149997  48.6869992 117.7124990  50.1909997
  48.1619992 116.6184990  51.5909997  46.7889992 118.1104990  51.0749997
  46.3229992 117.9044990  52.0619997  46.7509992 119.1934990  50.8279997
  45.9879992 117.3724990  50.0059997  44.9289992 117.6474990  50.2009997
  46.2979992 117.7194990  48.9969997  46.0569992 115.8654990  50.0669997
  47.1189992 115.5494990  49.9889997  45.7129992 115.4254990  51.0269997
  45.1939992 115.1294990  49.0009997  45.3779992 114.0334990  48.9809997
  44.1079992 115.2784990  49.1789997  45.4849992 115.5414990  47.5609997
  45.6379992 116.6374990  47.4569997  46.4949992 115.1434990  47.3259997
  44.6119992 114.9654990  46.4379997  43.7349992 115.5814990  46.1449997
  45.2529992 115.0664990  45.5349997  44.2939992 113.5514990  46.5639997
  45.1779992 113.0104990  46.9639997  43.3799992 113.3924990  47.1759997
  43.8919992 112.8084990  45.2099997  44.7309992 112.8734990  44.4839997
  43.5689992 111.7974990  45.5379997  42.7699992 113.4034990  44.3879997
  42.2169992 112.6384990  43.8029997  42.0099992 113.8674990  45.0529997
  43.2939992 114.5044990  43.4739997  42.3879992 114.8434990  42.9269997
  43.7429992 115.3754990  43.9969997  44.3639992 114.1004990  42.3689997
  45.3679992 113.8664990  42.7829997  43.9989992 113.1534990  41.9169997
  44.5119992 115.1154990  41.2119997  45.0289992 114.5894990  40.3799997
  43.4929992 115.4494990  40.9219997  45.3689992 116.3294990  41.5899997
  45.2379992 116.9124990  42.6379997  46.3299992 116.5004990  40.6779997
  47.3699992 117.3544990  40.8119997  47.5499992 117.8914990  39.8559997
  47.1909992 118.1334990  41.5839997  48.6979992 116.5194990  40.9579997
  49.5159992 117.2294990  41.2059997  49.0759992 115.7814990  39.5879997
  49.1619992 116.5214990  38.7639997  50.0219992 115.2334990  39.7839997
  48.0309992 114.9094990  39.2099997  48.0389992 114.3834990  37.7189997
  47.3559992 115.6214990  36.9999997  46.8649992 115.5744990  35.6889997
  47.5429992 116.1324990  35.0079997  46.7499992 114.5414990  35.2959997
  45.5389992 116.3044990  35.4679997  45.6059992 117.3624990  35.2589997
  45.1459992 115.9164990  34.5399997  44.3519992 116.1894990  36.4119997
  44.6039992 116.9784990  37.6359997  44.0169992 116.7684990  38.5169997
  45.6229992 116.8704990  37.9789997  44.4639992 118.0314990  37.4409997
  43.0959992 116.7824990  35.7139997  42.9439992 116.1324990  34.8649997
  42.1789992 116.6234990  36.2619997  43.3679992 117.7864990  35.4259997
  44.1619992 114.7914990  36.8749997  43.7609992 114.2334990  36.0419997
  43.5369992 114.7564990  37.7559997  45.0839992 114.3554990  37.2289997
  49.4629992 114.2964990  37.2189997  47.1479992 113.1884990  37.5299997
  48.5489992 115.5164990  42.0239997  48.7509992 116.0184990  43.2809997
  49.2699992 117.1354990  43.5359997  48.2399992 115.0694990  44.4779997
  47.2859992 115.4664990  44.8859997  49.0569992 115.2164990  45.2159997
  48.2269992 113.6074990  44.1459997  49.1769992 113.4174990  43.6009997
  47.3849992 113.4134990  43.4469997  48.1049992 112.6184990  45.3089997
  47.1009992 112.6664990  45.7819997  48.8309992 112.9164990  46.0949997
  48.4969992 111.1424990  44.9449997  49.5699992 111.0014990  44.6909997
  47.9109992 110.9764990  44.0159997  47.9929992 110.0714990  45.9039997
  48.0099992 109.2764990  45.1269997  46.9519992 110.2484990  46.2509997
  49.0769992 109.8994990  46.9629997  50.0939992 110.0834990  46.5549997
  49.1629992 108.8084990  47.1539997  48.7009992 110.5754990  48.3119997
  47.6209992 110.3294990  48.3959997  48.7539992 111.6844990  48.2749997
  49.4669992 109.9174990  49.4239997  49.2429992 108.8604990  49.6269997
  50.3819992 110.5184990  50.2149997  50.8359992 109.9184990  51.0169997
  50.8409992 111.9374990  50.1009997  50.7869992 112.3054990  49.0539997
  51.8819992 112.1694990  50.4119997  49.9509992 112.7724990  51.0119997
  48.8909992 112.5374990  50.7749997  50.0499992 113.8314990  50.6899997
  50.3369992 112.8424990  52.4789997  51.3669992 113.1644990  52.7429997
  50.3879992 111.8674990  53.0089997  49.5489992 113.9204990  53.2789997
  49.8239992 114.8654990  52.7639997  49.9159992 113.9634990  54.3269997
  48.0089992 113.7214990  53.3029997  47.7919992 112.8554990  53.9639997
  47.6319992 113.4364990  52.2979997  47.1959992 114.9444990  53.9639997
  46.1739992 114.5104990  53.9109997  47.2299992 115.7924990  53.2469997
  47.7139992 115.3354990  55.3889997  47.0749992 116.1784990  55.7289997
  48.8049992 115.5444990  55.3839997  47.6879992 114.2684990  56.5359997
  47.8119992 113.2414990  56.1309997  46.7239992 114.3544990  57.0809997
  48.5299992 114.5694990  57.1959997  53.0809992 121.2674990  54.3399997
  53.9829992 121.7984990  53.9669997  52.7939992 121.6364990  55.3479997
  52.2609992 121.4554990  53.6139997  53.2909992 119.7454990  54.3749997
  54.2019992 119.3824990  54.8979997  52.4759992 119.2514990  54.9469997
  52.9349992 119.0804990  53.0379997  52.8109992 117.9794990  53.1229997
  51.9519992 119.3714990  52.6079997  53.9819992 119.3604990  51.8829997
  54.9999992 119.4534990  52.3189997  54.0589992 118.5744990  51.1029997
  53.7239992 120.6364990  51.1679997  52.6239992 120.7324990  51.0419997
  53.9449992 121.5244990  51.7969997  54.3489992 120.6624990  49.8139997
  54.4269992 121.7274990  49.5059997  55.3879992 120.2984990  49.9659997
  53.6459992 119.8344990  48.7179997  53.1759992 118.9474990  49.1939997
  52.7469992 120.4634990  48.5399997  54.4789992 119.4774990  47.4509997
  55.0269992 120.4254990  47.2629997  55.2779992 118.7584990  47.7329997
  53.5149992 118.9114990  46.4279997  53.1879992 117.8964990  46.7389997
  52.6299992 119.5824990  46.4809997  54.1699992 118.6614990  45.0639997
  54.3769992 119.6264990  44.5539997  55.0989992 118.1784990  45.4369997
  53.3989992 117.8044990  44.0969997  52.4499992 118.2724990  43.7579997
  54.0379992 117.5434990  43.2269997  52.9479992 116.4394990  44.7059997
  53.8199992 116.2044990  45.3529997  52.1109992 116.4914990  45.4349997
  52.6089992 115.3504990  43.7579997  53.4519992 115.1344990  43.0669997
  52.3069992 114.3734990  44.1929997  51.3779992 115.7304990  42.8409997
  50.4479992 115.3924990  43.3459997  51.3359992 116.8344990  42.7239997
  51.6099992 115.2404990  41.3669997  52.3729992 115.9494990  40.9819997
  52.0309992 114.2114990  41.3619997  50.2709992 115.2844990  40.5419997
  49.1919992 115.4214990  41.0439997  50.5539992 115.1764990  39.2799997
  49.5229992 115.5414990  38.3219997  49.8699992 115.1564990  37.3399997
  48.5369992 115.0724990  38.5259997  49.5069992 117.1174990  38.1859997
  48.6919992 117.3334990  37.4619997  50.6669992 117.9394990  37.6659997
  50.8679992 117.6234990  36.6189997  50.3999992 119.0174990  37.6899997
  51.8039992 117.8524990  38.6319997  53.1799992 117.2364990  38.2019997
  53.5519992 118.1794990  36.9839997  54.2909992 119.3934990  37.3729997
  53.8819992 119.9884990  38.2169997  55.3499992 119.1544990  37.6089997
  54.5179992 120.3744990  36.1419997  55.1939992 121.0914990  36.5839997
  54.9499992 119.8174990  35.3239997  53.2819992 121.1544990  35.6259997
  52.3299992 120.1984990  35.0609997  51.9979992 119.5724990  35.8759997
  51.5399992 120.7504990  34.5739997  52.8959992 119.6454990  34.3259997
  52.7179992 121.9134990  36.8309997  53.4699992 122.5924990  37.2049997
  51.8799992 122.5034990  36.4889997  52.3079992 121.2094990  37.5399997
  53.7549992 122.1734990  34.6209997  54.0009992 121.6974990  33.6829997
  54.5909992 122.7544990  34.9819997  52.9189992 122.7914990  34.3299997
  54.1209992 117.2744990  39.3559997  52.8769992 115.8574990  37.6419997
  49.2699992 117.6194990  39.5389997  48.6639992 118.8704990  39.6069997
  48.2929992 119.5394990  38.6449997  48.5379992 119.2884990  41.0639997
  48.1449992 118.3974990  41.5989997  47.8649992 120.1514990  41.2539997
  50.0069992 119.5114990  41.7339997  50.5149992 120.3124990  41.1549997
  50.6489992 118.6244990  41.5489997  50.0879992 119.8564990  43.1979997
  49.6779992 120.8824990  43.3149997  51.1729992 119.8884990  43.4329997
  49.4479992 118.8364990  44.0679997  49.5819992 117.8154990  43.6519997
  48.3739992 119.1104990  44.1379997  49.8639992 118.9894990  45.5039997
  49.7559992 120.0434990  45.8379997  50.9429992 118.7234990  45.5259997
  49.2409992 117.9584990  46.4729997  49.4249992 116.9934990  45.9529997
  48.1359992 118.0274990  46.5619997  49.9129992 117.8464990  47.8669997
  49.9399992 118.7934990  48.4479997  50.9969992 117.7704990  47.6379997
  49.3159992 116.8274990  48.7409997  48.3279992 117.1574990  49.0949997
  49.8529992 115.6904990  49.1569997  49.1839992 114.9944990  49.6859997
  51.2409992 115.1014990  48.9179997  51.5679992 115.3154990  47.8779997
  51.1879992 113.9994990  49.0459997  52.3339992 115.6184990  49.9389997
  52.3659992 116.6874990  49.6359997  53.3129992 115.1644990  49.6759997
  51.8179992 115.5654990  51.4339997  51.0689992 114.7444990  51.4439997
  51.3619992 116.5324990  51.7379997  52.9509992 115.3144990  52.4659997
  53.6679992 116.1624990  52.4229997  53.4889992 114.3934990  52.1539997
  52.2949992 115.0004990  53.8109997  51.4159992 114.3344990  53.6819997
  51.7999992 115.9574990  54.0839997  53.1359992 114.4384990  54.9749997
  53.7559992 113.6014990  54.5909997  52.4889992 113.9824990  55.7549997
  54.2429992 115.4604990  55.3509997  54.7799992 115.7744990  54.4309997
  54.9929992 115.0174990  56.0409997  53.7259992 116.6594990  56.0999997
  54.5149992 117.3844990  56.3929997  53.0699992 116.4824990  56.9789997
  53.0089992 117.2614990  55.5019997  89.1389992  19.1424990  56.9209997
  89.6479992  19.2544990  57.9019997  88.6089992  18.1694990  56.9929997
  88.3819992  19.8934990  56.6089997  90.3099992  19.1704990  55.8609997
  91.0619992  18.3904990  56.1099997  89.8709992  18.9664990  54.8619997
  90.9749992  20.5044990  55.6949997  91.6219992  20.6544990  56.5849997
  91.7089992  20.3694990  54.8719997  90.1949992  21.7614990  55.4809997
  89.4229992  21.7984990  56.2789997  90.8669992  22.6454990  55.5019997
  89.4659992  21.8884990  54.0939997  89.4179992  22.9654990  53.8259997
  90.0819992  21.2984990  53.3819997  88.0589992  21.2564990  54.0259997
  88.2589992  20.1644990  53.9669997  87.4319992  21.4364990  54.9249997
  87.2389992  21.7414990  52.8589997  86.3459992  21.0844990  52.9339997
  86.7999992  22.7414990  53.0649997  87.8019992  21.5494990  51.4499997
  87.0459992  21.8574990  50.6969997  88.6139992  22.2774990  51.2379997
  88.3609992  20.2304990  51.1389997  89.2469992  20.0524990  51.7859997
  87.5569992  19.4844990  51.3149997  88.7989992  19.9074990  49.6299997
  89.3839992  20.7554990  49.2119997  89.5369992  19.0774990  49.6289997
  87.6949992  19.6384990  48.6379997  86.9479992  18.9144990  49.0279997
  87.1639992  20.6034990  48.4889997  88.1689992  19.2314990  47.2309997
  88.8209992  18.3554990  47.4349997  87.3219992  18.8064990  46.6509997
  88.9989992  20.3334990  46.4759997  88.3299992  21.2184990  46.4229997
  89.9329992  20.5824990  47.0229997  89.1929992  19.8994990  45.0119997
  89.9399992  19.1244990  44.7359997  88.2769992  19.3604990  44.6889997
  89.4819992  21.0854990  44.1639997  88.8729992  21.9334990  44.5429997
  90.5319992  21.4084990  44.3309997  89.0969992  20.9714990  42.7039997
  88.2209992  21.6294990  42.1119997  89.8839992  20.1294990  42.1349997
  89.6309992  19.8034990  40.7609997  89.5379992  20.6954990  40.1049997
  90.5559992  19.3194990  40.3809997  88.4069992  18.8834990  40.4259997
  88.5959992  17.9454990  40.9889997  88.5069992  18.5624990  38.9629997
  89.1189992  19.3354990  38.4519997  89.0399992  17.5974990  38.8269997
  87.1909992  18.5954990  38.4349997  86.9949992  18.4484990  36.8099997
  86.6379992  19.9594990  36.4009997  85.7159992  20.6204990  37.3029997
  84.7469992  20.0964990  37.4489997  86.1839992  20.6974990  38.3069997
  85.3879992  22.0514990  36.8969997  84.9649992  22.0514990  35.9039997
  84.6139992  22.3724990  37.5789997  86.5209992  23.0994990  37.0199997
  87.6819992  22.5954990  36.1949997  87.3489992  22.4024990  35.1859997
  88.4509992  23.3524990  36.1779997  88.1149992  21.6424990  36.4589997
  85.9829992  24.3564990  36.4409997  85.1109992  24.6844990  36.9879997
  86.6889992  25.1714990  36.3839997  85.7709992  24.1904990  35.3949997
  86.8989992  23.2924990  38.4409997  87.8869992  22.9024990  38.6389997
  86.0739992  23.0824990  39.1049997  86.9729992  24.3624990  38.5629997
  88.2089992  18.1534990  36.0599997  85.8209992  17.5684990  36.4699997
  87.2189992  19.5464990  40.8529997  86.5899992  18.9664990  41.7999997
  86.7729992  17.8944990  42.3339997  85.4539992  19.8944990  42.3469997
  84.5639992  19.7954990  41.6889997  85.8259992  20.9284990  42.5109997
  85.0139992  19.3314990  43.6459997  85.8129992  19.1724990  44.4009997
  84.5419992  18.3344990  43.5209997  83.8369992  20.1254990  44.2889997
  82.9979992  20.2584990  43.5729997  84.2529992  21.1114990  44.5879997
  83.0429992  19.4004990  45.4299997  83.2229992  18.3044990  45.3879997
  81.9639992  19.5644990  45.2249997  83.2759992  19.9484990  46.8359997
  83.0019992  21.0154990  46.6899997  84.3519992  19.9984990  47.1069997
  82.4309992  19.2624990  47.8389997  82.7599992  18.2014990  47.8169997
  81.4399992  19.0924990  47.3669997  82.1989992  19.7624990  49.2659997
  81.2569992  19.3144990  49.6479997  81.9579992  20.8444990  49.1879997
  83.3349992  19.5114990  50.2349997  83.9159992  18.5924990  50.0719997
  83.7819992  20.3934990  51.1889997  84.4959992  19.9734990  51.9129997
  83.2769992  21.7634990  51.5669997  82.4429992  22.0454990  50.8899997
  84.0879992  22.5224990  51.6069997  82.7329992  21.7564990  53.0149997
  82.0329992  20.8934990  53.0329997  82.1249992  22.6854990  53.0629997
  83.7959992  21.6044990  54.1269997  84.7109992  22.1754990  53.8619997
  84.0949992  20.5364990  54.0619997  83.3329992  21.8914990  55.5219997
  82.9659992  22.9314990  55.6549997  84.2069992  21.7434990  56.1919997
  82.1859992  21.0334990  56.0129997  81.3359992  21.3074990  55.3519997
  81.8979992  21.1604990  57.0789997  82.5169992  19.5364990  55.8649997
  82.7219992  19.4144990  54.7799997  81.5969992  18.9364990  56.0329997
  83.6529992  19.0484990  56.7689997  83.3889992  19.4014990  57.7889997
  84.5649992  19.5644990  56.3989997  83.6959992  17.4814990  56.8169997
  83.7659992  17.1454990  55.7609997  82.8359992  17.0854990  57.3969997
  84.6429992  17.1554990  57.2999997  20.0129992  88.7244990  56.5289997
  19.0689992  88.5424990  57.0859997  20.5719992  87.7794990  56.3619997
  19.6649992  89.2934990  55.6409997  20.8819992  89.6864990  57.3369997
  20.3519992  90.4584990  57.9339997  21.3959992  89.0714990  58.1069997
  22.0719992  90.3824990  56.5739997  22.8079992  90.9474990  57.1849997
  22.6099992  89.5304990  56.1049997  21.5269992  91.3104990  55.4409997
  20.7269992  90.8444990  54.8259997  21.1069992  92.2894990  55.7569997
  22.6569992  91.6994990  54.4859997  22.4219992  92.6854990  54.0319997
  23.5409992  91.7724990  55.1539997  23.0109992  90.6644990  53.4099997
  23.1429992  89.6574990  53.8589997  22.1319992  90.5904990  52.7339997
  24.2649992  90.9664990  52.5219997  24.4469992  91.9744990  52.0919997
  25.0619992  90.8984990  53.2929997  24.6019992  89.9484990  51.4589997
  25.5429992  89.4264990  51.7349997  23.7839992  89.2504990  51.1819997
  24.8939992  90.6374990  50.0159997  25.4919992  91.5544990  50.2019997
  25.6249992  90.0104990  49.4619997  23.6829992  91.0444990  49.1459997
  23.0989992  90.1174990  48.9619997  23.0939992  91.8704990  49.5979997
  24.0759992  91.6484990  47.7949997  23.1899992  92.1974990  47.4089997
  24.9119992  92.3744990  47.8939997  24.4979992  90.5924990  46.7789997
  25.1439992  89.9224990  47.3869997  23.5779992  90.1064990  46.3909997
  25.2679992  91.2134990  45.5279997  24.4879992  91.8424990  45.0479997
  26.1979992  91.7524990  45.8089997  25.5199992  90.2214990  44.4409997
  25.4459992  90.7524990  43.4679997  26.5579992  89.8254990  44.4379997
  24.5279992  89.0504990  44.2309997  24.5959992  88.3614990  45.0999997
  23.4849992  89.4214990  44.1329997  25.0059992  88.2664990  42.9629997
  26.0279992  87.6414990  42.8009997  24.0249992  88.2254990  42.0929997
  24.2839992  87.4404990  40.9029997  24.9529992  88.0714990  40.2799997
  24.9159992  86.5674990  41.1729997  22.9569992  87.0964990  40.3209997
  22.9939992  86.4804990  39.3969997  22.1599992  88.3484990  39.8079997
  21.7999992  89.0474990  40.5929997  22.9069992  88.8464990  39.1529997
  21.0179992  87.9124990  39.1149997  20.9729992  87.8734990  37.5759997
  22.4749992  88.0944990  37.0189997  22.7549992  89.1784990  36.1619997
  22.8029992  88.7604990  35.1339997  21.9769992  89.9674990  36.2369997
  24.1199992  89.8744990  36.4579997  24.2139992  90.7434990  35.8229997
  24.0439992  90.1744990  37.4929997  25.4229992  89.0564990  36.3999997
  25.4789992  87.9994990  37.4939997  26.3619992  87.4444990  37.2119997
  25.6709992  88.4124990  38.4729997  24.6279992  87.3334990  37.4849997
  25.4269992  88.4414990  35.1159997  25.4089992  89.2504990  34.4019997
  26.3979992  87.9864990  34.9819997  24.7239992  87.6304990  34.9979997
  26.5369992  89.9854990  36.5789997  27.4879992  89.4754990  36.5719997
  26.5439992  90.4874990  37.5359997  26.4669992  90.6174990  35.7059997
  20.5209992  86.5094990  37.2619997  20.1909992  89.0674990  37.2919997
  22.1399992  86.4114990  41.3199997  22.5799992  85.3344990  42.0359997
  23.4809992  84.6064990  41.7309997  21.6199992  85.2184990  43.2879997
  21.2089992  84.1864990  43.2789997  20.7589992  85.9194990  43.2759997
  22.4969992  85.4264990  44.6299997  23.2179992  86.2254990  44.3509997
  23.0839992  84.4974990  44.7919997  21.4189992  85.7484990  45.8189997
  20.5989992  85.0034990  45.7329997  20.9089992  86.6924990  45.5309997
  21.9689992  85.9374990  47.2269997  22.3929992  84.9554990  47.5259997
  21.2119992  86.3244990  47.9419997  23.1449992  86.8764990  47.3639997
  22.9349992  87.8504990  46.8729997  24.0369992  86.5124990  46.8099997
  23.6699992  87.1024990  48.8279997  22.8969992  87.6954990  49.3619997
  24.5879992  87.7264990  48.7999997  24.0719992  85.8854990  49.6929997
  23.1819992  85.2274990  49.7929997  24.2939992  86.3354990  50.6839997
  25.2639992  85.1574990  49.1969997  25.0209992  84.5184990  48.3349997
  26.4699992  85.0414990  49.7859997  27.2179992  84.5104990  49.1779997
  26.9089992  85.6484990  51.1739997  26.1079992  86.3054990  51.5759997
  27.7199992  86.3554990  50.8999997  27.5979992  84.7894990  52.2319997
  28.1939992  85.3274990  52.9999997  28.3019992  84.0794990  51.7479997
  26.5409992  83.8734990  52.9349997  26.9509992  83.0024990  53.4909997
  25.8379992  83.4374990  52.1939997  25.8689992  84.6754990  54.0199997
  24.7789992  84.4664990  54.0699997  25.9589992  85.7204990  53.6529997
  26.4729992  84.4894990  55.3699997  26.1099992  85.3084990  56.0259997
  27.5809992  84.5464990  55.3249997  26.1379992  83.2484990  56.2819997
  26.6449992  83.5404990  57.2259997  26.6049992  82.3414990  55.8419997
  24.6259992  83.1164990  56.5809997  24.0499992  84.0434990  56.3709997
  24.5869992  82.8984990  57.6699997  23.9109992  81.9984990  55.7939997
  24.5599992  81.1144990  55.6199997  23.4879992  82.3914990  54.8449997
  22.9709992  81.6434990  56.2669997 126.7589992  95.8044990  54.5979997
 126.7559992  95.7024990  55.7039997 127.4299992  96.6654990  54.3909997
 127.2199992  94.8504990  54.2649997 125.3119992  95.8614990  54.0359997
 124.7819992  95.0264990  54.5429997 124.8949992  96.8644990  54.2679997
 125.2329992  95.8324990  52.5449997 125.9489992  96.5674990  52.1189997
 125.2679992  94.7594990  52.2579997 123.9729992  96.5134990  51.8489997
 123.1499992  95.8144990  52.1079997 123.7749992  97.4724990  52.3749997
 124.2059992  96.6874990  50.3309997 124.7289992  97.6504990  50.1469997
 124.8409992  95.8604990  49.9459997 122.9529992  96.7644990  49.3419997
 122.4509992  97.7434990  49.4959997 123.3069992  96.7414990  48.2889997
 121.9909992  95.5904990  49.4959997 122.5179992  94.7184990  49.0529997
 121.7599992  95.3864990  50.5629997 120.7189992  95.9094990  48.6659997
 120.2159992  96.8064990  49.0849997 120.9629992  96.1124990  47.6009997
 119.6959992  94.7334990  48.5499997 119.3519992  94.4554990  49.5689997
 118.8709992  95.1654990  47.9419997 120.1749992  93.4914990  47.7849997
 120.8119992  92.8794990  48.4599997 119.3169992  92.8514990  47.4879997
 121.0369992  93.7294990  46.5499997 120.7569992  94.6754990  46.0379997
 122.1099992  93.7894990  46.8329997 120.7859992  92.6494990  45.5179997
 121.0639992  91.6334990  45.8709997 119.7209992  92.7184990  45.2099997
 121.6239992  93.0404990  44.1749997 121.6379992  94.1294990  43.9559997
 122.6959992  92.7504990  44.1949997 121.0809992  92.4894990  42.8899997
 121.3389992  91.4104990  42.9389997 119.9849992  92.5554990  42.7189997
 121.8899992  93.0924990  41.6929997 122.9589992  93.2714990  41.9349997
 121.8969992  92.3684990  40.8509997 121.1919992  94.3324990  41.1999997
 119.9919992  94.4404990  41.1019997 122.0959992  95.2174990  40.8609997
 121.7059992  96.5724990  40.4969997 120.6139992  96.6944990  40.3299997
 122.1069992  97.2664990  41.2659997 122.3589992  96.8004990  39.0579997
 121.9679992  97.7284990  38.5889997 121.8789992  95.7094990  38.0489997
 122.0959992  94.7324990  38.5319997 120.7769992  95.7184990  37.9079997
 122.6519992  95.7774990  36.8809997 122.3059992  94.8294990  35.6729997
 123.3559992  93.6864990  35.9449997 124.6349992  93.7354990  36.5959997
 125.5169992  93.3594990  36.0329997 125.0169992  94.7784990  36.6299997
 124.5639992  93.1964990  38.0079997 125.6029992  93.2224990  38.3019997
 124.0209992  93.9094990  38.6099997 124.0549992  91.8224990  38.2139997
 124.2649992  90.8674990  37.0819997 123.8199992  89.9024990  37.2739997
 123.8909992  91.1684990  36.1149997 125.3149992  90.6564990  36.9399997
 124.7439992  91.3334990  39.5009997 124.3959992  90.3374990  39.7299997
 125.8199992  91.2464990  39.4739997 124.6519992  91.9424990  40.3879997
 122.6029992  91.8854990  38.4419997 122.1469992  90.9334990  38.6739997
 122.1819992  92.0774990  37.4669997 122.4239992  92.6224990  39.2109997
 120.9159992  94.2544990  35.7139997 122.6719992  95.4664990  34.4159997
 123.8279992  96.7004990  39.1059997 124.3919992  97.6064990  39.8749997
 123.8879992  98.5214990  40.4589997 125.8619992  97.2464990  39.8939997
 126.3799992  98.0994990  40.3829997 126.1199992  97.1554990  38.8169997
 126.1649992  95.9724990  40.6809997 127.2389992  95.7404990  40.5149997
 125.5749992  95.1544990  40.2129997 125.8939992  96.0174990  42.1339997
 124.8469992  96.3824990  42.2129997 126.4669992  96.7134990  42.7829997
 126.0259992  94.6084990  42.8969997 127.0419992  94.1634990  42.8309997
 125.2989992  93.9754990  42.3449997 125.5979992  94.6964990  44.3479997
 124.6699992  95.2784990  44.5339997 126.3939992  95.2514990  44.8879997
 125.4149992  93.3624990  45.1879997 126.4799992  93.0474990  45.1679997
 124.8249992  92.6224990  44.6069997 124.8329992  93.6174990  46.6549997
 124.3339992  92.7104990  47.0589997 124.0319992  94.3854990  46.6139997
 125.8659992  94.1504990  47.5709997 126.0999992  95.2214990  47.4829997
 126.6639992  93.4174990  48.4389997 127.4189992  93.8514990  49.1119997
 126.5759992  91.8994990  48.5229997 127.6279992  91.5594990  48.4199997
 126.0409992  91.3164990  47.7429997 126.0789992  91.4914990  49.8749997
 126.5649992  92.1954990  50.5829997 126.3809992  90.4864990  50.2379997
 124.5339992  91.4304990  50.0399997 124.1469992  90.9444990  49.1189997
 124.1609992  92.4744990  49.9739997 123.9649992  90.6274990  51.2749997
 124.3069992  91.3244990  52.0689997 124.4849992  89.6724990  51.5009997
 122.4779992  90.5004990  51.2169997 122.2759992  89.5894990  50.6139997
 122.0799992  91.3714990  50.6549997 121.6769992  90.4954990  52.5249997
 122.0779992  89.8314990  53.3209997 120.6139992  90.1914990  52.4189997
 121.5559992  91.8444990  53.1539997 122.3179992  92.5214990  52.7129997
 121.8779992  91.7544990  54.2139997 120.0819992  92.4244990  53.3789997
 119.5859992  92.6124990  52.4019997 120.1809992  93.2974990  54.0589997
 119.4759992  91.5934990  53.7979997  37.3259992  23.9434990  54.3879997
  38.1069992  23.1614990  54.2699997  36.9099992  24.1484990  53.3789997
  36.4389992  23.5724990  54.9449997  37.8579992  25.2684990  54.9049997
  38.3219992  25.8254990  54.0639997  37.0119992  25.9474990  55.1469997
  38.6869992  25.1794990  56.1239997  38.0259992  25.1464990  57.0169997
  39.2359992  24.2164990  56.0509997  39.8139992  26.2294990  56.2349997
  40.3749992  26.1884990  57.1929997  40.5879992  26.1354990  55.4429997
  39.3799992  27.7264990  56.2809997  38.5089992  27.6994990  56.9699997
  40.1579992  28.3994990  56.7029997  38.9619992  28.1934990  54.9309997
  39.8229992  27.8604990  54.3129997  37.9779992  27.7234990  54.7169997
  38.8579992  29.7844990  54.8519997  38.3879992  30.3294990  55.6989997
  39.9379992  30.0354990  54.7839997  38.1669992  30.3144990  53.5699997
  37.0779992  30.1564990  53.4169997  38.1989992  31.4214990  53.6599997
  38.9919992  29.8974990  52.3369997  40.0749992  29.9864990  52.5649997
  38.8059992  28.8014990  52.3289997  38.4439992  30.6094990  51.0709997
  37.3689992  30.3474990  50.9769997  38.5649992  31.6924990  51.2889997
  39.2749992  30.2034990  49.8039997  38.7229992  30.6764990  48.9629997
  40.2979992  30.6294990  49.8879997  39.2859992  28.7454990  49.3699997
  39.5399992  28.1424990  50.2679997  38.2519992  28.5204990  49.0329997
  40.3259992  28.4364990  48.3169997  41.2809992  28.8464990  48.7109997
  40.3329992  27.3254990  48.3159997  40.0509992  29.0224990  46.9539997
  39.1219992  28.5624990  46.5539997  39.9239992  30.1214990  47.0569997
  41.2029992  28.8974990  45.9809997  41.9719992  29.6504990  46.2569997
  41.6459992  27.8784990  45.9969997  40.6409992  29.2254990  44.5869997
  39.5949992  29.8534990  44.2379997  41.5599992  28.7694990  43.7589997
  41.5039992  29.0654990  42.3699997  41.0349992  30.0564990  42.1869997
  42.5639992  29.1634990  42.0509997  40.8229992  27.9924990  41.4449997
  41.4089992  27.0494990  41.4629997  40.8489992  28.3484990  39.9199997
  40.4299992  29.3464990  39.6709997  41.9089992  28.4094990  39.5939997
  40.3049992  27.2794990  39.1289997  39.1399992  27.3854990  37.9829997
  39.0869992  25.9724990  37.3259997  39.9219992  24.9354990  37.7649997
  39.8479992  24.8884990  38.8729997  39.3509992  24.0374990  37.4469997
  41.3449992  24.9714990  37.1779997  41.7259992  25.9384990  37.4689997
  42.0359992  24.2174990  37.5269997  41.6059992  24.7954990  35.6869997
  43.0489992  25.0274990  35.4749997  43.5889992  24.0954990  35.3899997
  43.1649992  25.3774990  34.4599997  43.3739992  25.7624990  36.1969997
  41.1989992  23.4664990  35.2889997  41.5429992  23.3414990  34.2729997
  41.6879992  22.6484990  35.7969997  40.1279992  23.3504990  35.3549997
  40.8119992  25.8744990  34.9879997  39.7479992  25.6964990  35.0299997
  41.1149992  25.9264990  33.9529997  40.9909992  26.8644990  35.3809997
  37.8169992  27.6314990  38.6179997  39.6139992  28.4084990  37.0339997
  39.4989992  27.9204990  41.8419997  38.8719992  26.7354990  41.9309997
  39.2979992  25.6504990  41.6599997  37.4369992  26.9214990  42.4699997
  36.8069992  26.5524990  41.6329997  37.0589992  27.9324990  42.7349997
  37.1509992  26.1444990  43.8049997  37.4819992  25.1214990  43.5249997
  36.0439992  26.1154990  43.8959997  38.0209992  26.5874990  44.9629997
  38.0509992  27.6974990  44.9269997  39.1079992  26.3874990  44.8489997
  37.4059992  26.0124990  46.2789997  36.3629992  26.3884990  46.3469997
  37.8789992  26.4594990  47.1799997  37.3129992  24.4744990  46.3629997
  36.7949992  24.0084990  45.4979997  36.6149992  24.2934990  47.2079997
  38.5669992  23.6434990  46.4589997  39.2249992  23.8054990  45.5789997
  38.2259992  22.5864990  46.4309997  39.3959992  23.7144990  47.7489997
  39.7009992  24.7634990  47.9479997  40.3689992  23.2004990  47.5929997
  38.5689992  23.1684990  48.9069997  38.4429992  22.0754990  48.8759997
  38.2389992  23.8894990  49.9979997  37.8159992  23.3474990  50.8579997
  38.6189992  25.3434990  50.2829997  37.7329992  25.8014990  50.7719997
  38.9269992  25.9674990  49.4169997  39.8469992  25.4594990  51.3259997
  39.6379992  24.8054990  52.1999997  40.0909992  26.5164990  51.5629997
  41.2209992  24.9064990  50.7689997  41.4929992  25.5364990  49.8959997
  41.1549992  23.9164990  50.2699997  42.3579992  24.8434990  51.7229997
  43.2139992  24.3144990  51.2519997  42.0729992  24.3304990  52.6659997
  42.9859992  26.1764990  52.0949997  42.2379992  26.9304990  52.4199997
  43.5069992  26.6204990  51.2189997  43.9489992  26.0744990  53.2889997
  44.6839992  25.2934990  52.9969997  43.4249992  25.7434990  54.2109997
  44.6509992  27.4284990  53.6129997  45.0149992  27.7104990  52.6019997
  45.4939992  27.1374990  54.2759997  43.6889992  28.4704990  54.1489997
  44.1669992  29.4474990  54.3759997  43.3529992  28.0834990  55.1349997
  42.8459992  28.5954990  53.4369997  44.8019992  21.4694990  55.3639997
  44.5469992  20.7444990  56.1659997  45.4389992  20.9524990  54.6149997
  43.8969992  21.9574990  54.9429997  45.7249992  22.5124990  55.9029997
  45.5209992  23.0124990  56.8739997  46.6809992  22.0494990  56.2279997
  46.1889992  23.5324990  54.8459997  45.3329992  24.1454990  54.4889997
  46.9969992  24.1514990  55.2909997  46.9009992  22.9184990  53.6349997
  47.9069992  22.6304990  54.0079997  46.4429992  21.9904990  53.2299997
  47.0309992  23.8034990  52.3769997  46.1009992  24.3794990  52.1849997
  47.8259992  24.5754990  52.4689997  47.4939992  23.0454990  51.1609997
  48.5269992  22.6714990  51.3219997  46.9049992  22.1124990  51.0339997
  47.4779992  23.8524990  49.8879997  47.7769992  24.9134990  50.0289997
  48.0939992  23.3854990  49.0899997  46.0659992  24.0604990  49.2069997
  45.5709992  24.6304990  50.0219997  46.1899992  24.6814990  48.2939997
  45.2919992  22.7584990  48.8029997  45.5249992  21.9524990  49.5319997
  44.2019992  22.9444990  48.9039997  45.5279992  22.2874990  47.3279997
  45.2009992  23.1564990  46.7179997  46.6149992  22.0834990  47.2209997
  44.7389992  21.0684990  46.7849997  45.3549992  20.1524990  46.9089997
  43.8109992  20.8604990  47.3589997  44.2299992  21.2114990  45.2799997
  43.7459992  22.1954990  45.1029997  45.2089992  21.1424990  44.7579997
  43.2449992  20.1004990  44.7349997  42.2669992  20.1984990  45.2529997
  43.1099992  20.2984990  43.6509997  43.7089992  18.6814990  44.8269997
  43.8189992  18.4974990  45.9169997  42.9849992  17.8684990  44.6039997
  45.0039992  18.2794990  44.1089997  45.8639992  18.8834990  44.4689997
  45.3539992  17.2654990  44.3989997  45.0279992  18.4894990  42.5869997
  44.8699992  17.6334990  41.7589997  45.1489992  19.8044990  42.3139997
  44.9209992  20.1694990  40.9219997  45.8189992  19.9024990  40.3239997
  44.0569992  19.6844990  40.4189997  44.6819992  21.7004990  40.8079997
  43.5999992  21.9384990  40.8989997  45.2139992  22.2934990  39.4969997
  44.8379992  21.7724990  38.5899997  44.6969992  23.2574990  39.2999997
  46.6119992  22.4484990  39.4319997  47.2249992  22.7594990  38.0039997
  46.8739992  21.4784990  37.1309997  46.6419992  20.0824990  37.5099997
  47.3899992  19.8304990  38.2919997  45.6079992  19.9624990  37.8979997
  46.9069992  18.9614990  36.4389997  46.7749992  18.0114990  36.9359997
  46.1709992  19.1304990  35.6659997  48.2799992  18.9904990  35.8099997
  49.4659992  19.0644990  36.7039997  49.3479992  19.7734990  37.5099997
  49.5629992  18.0464990  37.0519997  50.3229992  19.3764990  36.1249997
  48.4459992  17.7604990  34.9119997  47.6409992  17.7424990  34.1919997
  49.3029992  17.7454990  34.2539997  48.5219992  16.9014990  35.5619997
  48.2849992  20.2404990  34.9249997  47.4579992  20.2434990  34.2299997
  49.1509992  20.3604990  34.2919997  48.1509992  21.0934990  35.5749997
  46.5829992  23.9674990  37.4709997  48.7059992  22.7974990  38.1329997
  45.3659992  22.2854990  41.8899997  44.9149992  23.4274990  42.3449997
  43.9419992  24.0154990  41.9289997  45.7599992  23.8544990  43.4549997
  46.3499992  23.0204990  43.8919997  45.1469992  24.3364990  44.2469997
  46.7499992  24.9854990  42.9859997  46.2869992  25.7254990  42.2989997
  47.5809992  24.5844990  42.3669997  47.3469992  25.7644990  44.2609997
  46.4269992  26.2104990  44.6949997  47.6819992  26.7974990  44.0239997
  48.2799992  24.9594990  45.2079997  47.6509992  24.0924990  45.5019997
  48.5529992  25.6974990  45.9909997  49.6489992  24.5394990  44.6819997
  50.1079992  25.4184990  44.1819997  49.4749992  23.7134990  43.9599997
  50.5769992  23.9524990  45.7069997  50.8729992  24.8284990  46.3229997
  51.4849992  23.5424990  45.2139997  49.9899992  22.7924990  46.5349997
  49.1529992  23.2724990  47.0869997  50.7399992  22.5514990  47.3189997
  49.5479992  21.5684990  45.7379997  49.0949992  21.8724990  44.7829997
  49.7119992  20.2494990  46.0779997  49.1509992  19.4894990  45.5149997
  50.4089992  19.7404990  47.2919997  51.2979992  20.3684990  47.5169997
  50.8419992  18.7444990  47.0559997  49.3789992  19.6174990  48.3919997
  48.5989992  19.0024990  47.8939997  48.8339992  20.5624990  48.6019997
  50.0189992  19.1244990  49.6589997  50.9329992  19.7234990  49.8589997
  50.5449992  18.1614990  49.4839997  49.1359992  19.1024990  50.8839997
  48.0939992  19.3554990  50.5929997  49.4559992  19.9594990  51.5149997
  49.0499992  17.7874990  51.6739997  50.1029992  17.6314990  51.9939997
  48.7019992  16.9444990  51.0399997  48.2149992  17.8844990  52.9529997
  47.1499992  17.8124990  52.6469997  48.2689992  18.9364990  53.3079997
  48.4679992  16.7554990  54.0099997  49.5559992  16.5604990  53.8939997
  47.9039992  15.9314990  53.5219997  47.9929992  16.9344990  55.4949997
  48.4359992  16.1994990  56.2019997  46.8929992  16.7884990  55.5419997
  48.2579992  17.9714990  55.7929997 117.0959992  35.0474990  57.7229997
 117.3499992  34.1894990  58.3819997 116.2209992  34.8764990  57.0609997
 116.7239992  35.9044990  58.3239997 118.2699992  35.3724990  56.7369997
 118.2259992  34.7584990  55.8119997 118.0419992  36.4194990  56.4439997
 119.6889992  35.3684990  57.2419997 119.7589992  35.8704990  58.2309997
 120.0739992  34.3384990  57.4009997 120.7299992  35.8934990  56.2189997
 121.7139992  35.6534990  56.6759997 120.5869992  35.4654990  55.2039997
 120.6269992  37.4254990  55.9839997 119.5679992  37.7214990  55.8269997
 121.0879992  38.0154990  56.8059997 121.4079992  37.7834990  54.6329997
 121.5309992  38.8874990  54.6089997 122.3309992  37.1654990  54.6519997
 120.7409992  37.3214990  53.3289997 120.7549992  36.2284990  53.1289997
 119.6519992  37.5194990  53.4219997 121.2979992  37.9954990  52.0989997
 121.2899992  39.0924990  52.2709997 122.3739992  37.7404990  51.9899997
 120.5219992  37.6884990  50.8029997 121.2389992  37.8464990  49.9689997
 120.0169992  36.7114990  50.6419997 119.5119992  38.7824990  50.3999997
 118.6369992  38.6884990  51.0779997 119.9269992  39.8094990  50.4879997
 119.0589992  38.7984990  48.8289997 119.9649992  38.9394990  48.2029997
 118.5159992  37.8694990  48.5509997 118.0379992  39.9994990  48.7219997
 117.0619992  39.5594990  49.0199997 118.2519992  40.9754990  49.2069997
 117.7699992  40.4234990  47.2719997 117.1029992  41.3084990  47.3469997
 118.7919992  40.6684990  46.9109997 117.3029992  39.2524990  46.3419997
 118.2339992  38.6464990  46.3159997 116.4379992  38.7434990  46.8179997
 116.9909992  39.7374990  44.9119997 116.1589992  39.1114990  44.5229997
 116.6599992  40.7984990  44.9129997 118.1939992  39.6864990  44.0839997
 119.3369992  40.0334990  44.2959997 117.7499992  39.1504990  42.8999997
 118.6639992  39.0824990  41.8099997 118.3929992  39.9854990  41.2219997
 119.7379992  39.3204990  41.9579997 118.6109992  37.7814990  41.0849997
 119.3449992  37.8804990  40.2569997 117.2589992  37.6284990  40.3519997
 116.5019992  37.7894990  41.1489997 117.0069992  38.5054990  39.7189997
 116.9689992  36.3394990  39.8639997 117.3719992  36.1214990  38.3879997
 118.7839992  36.8714990  38.1979997 119.6159992  36.5894990  37.0379997
 120.6649992  36.8284990  37.3129997 119.7409992  35.4914990  36.9259997
 119.1999992  37.1694990  35.5879997 120.0589992  36.8974990  34.9909997
 118.2579992  36.7914990  35.2209997 119.0869992  38.6964990  35.4669997
 117.9449992  39.1724990  36.2849997 117.5689992  40.0144990  35.7239997
 117.1689992  38.4224990  36.3319997 118.2999992  39.5114990  37.2459997
 120.3739992  39.4164990  35.9169997 120.5069992  39.4214990  36.9889997
 121.2349992  39.0274990  35.3939997 120.3419992  40.4164990  35.5119997
 118.9119992  39.0484990  33.9719997 118.7359992  40.0984990  33.7869997
 118.1429992  38.4784990  33.4709997 119.8509992  38.8224990  33.4889997
 117.5599992  34.6624990  38.2979997 116.4319992  36.7854990  37.4589997
 118.7889992  36.7734990  42.0329997 120.0019992  36.3244990  42.1559997
 121.0189992  36.7474990  41.5799997 119.8649992  35.1754990  43.0589997
 120.7169992  34.4944990  42.8479997 118.9679992  34.5954990  42.7539997
 120.0759992  35.6954990  44.5129997 119.3259992  36.4894990  44.7159997
 121.0249992  36.2674990  44.5919997 120.0769992  34.6354990  45.6359997
 120.3819992  35.1544990  46.5699997 120.8439992  33.8584990  45.4289997
 118.7429992  33.8734990  45.8599997 118.4649992  33.1664990  45.0499997
 117.9379992  34.6404990  45.8809997 118.5199992  33.0614990  47.1829997
 119.1579992  32.1524990  47.1519997 117.4549992  32.7454990  47.1559997
 118.7779992  33.8774990  48.4549997 118.4169992  34.9124990  48.2759997
 119.8519992  33.7484990  48.7069997 117.9539992  33.5344990  49.7099997
 117.9109992  32.4254990  49.7659997 116.8949992  33.8054990  49.5109997
 118.3319992  34.1294990  51.0289997 119.4209992  34.2804990  51.0729997
 117.4599992  34.6294990  52.0129997 117.8559992  35.1854990  52.8749997
 115.9229992  34.7364990  51.9689997 115.4399992  34.1644990  52.7899997
 115.3809992  34.4374990  51.0469997 115.4369992  36.2044990  52.1609997
 114.4209992  36.2094990  51.7129997 116.0519992  36.9254990  51.5799997
 115.5849992  36.6794990  53.5909997 116.4169992  36.1214990  54.0719997
 114.6669992  36.4454990  54.1709997 115.7899992  38.1684990  53.6379997
 114.7599992  38.5474990  53.4639997 116.4659992  38.4764990  52.8129997
 116.3839992  38.6414990  55.0209997 117.4009992  38.2344990  55.2039997
 115.7269992  38.3384990  55.8639997 116.5869992  40.1754990  55.1739997
 116.9209992  40.7374990  54.2759997 117.4619992  40.0904990  55.8539997
 115.3849992  40.9704990  55.9239997 115.4589992  40.5914990  56.9649997
 114.3799992  40.6124990  55.6119997 115.3359992  42.5134990  55.8109997
 115.1529992  42.9144990  54.7909997 116.2819992  42.9024990  56.2439997
 114.5039992  42.8314990  56.4739997  62.2679992  19.2264990  55.9279997
  62.8669992  19.0674990  56.8499997  61.5399992  18.3894990  55.9949997
  61.6359992  20.1394990  55.8779997  63.4299992  19.2314990  54.8749997
  62.9739992  19.8094990  54.0429997  64.3089992  19.7454990  55.3189997
  63.8399992  17.8384990  54.2619997  63.7789992  16.9924990  54.9799997
  63.2759992  17.6904990  53.3159997  65.3249992  17.9084990  53.8159997
  65.9319992  17.9544990  54.7459997  65.5969992  16.8964990  53.4449997
  65.6549992  18.8904990  52.6909997  64.7079992  18.9714990  52.1159997
  65.9139992  19.9134990  53.0409997  66.9869992  18.6044990  51.9549997
  67.8979992  18.4674990  52.5749997  66.7169992  17.5744990  51.6379997
  67.2639992  19.4184990  50.6509997  67.0999992  20.5144990  50.7319997
  68.3139992  19.2794990  50.3159997  66.3289992  19.0504990  49.4719997
  66.4149992  17.9434990  49.4279997  65.2699992  19.2324990  49.7569997
  66.6769992  19.7704990  48.1729997  66.9439992  20.8204990  48.4219997
  67.5269992  19.2844990  47.6469997  65.5029992  19.9034990  47.2829997
  65.4329992  19.0854990  46.5339997  64.5969992  19.9434990  47.9249997
  65.6289992  21.1834990  46.3749997  65.8009992  21.9814990  47.1289997
  66.4899992  21.0804990  45.6789997  64.3179992  21.4914990  45.6349997
  63.9739992  20.7114990  44.9229997  63.5499992  21.5654990  46.4339997
  64.2689992  22.8444990  44.8389997  64.6749992  23.5814990  45.5649997
  64.9759992  22.8154990  43.9819997  62.8389992  23.4644990  44.3879997
  62.2739992  23.7164990  45.3109997  63.1369992  24.3884990  43.8479997
  61.9739992  22.5084990  43.5919997  61.8219992  21.5634990  44.1559997
  60.9389992  22.9094990  43.5499997  62.6619992  22.3664990  42.2829997
  62.5589992  23.0964990  41.2959997  63.3099992  21.1774990  42.2709997
  63.9489992  20.9794990  41.0409997  63.2289992  21.0824990  40.2019997
  64.6659992  21.8114990  40.8759997  64.6959992  19.5634990  40.8199997
  65.4439992  19.5684990  41.6419997  65.4199992  19.4734990  39.4719997
  65.9669992  20.4304990  39.3299997  66.1519992  18.6394990  39.5019997
  64.4489992  19.3704990  38.4099997  64.9649992  18.5294990  37.1189997
  63.8049992  18.9574990  36.1499997  63.6889992  20.3054990  35.6589997
  64.7169992  20.7274990  35.6919997  63.3009992  20.3004990  34.6179997
  62.8869992  21.1864990  36.6859997  63.4759992  21.1434990  37.5909997
  62.8959992  22.2114990  36.3439997  61.4759992  20.7114990  37.0139997
  61.3529992  19.3524990  37.7619997  60.3469992  19.0304990  37.9869997
  61.8329992  18.5364990  37.2419997  61.7529992  19.5484990  38.7459997
  60.7939992  21.7254990  37.9139997  61.1719992  21.5964990  38.9169997
  61.1389992  22.7054990  37.6189997  59.7259992  21.5914990  37.9979997
  60.6919992  20.5224990  35.7949997  61.1829992  19.7524990  35.2189997
  60.6889992  21.3824990  35.1419997  59.6889992  20.1714990  35.9909997
  66.3229992  19.0144990  36.7799997  64.7459992  17.0684990  37.1849997
  63.7449992  18.5084990  40.9709997  64.1539992  17.4594990  41.6679997
  65.3129992  17.2544990  41.9789997  62.9919992  16.5974990  42.0019997
  62.9939992  15.6534990  41.4169997  62.1089992  17.1884990  41.6759997
  63.0199992  16.2274990  43.5099997  62.8539992  17.2174990  43.9869997
  64.0049992  15.8804990  43.8889997  61.9439992  15.3354990  44.0609997
  62.1019992  14.2774990  43.7589997  61.0149992  15.8534990  43.7399997
  61.7879992  15.4314990  45.5959997  60.8919992  14.9094990  45.9949997
  61.7529992  16.4774990  45.9689997  62.8249992  14.6814990  46.3129997
  63.8039992  15.1084990  46.0069997  62.8609992  13.6004990  46.0589997
  62.6109992  14.5844990  47.8319997  63.5459992  14.1544990  48.2519997
  61.7589992  13.8864990  47.9799997  62.4789992  16.0024990  48.5959997
  61.8849992  16.7374990  48.0109997  63.4679992  16.4964990  48.4839997
  62.1219992  15.8474990  50.0139997  62.9209992  15.4214990  50.6379997
  60.9299992  16.1674990  50.5809997  60.9769992  16.0174990  51.6699997
  59.6119992  16.7854990  49.9869997  58.8119992  16.0154990  50.0319997
  59.7129992  16.6954990  48.8839997  59.1809992  18.0924990  50.6039997
  58.1669992  18.3524990  50.2319997  59.7149992  18.9894990  50.2239997
  59.0919992  18.0634990  52.1289997  60.1199992  17.8754990  52.5059997
  58.4169992  17.1934990  52.2719997  58.5669992  19.3164990  52.8989997
  57.9939992  18.8574990  53.7319997  57.8949992  19.9704990  52.3029997
  59.7289992  20.3214990  53.1689997  60.1609992  20.3974990  52.1479997
  60.5249992  20.0624990  53.8989997  59.1679992  21.7164990  53.6159997
  58.3969992  21.6264990  54.4109997  58.6519992  22.2574990  52.7929997
  60.3089992  22.4284990  54.4259997  60.5149992  21.7084990  55.2469997
  60.0179992  23.4184990  54.8359997  61.5399992  22.8514990  53.6049997
  61.2669992  23.4134990  52.6869997  62.0419992  21.9324990  53.2339997
  62.2189992  23.4244990  54.2719997 131.9209992  67.7034990  55.4279997
 131.1669992  67.8904990  56.2229997 132.9119992  68.1754990  55.5999997
 132.0219992  66.6084990  55.2709997 131.3479992  68.2854990  54.0929997
 130.2569992  68.0934990  54.1749997 131.4609992  69.3894990  54.0289997
 131.8549992  67.5724990  52.8869997 131.6899992  66.4764990  52.9649997
 131.3889992  68.0454990  51.9959997 133.3749992  67.7834990  52.6799997
 133.7809992  67.2244990  53.5499997 133.8519992  67.2744990  51.8159997
 133.9319992  69.2284990  52.8149997 133.7529992  69.6474990  53.8279997
 135.0289992  69.1504990  52.6519997 133.3749992  70.1274990  51.7359997
 133.3069992  69.7324990  50.6999997 132.3269992  70.3774990  52.0069997
 134.0969992  71.4374990  51.6169997 134.1739992  71.7954990  52.6649997
 135.1129992  71.4014990  51.1669997 133.2829992  72.5254990  50.8749997
 133.0559992  72.1604990  49.8499997 132.2949992  72.6054990  51.3759997
 133.8489992  73.8824990  50.9019997 133.0259992  74.6274990  50.8539997
 134.4129992  74.0894990  51.8369997 134.9489992  74.1214990  49.8109997
 135.4409992  75.1014990  49.9839997 135.7399992  73.3984990  50.1039997
 134.5579992  74.0214990  48.2919997 135.4559992  73.9084990  47.6469997
 133.7619992  73.2514990  48.2169997 134.0659992  75.4384990  47.9059997
 133.2719992  75.7954990  48.5959997 135.0019992  76.0364990  47.8939997
 133.4969992  75.4574990  46.4159997 133.3519992  74.4074990  46.0799997
 132.4949992  75.9194990  46.5409997 134.2419992  76.1974990  45.2809997
 133.8389992  77.2314990  45.2279997 135.2909992  76.3254990  45.6239997
 134.1469992  75.4534990  43.9969997 133.0979992  75.1064990  43.8849997
 134.2799992  76.0534990  43.0709997 135.0629992  74.2504990  43.8789997
 135.9929992  73.9334990  44.6589997 134.7429992  73.6014990  42.8289997
 135.6159992  72.5614990  42.3429997 136.2319992  73.0454990  41.5549997
 136.3729992  72.2084990  43.0759997 134.7789992  71.4364990  41.8409997
 135.3999992  70.5974990  41.4629997 133.8389992  71.9494990  40.6469997
 133.3129992  72.8574990  41.0119997 134.5229992  72.4074990  39.9009997
 132.9329992  70.9824990  40.1009997 133.1819992  70.1724990  38.8109997
 133.4539992  71.4144990  37.6409997 132.4139992  72.3184990  37.3859997
 131.4499992  71.9494990  37.7969997 132.7099992  73.2704990  37.8769997
 132.3689992  72.6364990  35.9359997 131.6039992  73.3854990  35.7929997
 133.2919992  73.0914990  35.6079997 131.8789992  71.5674990  34.9869997
 131.6799992  72.1974990  33.6739997 132.6269992  72.4844990  33.2409997
 131.1459992  71.4834990  33.0639997 130.9819992  73.0214990  33.6599997
 132.8049992  70.4084990  34.8869997 132.9599992  70.0164990  35.8809997
 132.4579992  69.7914990  34.0709997 133.7649992  70.8354990  34.6359997
 130.4689992  71.1264990  35.4929997 129.8129992  71.9814990  35.4239997
 130.6539992  70.8804990  36.5279997 130.1269992  70.3044990  34.8819997
 134.4609992  69.4534990  38.9609997 131.9089992  69.4604990  38.5959997
 134.0469992  70.9594990  42.9699997 133.5079992  69.7424990  43.0019997
 133.6519992  68.8614990  42.1439997 132.7819992  69.4114990  44.3329997
 133.2549992  68.4974990  44.7519997 131.7549992  69.1324990  44.0159997
 132.8609992  70.5304990  45.3249997 132.6919992  71.4984990  44.8069997
 133.8479992  70.6304990  45.8249997 131.8059992  70.4194990  46.3819997
 132.3459992  69.9964990  47.2559997 130.9099992  69.9004990  45.9789997
 131.1679992  71.7374990  46.8729997 130.8249992  72.3034990  45.9799997
 131.9129992  72.2774990  47.4959997 129.9829992  71.4134990  47.8459997
 129.3529992  70.7344990  47.2319997 129.3689992  72.3184990  48.0429997
 130.2789992  70.8734990  49.2639997 130.9039992  71.4934990  49.9419997
 130.8909992  69.9564990  49.1289997 128.9749992  70.3664990  49.9909997
 129.1129992  69.7524990  50.9069997 128.4019992  69.6884990  49.3229997
 128.1119992  71.5374990  50.4269997 127.1999992  71.5864990  49.8149997
 128.4249992  72.4674990  51.3419997 127.7179992  73.2314990  51.6979997
 129.6549992  72.4374990  52.1739997 130.2959992  73.1984990  51.6799997
 130.0929992  71.4344990  51.9809997 129.4919992  72.7264990  53.7029997
 128.9639992  71.8964990  54.2199997 128.8859992  73.6504990  53.8219997
 130.8539992  72.9974990  54.3699997 131.5369992  72.1404990  54.1889997
 130.6019992  73.1714990  55.4379997 131.4919992  74.3724990  53.9799997
 130.8559992  75.2074990  54.3439997 131.5879992  74.4934990  52.8799997
 132.8109992  74.5854990  54.7599997 133.5729992  73.8684990  54.3849997
 132.5749992  74.3834990  55.8269997 133.3759992  76.0184990  54.5109997
 133.4259992  76.1044990  53.4039997 134.3959992  76.0724990  54.9489997
 132.6229992  77.2624990  55.0529997 131.7069992  77.2734990  54.4239997
 133.2419992  78.1664990  54.8659997 132.3199992  77.1324990  56.5509997
 131.6609992  77.9504990  56.9139997 133.2859992  77.2144990  57.0939997
 131.7509992  76.2144990  56.8099997  30.6879992 102.6984990  58.6749997
  30.9039992 103.6784990  59.1519997  30.4479992 102.1234990  59.5949997
  29.7929992 102.7974990  58.0239997  31.8409992 102.1114990  57.8799997
  32.1109992 102.6864990  56.9679997  32.8379992 102.1554990  58.3669997
  31.7159992 100.6254990  57.4669997  32.1859992 100.0124990  58.2649997
  30.6609992 100.2764990  57.4589997  32.1079992 100.1694990  56.0989997
  31.8859992  99.1104990  55.8499997  31.4449992 100.5894990  55.3129997
  33.5779992 100.3624990  55.8119997  33.8229992 101.4434990  55.8839997
  34.1099992  99.7534990  56.5749997  33.9079992  99.8154990  54.4419997
  33.9289992  98.7144990  54.5889997  33.0599992 100.0944990  53.7799997
  35.2329992 100.4244990  53.8689997  35.9589992 100.2964990  54.6999997
  35.6849992  99.7634990  53.0989997  35.0589992 101.8254990  53.2909997
  34.5119992 102.4114990  54.0599997  36.0569992 102.3064990  53.1999997
  34.2559992 101.8634990  51.9759997  33.2349992 101.4714990  52.1729997
  34.1459992 102.9474990  51.7629997  34.8959992 101.1324990  50.8439997
  35.9039992 101.5744990  50.6889997  34.8359992 100.0514990  51.0929997
  34.0339992 101.3254990  49.6019997  33.2399992 100.5534990  49.6899997
  33.6249992 102.3464990  49.7619997  34.6859992 101.1294990  48.2439997
  35.6069992 101.7504990  48.2689997  34.9899992 100.0624990  48.1889997
  33.6979992 101.3934990  47.0639997  32.9539992 100.5704990  47.0179997
  33.1579992 102.2824990  47.4539997  34.3149992 101.7044990  45.7509997
  34.9409992 102.6174990  45.8509997  35.0679992 100.9234990  45.5129997
  33.1469992 101.8484990  44.6679997  32.5289992 100.9584990  44.4229997
  32.4469992 102.6564990  44.9739997  33.6989992 102.4104990  43.3129997
  34.8679992 102.5044990  43.0739997  32.7609992 102.5724990  42.4169997
  33.1029992 102.7434990  41.0199997  32.5679992 103.5594990  40.4889997
  34.1679992 103.0564990  40.9879997  33.0749992 101.3554990  40.2569997
  33.8679992 100.6634990  40.6139997  33.3499992 101.5904990  38.7379997
  33.3219992 102.6574990  38.4319997  34.4339992 101.3544990  38.6899997
  32.6419992 100.7024990  37.8859997  32.5339992 100.8804990  36.2419997
  31.0429992 101.4324990  36.1119997  30.6479992 102.6244990  36.7579997
  30.8849992 102.6344990  37.8439997  30.9609992 103.5324990  36.1989997
  29.1099992 102.7664990  36.7339997  28.9029992 103.8054990  36.9449997
  28.7729992 102.7274990  35.7089997  28.3679992 101.8034990  37.6469997
  28.4319992 100.3834990  37.2479997  28.3829992 100.3504990  36.1699997
  29.3849992  99.9724990  37.5469997  27.6049992  99.8684990  37.7139997
  28.6479992 101.8784990  39.0959997  28.0429992 101.1984990  39.6779997
  29.6869992 101.7314990  39.3499997  28.3789992 102.8574990  39.4649997
  26.9549992 102.2604990  37.4149997  26.5679992 102.1334990  36.4149997
  26.7949992 103.2684990  37.7689997  26.3149992 101.6234990  38.0069997
  33.4799992 101.8884990  35.7299997  32.5309992  99.5564990  35.6019997
  31.7729992 100.7304990  40.3459997  31.5919992  99.8554990  41.3839997
  32.4019992  99.6104990  42.2209997  30.1389992  99.3874990  41.3109997
  30.0889992  98.8264990  40.3539997  29.5969992 100.3524990  41.2219997
  29.8049992  98.7104990  42.6349997  30.6889992  98.1074990  42.9329997
  29.0049992  97.9934990  42.3509997  29.2279992  99.6004990  43.7969997
  28.4089992 100.2764990  43.4699997  30.0789992 100.2984990  43.9419997
  28.9399992  98.7774990  45.0339997  29.7969992  98.1194990  45.2919997
  28.0139992  98.2284990  44.7599997  28.5619992  99.5644990  46.2899997
  27.7159992 100.2684990  46.1369997  29.4679992 100.1464990  46.5639997
  28.1609992  98.7024990  47.5439997  27.2459992  98.1384990  47.2639997
  27.7949992  99.4344990  48.2959997  29.2249992  97.6964990  47.9649997
  29.3389992  97.0014990  47.1049997  28.7949992  97.1564990  48.8359997
  30.4849992  98.2944990  48.4939997  31.2559992  98.4134990  47.7189997
  30.7449992  98.6714990  49.7409997  31.7509992  99.0944990  49.8729997
  29.8349992  98.5844990  50.9959997  30.4629992  98.3174990  51.8729997
  29.0349992  97.8154990  50.9489997  29.1449992  99.9434990  51.2519997
  28.2419992  99.8954990  51.8969997  28.7139992 100.3804990  50.3259997
  30.1039992 100.9614990  51.8389997  30.9589992 101.2084990  51.1739997
  30.4129992 100.4474990  52.7749997  29.5529992 102.3714990  52.2789997
  29.2389992 102.9244990  51.3679997  30.3429992 102.9054990  52.8489997
  28.2359992 102.3874990  53.0919997  27.3289992 102.2424990  52.4679997
  28.1579992 103.3414990  53.6569997  28.1929992 101.3504990  54.2589997
  29.1869992 100.9104990  54.4919997  27.4739992 100.5144990  54.1319997
  27.6859992 101.9744990  55.6249997  28.3689992 102.7914990  55.9399997
  27.8009992 101.1904990  56.4029997  26.1679992 102.4444990  55.5929997
  25.4539992 101.6314990  55.3439997  26.0249992 103.2804990  54.8759997
  25.8559992 102.7604990  56.6119997  25.4959992  36.6104990  57.8159997
  25.1409992  35.7754990  57.1749997  24.5399992  37.0894990  58.1159997
  26.1309992  36.2524990  58.6539997  26.3029992  37.5724990  56.8699997
  26.4039992  38.4994990  57.4749997  27.3659992  37.3274990  56.6569997
  25.6299992  37.7284990  55.5109997  26.3029992  38.3574990  54.8899997
  25.5019992  36.7264990  55.0469997  24.2649992  38.3734990  55.5749997
  23.5939992  37.8184990  56.2649997  24.3279992  39.4084990  55.9739997
  23.5299992  38.3394990  54.1919997  22.4949992  38.6974990  54.3749997
  24.0079992  39.0414990  53.4749997  23.2369992  36.9844990  53.3789997
  24.2069992  36.6014990  52.9979997  22.6369992  36.3304990  54.0479997
  22.3519992  37.1864990  52.1409997  21.3579992  37.5374990  52.4929997
  22.7069992  37.9574990  51.4239997  22.3859992  35.9324990  51.2059997
  23.2829992  36.0154990  50.5559997  22.4989992  35.0624990  51.8859997
  21.2379992  35.9154990  50.2519997  20.3859992  36.5344990  50.6059997
  21.5139992  36.5044990  49.3519997  20.7219992  34.5034990  49.9859997
  20.5429992  34.0174990  50.9689997  19.7469992  34.4104990  49.4599997
  21.7199992  33.6004990  49.2719997  22.6909992  33.5084990  49.8019997
  21.3279992  32.5614990  49.3059997  22.2249992  34.1144990  47.8809997
  22.4669992  35.1904990  48.0109997  23.2119992  33.6244990  47.7409997
  21.2199992  34.1544990  46.7359997  20.5349992  33.2804990  46.7409997
  20.5649992  35.0294990  46.9389997  21.7179992  34.3474990  45.2779997
  22.1979992  33.4304990  44.8729997  20.8149992  34.5874990  44.6769997
  22.8439992  35.3584990  45.1149997  22.6809992  36.2404990  45.7699997
  23.8179992  34.8614990  45.3129997  22.8729992  35.9314990  43.6729997
  22.1509992  35.4634990  42.7969997  23.6469992  37.0904990  43.4809997
  23.6279992  37.5704990  42.1399997  22.7059992  37.3814990  41.5489997
  23.6729992  38.6594990  42.3569997  24.8799992  37.1964990  41.3089997
  25.7379992  37.6644990  41.8359997  24.6439992  37.7544990  39.8969997
  24.3759992  38.8274990  40.0069997  25.5499992  37.7434990  39.2529997
  23.4649992  37.1374990  39.3859997  23.5039992  36.0744990  38.2159997
  24.8829992  35.2124990  38.2469997  25.0119992  33.9874990  37.5719997
  25.7749992  33.3514990  38.0699997  24.1119992  33.3654990  37.7639997
  25.1489992  34.2364990  36.0449997  25.1089992  33.2384990  35.6339997
  24.3139992  34.8154990  35.6779997  26.4259992  34.8854990  35.5369997
  26.8149992  36.1524990  36.2879997  25.9959992  36.8554990  36.3209997
  27.1059992  35.8674990  37.2879997  27.7229992  36.5044990  35.8209997
  27.5589992  33.9254990  35.7209997  28.4769992  34.4814990  35.5939997
  27.5239992  33.5574990  36.7359997  27.5379992  33.0954990  35.0289997
  26.3569992  35.1814990  34.0849997  25.6489992  35.9954990  34.0409997
  26.1639992  34.2924990  33.5029997  27.2829992  35.6554990  33.7909997
  22.3909992  35.1444990  38.4219997  23.5479992  36.8754990  36.9539997
  25.1219992  35.7524990  41.3019997  26.2589992  35.3494990  40.7639997
  27.1749992  36.0134990  40.3359997  26.3469992  33.8904990  41.1069997
  26.3929992  33.2534990  40.1979997  25.4269992  33.6144990  41.6649997
  27.5569992  33.6864990  42.0589997  27.4399992  34.3824990  42.9169997
  28.4739992  33.9424990  41.4859997  27.6849992  32.3324990  42.6669997
  28.7619992  32.1424990  42.8629997  27.3339992  31.6624990  41.8529997
  27.1069992  32.0384990  44.0899997  27.8219992  32.6074990  44.7229997
  27.2029992  30.9474990  44.2759997  25.7059992  32.5934990  44.3479997
  24.9759992  32.0184990  43.7379997  25.6559992  33.6724990  44.0909997
  25.2769992  32.3454990  45.8389997  25.1819992  31.2434990  45.9449997
  24.3179992  32.8924990  45.9539997  26.2179992  32.7524990  47.0149997
  27.1989992  32.2314990  47.0039997  25.7289992  32.4694990  47.9719997
  26.6999992  34.2014990  46.9399997  27.2019992  34.4024990  45.9829997
  26.5409992  35.2344990  47.8129997  26.9669992  36.1934990  47.4839997
  25.8939992  35.0984990  49.1909997  25.2909992  34.1694990  49.2769997
  25.1379992  35.8884990  49.3859997  26.8249992  34.9874990  50.4179997
  26.1549992  34.9144990  51.3009997  27.3009992  35.9524990  50.6929997
  27.8129992  33.8274990  50.3519997  28.4719992  34.1474990  49.5169997
  27.3139992  32.8974990  50.0059997  28.6549992  33.5594990  51.6559997
  29.5329992  34.2274990  51.5269997  28.9419992  32.4864990  51.6289997
  27.9579992  33.9504990  52.9989997  27.5209992  34.9724990  52.9759997
  28.7679992  33.9174990  53.7589997  26.9339992  32.8024990  53.3339997
  27.5069992  31.8804990  53.5749997  26.2349992  32.6384990  52.4859997
  26.0879992  33.1664990  54.5879997  25.4359992  34.0554990  54.4519997
  26.8739992  33.3614990  55.3479997  25.0989992  32.0934990  55.0499997
  24.1899992  32.1804990  54.4169997  24.7649992  32.3154990  56.0859997
  25.6489992  31.1274990  55.0649997  86.2009992 115.7464990  54.3419997
  86.4569992 116.7984990  54.5939997  86.9729992 115.3614990  53.6429997
  86.0879992 115.1644990  55.2819997  84.8349992 115.7364990  53.5539997
  84.5559992 114.6664990  53.4539997  84.1589992 116.2024990  54.3029997
  84.6829992 116.4124990  52.1869997  83.6279992 116.3184990  51.8519997
  84.9509992 117.4784990  52.3529997  85.4639992 115.8334990  51.0309997
  86.5689992 115.8454990  51.1399997  85.2449992 114.7464990  51.0939997
  84.9599992 116.2714990  49.6739997  83.8529992 116.2794990  49.5769997
  85.2739992 117.3374990  49.6379997  85.5929992 115.5444990  48.5249997
  85.4219992 114.4484990  48.5929997  85.0879992 115.8684990  47.5899997
  87.0979992 115.8954990  48.4189997  87.4099992 116.7624990  49.0379997
  87.7479992 115.2004990  48.9929997  87.6639992 115.9774990  46.9859997
  88.7649992 116.1144990  47.0479997  87.3609992 114.9974990  46.5569997
  87.1149992 117.0254990  45.9849997  86.0059992 116.9964990  45.9209997
  87.4679992 118.0524990  46.2169997  87.6219992 116.8224990  44.5259997
  87.3429992 117.7174990  43.9299997  88.7269992 116.9384990  44.5049997
  87.1709992 115.4984990  43.9009997  87.4649992 114.6154990  44.5079997
  86.0609992 115.4754990  43.8619997  87.7279992 115.3064990  42.4139997
  87.1779992 116.0634990  41.8159997  88.8169992 115.5114990  42.3379997
  87.3779992 113.9744990  41.7269997  87.9119992 113.9934990  40.7529997
  87.7439992 113.0444990  42.2109997  85.8799992 113.9694990  41.4579997
  85.3599992 113.6744990  42.3939997  85.4589992 114.9484990  41.1469997
  85.5209992 112.9934990  40.3669997  85.7219992 113.3374990  39.3299997
  86.0529992 112.0264990  40.4859997  84.1019992 112.6564990  40.4449997
  83.6709992 111.6014990  40.8729997  83.3999992 113.6174990  39.8759997
  81.9449992 113.4674990  40.0249997  81.6669992 112.6074990  39.3789997
  81.5859992 113.2164990  41.0459997  81.2409992 114.7194990  39.4839997
  80.1799992 114.5644990  39.7709997  81.2539992 114.8604990  37.9159997
  80.9559992 113.8694990  37.5129997  80.4919992 115.6134990  37.6209997
  82.5009992 115.3224990  37.4109997  83.3079992 114.6474990  36.2319997
  84.2249992 115.8764990  35.7899997  83.7239992 117.2424990  36.0309997
  84.1069992 117.8574990  35.1889997  82.6129992 117.2704990  36.0089997
  84.2579992 117.8004990  37.3349997  83.8089992 118.7824990  37.3019997
  83.6529992 117.3374990  38.0999997  85.6999992 117.6484990  37.8139997
  86.6039992 118.3514990  36.7719997  87.6019992 118.5094990  37.1519997
  86.8469992 117.7184990  35.9319997  86.1509992 119.2944990  36.5009997
  85.9259992 118.3864990  39.0929997  86.9769992 118.2824990  39.3189997
  85.7199992 119.4374990  38.9489997  85.3369992 117.9074990  39.8609997
  86.1769992 116.2134990  38.0489997  87.2169992 116.2294990  38.3389997
  86.0609992 115.5644990  37.1939997  85.5879992 115.9074990  38.9009997
  84.1999992 113.5914990  36.7689997  82.3419992 114.3674990  35.1759997
  81.7839992 115.8914990  40.1049997  80.9299992 116.8904990  40.2689997
  79.7419992 116.8734990  39.9619997  81.7699992 118.1844990  40.4689997
  81.0439992 118.9894990  40.7139997  82.4299992 118.3864990  39.5989997
  82.6579992 118.0324990  41.7179997  83.2789992 118.9504990  41.8029997
  83.4109992 117.2164990  41.6789997  81.8819992 117.9864990  43.0029997
  81.2839992 117.0494990  43.0129997  81.0929992 118.7674990  42.9539997
  82.6549992 118.1884990  44.3009997  83.2399992 119.1304990  44.3629997
  83.3299992 117.3084990  44.3619997  81.6709992 118.1694990  45.5639997
  81.0009992 119.0364990  45.3789997  82.1289992 118.3954990  46.5509997
  80.8369992 116.9524990  45.7109997  81.4629992 116.0674990  45.4689997
  80.1039992 117.0054990  44.8779997  80.0299992 116.8224990  47.0349997
  79.1849992 117.5424990  47.0799997  80.5019992 117.2774990  47.9309997
  79.4279992 115.4184990  47.4059997  78.5459992 115.1044990  46.8279997
  79.7649992 114.6064990  48.5129997  79.2689992 113.6294990  48.6089997
  80.7649992 114.8184990  49.5889997  80.3239992 115.6354990  50.1989997
  81.7969992 115.0914990  49.2839997  80.8979992 113.5734990  50.5569997
  81.3419992 112.7394990  49.9729997  79.8899992 113.2284990  50.8729997
  81.9199992 113.9854990  51.6599997  81.6859992 114.9064990  52.2359997
  82.9059992 114.1284990  51.1679997  82.0339992 112.9174990  52.7949997
  82.5639992 113.4674990  53.6019997  82.6389992 112.0434990  52.4729997
  80.6999992 112.4184990  53.4349997  80.9719992 111.7154990  54.2519997
  80.1099992 111.7634990  52.7589997  79.9649992 113.6224990  54.1149997
  79.5089992 114.2344990  53.3079997  80.7599992 114.3084990  54.4799997
  79.1109992 113.2644990  55.2939997  78.9479992 114.1734990  55.9109997
  79.7129992 112.6394990  55.9879997  77.8579992 112.5624990  54.9069997
  78.1039992 111.7874990  54.1499997  77.2089992 113.3494990  54.4669997
  77.3129992 112.1084990  55.7619997 133.4029992  61.1234990  56.1499997
 134.2989992  61.1924990  56.8029997 133.3169992  60.0524990  55.8669997
 132.5409992  61.3514990  56.8129997 133.4239992  61.9344990  54.8479997
 132.3859992  61.8234990  54.4689997 133.6019992  62.9984990  55.1149997
 134.1729992  61.3024990  53.7519997 135.1839992  61.0524990  54.1389997
 133.8149992  60.3164990  53.3889997 134.3959992  62.3154990  52.5389997
 133.4219992  62.5904990  52.0799997 134.8179992  63.3234990  52.7419997
 135.1519992  61.6124990  51.3539997 135.4279992  62.3724990  50.5919997
 136.0939992  61.1624990  51.7349997 134.2929992  60.5744990  50.6149997
 134.1449992  59.6994990  51.2839997 133.3539992  61.0434990  50.2509997
 135.0959992  59.9544990  49.3849997 135.5369992  60.6744990  48.6629997
 135.9579992  59.3774990  49.7849997 134.0829992  58.9344990  48.7869997
 133.9069992  58.0794990  49.4739997 133.0959992  59.4334990  48.6809997
 134.4649992  58.3624990  47.4229997 135.5109992  58.0154990  47.5649997
 133.8189992  57.5504990  47.0269997 134.4089992  59.3794990  46.1959997
 133.4819992  59.9904990  46.2159997 135.2639992  60.0714990  46.3529997
 134.4899992  58.6174990  44.8389997 135.2499992  57.8104990  44.7589997
 133.4909992  58.1414990  44.7369997 134.9499992  59.5334990  43.6749997
 134.0779992  60.1524990  43.3739997 135.7349992  60.2894990  43.8899997
 135.4859992  58.8104990  42.3929997 135.8789992  59.4954990  41.6109997
 136.3019992  58.0794990  42.5809997 134.3919992  58.0574990  41.6089997
 133.9599992  57.3384990  42.3379997 133.5189992  58.7344990  41.4909997
 135.0079992  57.3194990  40.4489997 135.5989992  58.0704990  39.8829997
 135.7339992  56.5504990  40.7879997 133.9489992  56.6224990  39.5489997
 132.9169992  56.0894990  40.0019997 134.2339992  56.8254990  38.2449997
 133.1769992  56.5974990  37.3239997 133.6049992  56.0354990  36.4669997
 132.4289992  55.9444990  37.8239997 132.5449992  57.9554990  36.7569997
 131.7749992  57.5954990  36.0409997 133.6509992  58.7754990  36.1579997
 134.2399992  58.1504990  35.4539997 133.1829992  59.5884990  35.5629997
 134.5089992  59.2824990  37.2529997 134.9299992  60.7614990  37.3709997
 133.6329992  61.5494990  36.8519997 133.6479992  62.9434990  37.2389997
 133.5149992  63.0114990  38.3399997 134.5739992  63.5054990  36.9919997
 132.5789992  63.7884990  36.4639997 132.6599992  64.6644990  37.0909997
 132.9349992  63.9974990  35.4659997 131.1039992  63.2344990  36.5029997
 130.6229992  63.0694990  37.9349997 131.2439992  62.3044990  38.3769997
 130.7399992  64.0344990  38.4049997 129.5929992  62.7444990  37.9549997
 130.1879992  64.2874990  35.9239997 130.4979992  64.4724990  34.9069997
 129.1469992  64.0294990  36.0549997 130.2989992  65.1374990  36.5799997
 130.9659992  62.0184990  35.7509997 131.6969992  61.9824990  34.9569997
 129.9609992  61.9434990  35.3619997 131.1009992  61.1334990  36.3559997
 135.2099992  61.1184990  38.7749997 136.0289992  60.9564990  36.4049997
 131.9099992  58.7844990  37.8599997 130.9649992  58.2194990  38.5199997
 130.2949992  57.2364990  38.2289997 130.5659992  59.1884990  39.6499997
 130.1449992  60.0734990  39.1269997 131.4449992  59.5474990  40.2259997
 129.4689992  58.5284990  40.4729997 129.7409992  57.4934990  40.7699997
 128.5959992  58.5824990  39.7869997 129.0869992  59.2984990  41.8339997
 127.9869992  59.2244990  41.9709997 129.4279992  60.3474990  41.7039997
 129.7349992  58.7764990  43.1159997 130.8069992  58.6494990  42.8519997
 129.2759992  57.8964990  43.6149997 129.6019992  59.8314990  44.2859997
 128.5659992  60.2334990  44.2939997 130.3209992  60.6654990  44.1449997
 129.8409992  59.2384990  45.6719997 130.8219992  58.7214990  45.6029997
 128.9559992  58.6194990  45.9309997 129.9539992  60.3684990  46.6699997
 128.9079992  60.7384990  46.6209997 130.7049992  61.1004990  46.3049997
 130.3589992  59.7514990  47.9959997 130.8509992  58.7684990  47.9559997
 130.1559992  60.4474990  49.1469997 130.2659992  60.0134990  50.1519997
 129.5379992  61.8614990  49.1889997 128.5309992  61.8074990  49.6549997
 129.3719992  62.3524990  48.2059997 130.5329992  62.8014990  49.9409997
 130.2119992  63.8554990  49.7989997 131.5099992  62.5874990  49.4579997
 130.5919992  62.5664990  51.4679997 131.3889992  63.2524990  51.8269997
 130.9399992  61.5424990  51.7199997 129.3299992  62.9764990  52.1929997
 128.6139992  62.2204990  51.8059997 129.0569992  64.0004990  51.8579997
 129.4789992  62.7664990  53.7269997 130.3359992  63.3354990  54.1459997
 129.6419992  61.6794990  53.8869997 128.1409992  63.2014990  54.4239997
 127.3489992  62.5194990  54.0479997 128.0279992  64.2294990  54.0169997
 128.1319992  63.2524990  55.9269997 127.1579992  63.6374990  56.2969997
 128.7829992  64.0264990  56.3869997 128.4249992  61.9654990  56.7139997
 127.6869992  61.1844990  56.4319997 128.2169992  62.0304990  57.8039997
 129.4239992  61.5234990  56.5089997  37.5409992 111.1694990  58.8789997
  37.0669992 112.1744990  58.8769997  37.6859992 110.7414990  59.8939997
  36.6949992 110.5364990  58.5359997  38.8209992 111.0764990  58.0219997
  39.4799992 111.8364990  58.4939997  39.3379992 110.0934990  57.9929997
  38.6209992 111.5354990  56.6379997  37.8849992 110.8884990  56.1159997
  38.1619992 112.5464990  56.5939997  39.8779992 111.9504990  55.6949997
  40.2389992 112.8674990  56.2069997  40.6619992 111.1684990  55.7849997
  39.5099992 112.2174990  54.2169997  38.5119992 112.7044990  54.2449997
  40.2629992 112.7964990  53.6419997  39.3809992 110.9434990  53.3359997
  40.3879992 110.4894990  53.2229997  38.7869992 110.1334990  53.8109997
  38.7349992 111.2754990  51.9709997  38.7509992 110.3004990  51.4379997
  37.6659992 111.5714990  52.0229997  39.3449992 112.3984990  51.1729997
  38.8599992 112.5034990  50.1789997  39.3119992 113.4074990  51.6359997
  40.7939992 112.1164990  50.6769997  41.4059992 113.0354990  50.5509997
  41.3079992 111.3974990  51.3509997  40.6869992 111.3314990  49.3319997
  39.8559992 110.5944990  49.3819997  40.5569992 112.0724990  48.5149997
  41.9979992 110.7074990  48.8289997  42.7919992 111.4324990  48.5489997
  42.3369992 110.1704990  49.7409997  41.6049992 109.6694990  47.7629997
  42.3279992 108.8304990  47.8449997  40.5939992 109.2864990  48.0179997
  41.6029992 110.2024990  46.2999997  40.9629992 111.1004990  46.4369997
  42.6329992 110.4984990  46.0069997  40.9689992 109.0744990  45.4249997
  41.7619992 108.3514990  45.1369997  40.1349992 108.6134990  45.9939997
  40.3789992 109.6114990  44.1589997  39.6739992 110.4464990  44.3539997
  41.1429992 109.9794990  43.4399997  39.4629992 108.5444990  43.5059997
  39.4969992 107.4104990  43.9059997  38.8069992 109.0864990  42.5569997
  37.8209992 108.1424990  42.0619997  38.4129992 107.2734990  41.7019997
  37.0899992 107.9124990  42.8659997  37.0489992 108.6674990  40.8619997
  36.5069992 107.8014990  40.4259997  37.9449992 109.2874990  39.7419997
  38.8709992 108.6754990  39.7519997  37.5509992 109.0724990  38.7259997
  38.2659992 110.6564990  39.9829997  37.4379992 111.6764990  39.1429997
  37.9869992 111.2604990  37.6939997  39.2909992 111.4494990  37.1159997
  39.7689992 112.3684990  37.5189997  39.8489992 110.5734990  37.5089997
  39.3409992 111.3674990  35.5389997  40.3629992 111.6784990  35.3799997
  39.3099992 110.4064990  35.0469997  38.3729992 112.2734990  34.7889997
  38.6249992 113.7374990  35.0469997  39.6699992 113.9574990  34.8879997
  37.9939992 114.3294990  34.3999997  38.3539992 113.9214990  36.0759997
  38.5039992 112.0014990  33.3159997  37.9979992 111.0644990  33.1379997
  37.9719992 112.7654990  32.7689997  39.5629992 112.0394990  33.1049997
  36.8929992 112.0454990  35.1019997  36.6229992 112.2714990  36.1219997
  36.6279992 110.9984990  35.0679997  36.2409992 112.5594990  34.4109997
  35.9699992 111.4634990  39.1999997  37.9189992 113.0074990  39.5439997
  36.1549992 109.6914990  41.2279997  35.0379992 109.4284990  41.9719997
  34.6789992 108.2964990  42.2629997  34.2389992 110.6604990  42.3959997
  33.4409992 110.3134990  43.0859997  33.6599992 111.0454990  41.5289997
  35.0629992 111.7984990  43.0279997  34.5959992 112.7204990  42.6209997
  36.1269992 111.6724990  42.7349997  35.0489992 111.9924990  44.5479997
  34.5389992 111.1214990  45.0119997  34.3019992 112.7994990  44.7089997
  36.3859992 112.2934990  45.2209997  36.1159992 112.6514990  46.2369997
  36.9819992 113.1054990  44.7509997  37.4079992 111.1284990  45.3979997
  38.4029992 111.4174990  45.7999997  37.4809992 110.7964990  44.3399997
  36.9279992 109.9764990  46.3099997  37.5209992 109.0454990  46.1829997
  35.8759992 109.7944990  46.0019997  36.9939992 110.3234990  47.8509997
  36.6439992 111.3724990  47.9559997  38.0439992 110.4114990  48.2039997
  36.1859992 109.2764990  48.6619997  36.5709992 108.2474990  48.6009997
  34.9939992 109.4934990  49.2479997  34.4429992 108.6194990  49.6269997
  34.0709992 110.6244990  49.3819997  33.1009992 110.3264990  48.9299997
  34.3329992 111.5544990  48.8349997  33.6629992 110.9104990  50.9089997
  33.3869992 110.0254990  51.5199997  32.7109992 111.4714990  50.7879997
  34.6939992 111.7094990  51.7609997  34.9929992 112.6784990  51.3069997
  35.6419992 111.1454990  51.8969997  34.0669992 111.9304990  53.1189997
  33.0869992 112.4444990  53.0199997  34.7909992 112.5304990  53.7119997
  33.8489992 110.6584990  53.9799997  33.2869992 109.9114990  53.3789997
  33.1989992 110.8534990  54.8609997  35.0809992 109.8694990  54.3869997
  35.8429992 110.4934990  54.9029997  35.5649992 109.4954990  53.4589997
  34.9849992 108.5894990  55.2049997  34.3629992 107.8744990  54.6259997
  34.5049992 108.6854990  56.2029997  36.4229992 107.9644990  55.4059997
  37.0579992 107.9634990  54.4939997  36.2049992 106.9324990  55.7529997
  36.9899992 108.5594990  56.1539997  62.1839992 123.7524990  56.9289997
  62.2279992 122.7924990  56.3699997  61.7869992 123.4474990  57.9209997
  63.2089992 124.1664990  57.0329997  61.3039992 124.6164990  56.1159997
  60.4019992 124.8964990  56.7009997  61.7889992 125.5544990  55.7739997
  60.8809992 123.8834990  54.8099997  60.4299992 124.6664990  54.1639997
  61.8039992 123.4484990  54.3689997  59.8729992 122.7094990  55.0259997
  60.0859992 122.0834990  55.9179997  58.9309992 123.2864990  55.1439997
  59.7519992 121.8514990  53.7999997  60.7559992 121.4284990  53.5839997
  58.9669992 121.1214990  54.0929997  59.2319992 122.5704990  52.5459997
  58.3259992 123.1674990  52.7799997  59.9929992 123.3064990  52.2089997
  59.0089992 121.5754990  51.3819997  59.9149992 120.9344990  51.3239997
  58.1469992 120.9194990  51.6289997  58.8319992 122.4364990  50.1449997
  58.0359992 123.1634990  50.4149997  59.7489992 122.9714990  49.8169997
  58.3409992 121.7164990  48.9179997  57.4239992 121.1494990  49.1829997
  58.0229992 122.4064990  48.1069997  59.4269992 120.7574990  48.2859997
  59.7859992 120.1264990  49.1269997  58.8449992 120.2984990  47.4579997
  60.6179992 121.4114990  47.5999997  61.3179992 121.8904990  48.3179997
  61.2099992 120.5734990  47.1749997  60.2149992 122.4694990  46.5329997
  59.3919992 122.0394990  45.9219997  59.8459992 123.4254990  46.9629997
  61.3999992 122.9524990  45.6649997  62.2319992 123.1594990  46.3719997
  61.6399992 122.1244990  44.9639997  61.2609992 124.1804990  44.7799997
  60.2669992 124.1104990  44.2879997  61.2229992 125.0634990  45.4529997
  62.3939992 124.3434990  43.7419997  63.3129992 124.3454990  44.3659997
  62.4439992 123.4634990  43.0659997  62.3119992 125.6834990  43.0319997
  62.3499992 126.7794990  43.6019997  62.6149992 125.5324990  41.7379997
  62.8289992 126.7074990  40.9769997  61.9649992 127.4064990  40.9929997
  63.7529992 127.1754990  41.3779997  63.1909992 126.3444990  39.5129997
  63.2319992 127.3184990  38.9789997  62.1039992 125.4504990  38.8779997
  61.0789992 125.7084990  39.2209997  62.0269992 125.7004990  37.7979997
  62.3009992 124.0684990  39.1059997  61.1679992 123.0204990  38.9009997
  61.7329992 121.8984990  38.0439997  62.9009992 121.9534990  37.3299997
  63.5949992 122.7004990  37.7709997  63.4669992 120.9984990  37.2849997
  62.7129992 122.5104990  35.8859997  62.3469992 123.5264990  35.8499997
  63.6479992 122.5174990  35.3439997  61.7779992 121.7564990  34.9449997
  62.1889992 120.3734990  34.8949997  63.1909992 120.2654990  34.5079997
  62.1859992 119.8724990  35.8519997  61.4379992 119.9314990  34.2569997
  60.3129992 121.8704990  35.3969997  60.0759992 122.8634990  35.7469997
  59.7269992 121.5894990  34.5339997  60.1579992 121.1784990  36.2109997
  61.9759992 122.4024990  33.6169997  61.5119992 121.8754990  32.7959997
  63.0309992 122.4364990  33.3899997  61.6679992 123.4374990  33.6499997
  60.7319992 122.5294990  40.2219997  60.1419992 123.6834990  38.1289997
  64.4519992 125.7654990  39.5629997  65.0149992 125.1174990  38.4959997
  64.6779992 125.1484990  37.3469997  66.3729992 124.4144990  38.9649997
  67.1219992 125.2084990  39.1719997  66.7539992 123.7734990  38.1419997
  66.0589992 123.6264990  40.2799997  65.6469992 124.2694990  41.0869997
  67.0979992 123.3594990  40.5679997  65.3489992 122.3104990  40.0389997
  65.7239992 121.8604990  39.0959997  64.2589992 122.5114990  39.9579997
  65.5379992 121.2124990  41.1729997  66.6139992 120.9404990  41.2199997
  64.9489992 120.3784990  40.7319997  65.0789992 121.5724990  42.5939997
  64.1939992 122.2434990  42.5829997  65.9159992 122.2134990  42.9419997
  64.8599992 120.3824990  43.5109997  65.5919992 119.5594990  43.3699997
  63.8769992 120.0144990  43.1449997  64.6689992 120.8204990  45.0139997
  64.2519992 119.9774990  45.6049997  63.9059992 121.6274990  45.0079997
  65.9029992 121.2584990  45.6809997  66.6889992 120.5074990  45.5099997
  66.1919992 122.4254990  46.2749997  67.1519992 122.6144990  46.7789997
  65.2829992 123.5834990  46.4199997  64.3849992 123.5724990  45.7659997
  65.8359992 124.4544990  46.0059997  64.8579992 123.8934990  47.8849997
  65.7709992 124.0804990  48.4889997  64.3179992 123.0464990  48.3589997
  63.8409992 125.0444990  48.0559997  62.9819992 125.0764990  47.3519997
  64.3209992 126.0464990  48.0189997  63.2019992 124.8894990  49.4609997
  62.6359992 123.9354990  49.5109997  62.3599992 125.5974990  49.6189997
  64.1719992 125.1944990  50.6199997  64.3189992 126.2954990  50.6169997
  65.1239992 124.6204990  50.6409997  63.5379992 124.9284990  51.9819997
  63.6789992 123.8354990  52.1199997  62.4699992 125.2294990  52.0359997
  64.2919992 125.4884990  53.1489997  63.6739992 125.2704990  54.0459997
  64.4089992 126.5804990  52.9829997  65.6499992 124.9774990  53.3909997
  66.1889992 125.0504990  52.4219997  65.5439992 123.9304990  53.7489997
  66.1179992 125.5394990  54.2279997  73.5379992 120.4154990  53.1859997
  72.5289992 120.8674990  53.0739997  74.2119992 121.2444990  53.4919997
  73.4919992 119.6504990  53.9899997  74.0469992 119.9094990  51.9109997
  75.0109992 119.4234990  52.1739997  73.3119992 119.2694990  51.3789997
  74.4659992 120.8824990  50.8229997  73.6629992 121.1094990  50.0889997
  74.5799992 121.8694990  51.3189997  75.6719992 120.4944990  49.9919997
  75.9959992 121.4454990  49.5179997  76.4799992 120.0904990  50.6399997
  75.2359992 119.4824990  48.9239997  74.9859992 118.5994990  49.5489997
  74.3349992 119.8874990  48.4149997  76.3179992 119.1294990  47.9129997
  77.2189992 118.8724990  48.5089997  75.9099992 118.2844990  47.3179997
  76.7729992 120.2654990  47.0119997  75.9739992 120.8894990  46.5579997
  77.2639992 120.9734990  47.7129997  77.7839992 119.8164990  45.9329997
  78.6429992 119.3264990  46.4399997  77.3649992 119.0024990  45.3049997
  78.2999992 120.9384990  45.0429997  79.0969992 121.4194990  45.6479997
  78.7089992 120.7384990  44.0289997  77.3799992 122.1304990  44.7929997
  76.9759992 122.5554990  45.7359997  77.9289992 122.9154990  44.2289997
  76.1509992 121.7584990  43.9369997  75.4299992 121.3144990  44.6559997
  75.8379992 122.6244990  43.3149997  76.3519992 120.6184990  42.9049997
  76.9469992 121.0254990  42.0599997  76.7859992 119.6674990  43.2799997
  74.9859992 120.2704990  42.1299997  75.2349992 119.3754990  41.5199997
  74.1579992 120.1674990  42.8639997  74.5129992 121.3594990  41.1439997
  74.8919992 122.3164990  41.5629997  75.0439992 121.2004990  40.1809997
  72.9959992 121.2324990  40.8989997  72.6759992 120.3544990  40.2979997
  72.4199992 120.9904990  41.8179997  72.4559992 122.5204990  40.3109997
  71.4549992 123.1654990  40.6719997  73.2249992 122.8324990  39.2629997
  73.0079992 124.0934990  38.6769997  72.3169992 124.0784990  37.8069997
  72.5149992 124.8174990  39.3599997  74.2669992 124.7294990  38.0019997
  74.0929992 125.7874990  37.7109997  74.6589992 123.9574990  36.6349997
  73.7859992 123.9644990  35.9469997  75.4809992 124.3914990  36.0279997
  74.8929992 122.5754990  36.9809997  74.8229992 121.3794990  35.9789997
  76.4049992 121.0764990  35.8309997  76.9539992 120.0664990  36.6779997
  76.2249992 119.2944990  37.0069997  77.6309992 119.4984990  36.0039997
  77.5649992 120.5734990  37.9649997  76.8329992 120.9354990  38.6719997
  77.8709992 119.6744990  38.4799997  78.5909992 121.5784990  37.9179997
  79.0269992 121.8394990  39.3019997  78.2269992 122.0974990  39.9799997
  79.5049992 120.9514990  39.6879997  79.7559992 122.6354990  39.3279997
  79.7899992 121.2024990  37.0549997  80.1029992 120.1914990  37.2689997
  79.5099992 121.1064990  36.0159997  80.5389992 121.9274990  37.3369997
  78.1279992 122.8764990  37.3309997  78.9509992 123.5624990  37.4649997
  77.2739992 123.0944990  37.9549997  77.8499992 122.7394990  36.2959997
  74.0139992 120.3414990  36.6969997  74.2509992 121.9194990  34.7359997
  75.2589992 124.7694990  39.0079997  76.3249992 125.5674990  38.8169997
  76.6259992 126.1944990  37.7789997  76.9919992 125.8174990  40.1329997
  78.0579992 125.8924990  39.8269997  76.8329992 124.8894990  40.7219997
  76.4319992 127.0194990  40.8949997  76.6679992 127.8804990  40.2339997
  76.9239992 127.2354990  41.8669997  74.9339992 126.9894990  41.2129997
  74.2389992 126.8414990  40.3589997  74.6839992 127.9324990  41.7439997
  74.7489992 125.9444990  42.2449997  75.5579992 126.0634990  42.9969997
  74.9159992 124.9944990  41.6939997  73.3879992 125.8604990  42.9069997
  72.6879992 126.0284990  42.0609997  73.3269992 126.7494990  43.5699997
  73.1669992 124.5554990  43.7329997  73.9609992 124.5514990  44.5099997
  73.3949992 123.7974990  42.9529997  71.8069992 124.4284990  44.4509997
  71.0709992 124.3194990  43.6249997  71.6459992 125.3734990  45.0129997
  71.8769992 123.1654990  45.3419997  71.5969992 122.2434990  44.8119997
  72.4319992 122.9894990  46.5279997  72.5209992 121.9584990  46.9019997
  73.1389992 123.9224990  47.4279997  72.6509992 123.9244990  48.4269997
  73.1839992 124.9754990  47.0759997  74.6379992 123.5894990  47.5079997
  74.9949992 123.4364990  46.4669997  74.7769992 122.5394990  47.8429997
  75.5789992 124.7054990  48.0319997  75.1299992 125.6424990  47.6369997
  76.5559992 124.6134990  47.5109997  75.7319992 124.6314990  49.5089997
  76.4009992 123.7554990  49.6509997  74.6929992 124.5274990  49.8879997
  76.3919992 125.8844990  50.2129997  75.5549992 126.5494990  50.5169997
  77.0429992 126.4344990  49.5009997  77.0399992 125.4994990  51.5559997
  77.4799992 126.4194990  51.9959997  77.8829992 124.8434990  51.2499997
  76.1739992 124.7984990  52.6079997  75.6449992 123.9484990  52.1249997
  75.4449992 125.5954990  52.8679997  76.8119992 124.4154990  53.9529997
  76.0989992 124.5314990  54.7979997  77.5239992 125.1344990  54.4109997
  77.1259992 123.3614990  53.7949997  55.6849992  14.0524990  54.9389997
  56.1079992  14.7624990  54.1969997  55.4849992  13.0074990  54.6189997
  56.4529992  13.9694990  55.7379997  54.4829992  14.6624990  55.5839997
  54.1759992  14.0524990  56.4609997  54.7209992  15.6564990  56.0189997
  53.1999992  14.7434990  54.7309997  52.9849992  13.8044990  54.1789997
  52.4209992  14.7864990  55.5219997  53.0359992  15.8854990  53.7299997
  53.6169992  16.7974990  53.9849997  53.4089992  15.6624990  52.7069997
  51.5879992  16.3124990  53.6579997  50.8799992  15.4764990  53.8399997
  51.3289992  17.1564990  54.3329997  51.2159992  16.7634990  52.1849997
  51.5749992  15.9164990  51.5619997  50.1249992  16.9384990  52.0629997
  51.8159992  18.1054990  51.8549997  51.4679992  18.7534990  52.6869997
  52.9209992  17.9914990  51.8689997  51.3499992  18.7554990  50.5449997
  50.2629992  18.9354990  50.6849997  51.8699992  19.7254990  50.3899997
  51.5649992  17.8494990  49.2929997  52.6729992  17.7724990  49.2809997
  51.1399992  16.8224990  49.2839997  51.0339992  18.3964990  47.9479997
  49.9689992  18.1124990  47.8069997  51.1689992  19.4964990  48.0169997
  51.8409992  17.9124990  46.7709997  52.8409992  18.3944990  46.8169997
  52.0599992  16.8234990  46.8079997  51.2389992  18.3534990  45.4099997
  50.4419992  17.6414990  45.1049997  50.7539992  19.3394990  45.5709997
  52.2949992  18.5384990  44.2709997  52.9759992  19.3964990  44.4559997
  52.9219992  17.6314990  44.1379997  51.6299992  18.9624990  42.9559997
  50.6619992  18.4234990  42.8689997  51.3139992  20.0264990  42.9309997
  52.5199992  18.7364990  41.6759997  52.7669992  17.6594990  41.5589997
  51.9049992  19.0484990  40.8049997  53.8579992  19.5234990  41.6659997
  54.4269992  20.0464990  42.6029997  54.2279992  19.6264990  40.3789997
  55.4479992  20.2354990  39.9909997  55.3419992  20.7954990  39.0379997
  55.8469992  20.9154990  40.7729997  56.5669992  19.2364990  39.8549997
  57.5279992  19.6904990  39.5319997  56.1329992  18.1194990  38.8149997
  55.7529992  18.5994990  37.8879997  57.0369992  17.5194990  38.5769997
  55.1219992  17.2774990  39.3939997  54.0079992  16.4854990  38.5209997
  54.7549992  15.6094990  37.4779997  55.9549992  14.8624990  37.7379997
  56.2619992  14.8944990  38.8049997  55.6319992  13.8124990  37.5719997
  57.1309992  15.1734990  36.6239997  57.4639992  16.1814990  36.8239997
  57.8589992  14.4144990  36.8669997  56.6529992  14.9084990  35.2579997
  57.8849992  14.6834990  34.3959997  58.4729992  13.8884990  34.8309997
  57.5559992  14.4344990  33.3979997  58.5239992  15.5354990  34.5739997
  55.6659992  13.8664990  35.0149997  55.3409992  13.8994990  33.9849997
  56.0779992  12.8994990  35.2629997  54.7369992  13.9494990  35.5589997
  56.0429992  16.1914990  34.6849997  56.7729992  16.9864990  34.7269997
  55.1619992  16.4574990  35.2499997  55.8459992  15.9074990  33.6619997
  53.4459992  15.4914990  39.4589997  53.0589992  17.4074990  37.9029997
  56.7609992  18.7084990  41.1499997  57.7729992  17.8924990  41.4159997
  58.7469992  17.7594990  40.7249997  57.4749992  17.0584990  42.6459997
  57.4159992  15.9634990  42.4659997  56.5089992  17.4664990  43.0129997
  58.4999992  17.3134990  43.8019997  58.6719992  18.4004990  43.9589997
  59.4899992  16.8524990  43.5979997  58.0079992  16.6474990  45.0879997
  58.7489992  16.0084990  45.6139997  57.1949992  15.9584990  44.7769997
  57.4859992  17.5014990  46.1649997  56.7299992  18.2134990  45.7699997
  58.3369992  18.1254990  46.5099997  56.7879992  16.6874990  47.3289997
  57.5129992  15.9244990  47.6839997  55.9419992  16.0694990  46.9589997
  56.3149992  17.5364990  48.5609997  55.4709992  18.1204990  48.1359997
  56.9899992  18.3414990  48.9229997  55.9889992  16.7284990  49.8399997
  55.4139992  15.8294990  49.5309997  55.3639992  17.3734990  50.4949997
  57.2599992  16.2964990  50.4999997  57.6439992  15.3294990  50.1449997
  57.9039992  16.9064990  51.4479997  58.9039992  16.4514990  51.5089997
  57.6779992  18.2064990  52.1729997  56.7479992  18.7024990  51.8229997
  58.4859992  18.9574990  52.0389997  57.5499992  17.7944990  53.6519997
  58.5089992  17.3324990  53.9679997  56.6169992  17.2144990  53.8189997
  57.2539992  18.9524990  54.6109997  56.3089992  19.4154990  54.2539997
  58.0769992  19.6874990  54.4869997  57.2409992  18.6924990  56.1399997
  57.0349992  19.6734990  56.6209997  58.2039992  18.3104990  56.5389997
  56.1299992  17.8174990  56.5379997  56.5119992  16.7764990  56.4659997
  55.3259992  17.9424990  55.7819997  55.8169992  18.0814990  58.0169997
  55.8969992  19.1564990  58.2869997  56.5549992  17.6054990  58.6979997
  54.4829992  17.3854990  58.4579997  54.6239992  17.0164990  59.4969997
  54.3559992  16.5504990  57.7369997  53.3239992  18.3864990  58.4979997
  53.5009992  19.1644990  59.2699997  52.3259992  17.9724990  58.7589997
  53.0389992  18.7754990  57.4969997  14.1329992  58.1344990  56.4429997
  14.1009992  57.2594990  57.1259997  13.1889992  58.1824990  55.8589997
  14.1889992  58.9794990  57.1619997  15.3199992  58.1414990  55.5089997
  16.2119992  57.9544990  56.1439997  15.4019992  57.1974990  54.9289997
  15.3739992  59.4144990  54.6759997  14.3939992  59.4104990  54.1529997
  15.3599992  60.2804990  55.3719997  16.5339992  59.5764990  53.7789997
  17.4919992  59.5994990  54.3409997  16.6129992  58.7434990  53.0489997
  16.4809992  60.9094990  53.0049997  15.5679992  60.8794990  52.3729997
  16.2939992  61.7394990  53.7199997  17.5929992  61.2964990  52.0619997
  17.3469992  62.3194990  51.7059997  18.5389992  61.3224990  52.6439997
  17.9089992  60.2664990  50.9749997  18.0749992  59.3264990  51.5419997
  16.9699992  60.1804990  50.3869997  19.0379992  60.6604990  50.0739997
  18.7929992  61.5744990  49.4919997  19.9719992  60.7744990  50.6659997
  19.3269992  59.5694990  49.0539997  18.5519992  59.6834990  48.2659997
  20.2789992  59.9004990  48.5879997  19.1709992  58.0504990  49.3969997
  19.8369992  57.7204990  50.2229997  18.0969992  57.9634990  49.6649997
  19.4549992  57.1404990  48.2049997  19.4139992  56.0554990  48.4399997
  18.6859992  57.3834990  47.4409997  20.8069992  57.3934990  47.4579997
  20.7779992  58.4074990  47.0049997  21.6459992  57.3654990  48.1869997
  21.0449992  56.4154990  46.2669997  21.8139992  56.9264990  45.6489997
  21.4339992  55.4444990  46.6399997  19.7679992  56.1054990  45.4189997
  18.9799992  55.5744990  45.9949997  19.2989992  57.1124990  45.3909997
  20.0539992  55.4064990  44.0379997  20.6969992  56.0194990  43.3719997
  20.6219992  54.4954990  44.3249997  18.7659992  55.1354990  43.3999997
  17.7559992  54.8254990  43.9849997  18.9129992  55.3904990  42.1289997
  17.8879992  55.2224990  41.1539997  18.3909992  55.0564990  40.1769997
  17.2119992  54.3624990  41.3489997  17.0249992  56.4844990  40.9289997
  16.2699992  56.3174990  40.1309997  17.9089992  57.6704990  40.3979997
  18.5289992  57.8664990  41.2989997  18.5719992  57.4244990  39.5419997
  17.1349992  58.8204990  40.1479997  16.8739992  59.2024990  38.6539997
  16.9569992  57.7794990  37.9049997  15.7379992  57.3234990  37.1979997
  14.9539992  56.9814990  37.9079997  15.3009992  58.1174990  36.5549997
  15.9619992  56.1644990  36.2339997  16.0379992  55.2414990  36.7889997
  15.0559992  56.1514990  35.6459997  17.0659992  56.3264990  35.1639997
  16.8479992  57.6824990  34.4889997  17.4399992  57.8344990  33.5989997
  15.7829992  57.7924990  34.3469997  17.1829992  58.4714990  35.1469997
  18.4129992  56.3204990  35.6689997  18.6169992  55.2604990  35.6609997
  19.0879992  56.7884990  34.9669997  18.3459992  56.8824990  36.5889997
  16.8449992  55.2064990  34.1739997  17.3649992  55.5204990  33.2819997
  15.8329992  55.2514990  33.7999997  17.0209992  54.2204990  34.5789997
  15.4919992  59.7164990  38.5959997  18.0339992  60.0444990  38.2409997
  16.3799992  56.8654990  42.1179997  15.0939992  56.4764990  42.3489997
  14.3589992  55.7704990  41.6859997  14.5359992  57.2484990  43.5509997
  13.4299992  57.2114990  43.4469997  14.9379992  58.2774990  43.4289997
  14.9769992  56.6654990  44.9289997  16.0639992  56.7084990  44.7019997
  14.6829992  55.6184990  45.1539997  14.5599992  57.4814990  46.1369997
  13.4829992  57.6264990  45.9039997  15.1209992  58.4374990  46.2099997
  14.6599992  56.7174990  47.4929997  14.0469992  55.8024990  47.3469997
  14.1599992  57.3274990  48.2749997  16.0449992  56.2604990  47.9269997
  16.6649992  57.1814990  47.9659997  16.3859992  55.5194990  47.1719997
  16.3639992  55.7374990  49.3919997  16.0759992  56.5744990  50.0629997
  17.4519992  55.6204990  49.5859997  15.6339992  54.4664990  49.7279997
  14.6419992  54.5494990  49.2349997  15.5239992  54.4174990  50.8329997
  16.4449992  53.2774990  49.2069997  16.4189992  53.0574990  48.1289997
  17.3149992  52.6224990  50.0079997  18.0489992  51.9894990  49.4869997
  17.7079992  52.8794990  51.4759997  17.9939992  51.9124990  51.9419997
  16.9019992  53.2594990  52.1389997  18.9599992  53.7704990  51.5779997
  18.9599992  54.7694990  51.0909997  19.8679992  53.1974990  51.2899997
  19.4029992  54.0234990  53.0709997  20.3559992  54.5534990  53.2849997
  19.3349992  53.0504990  53.6029997  18.3479992  54.9344990  53.8209997
  17.3479992  54.4684990  53.6869997  18.4419992  55.9534990  53.3899997
  18.6959992  55.0704990  55.3089997  18.4769992  54.0584990  55.7139997
  18.0099992  55.8094990  55.7729997  20.2259992  55.5724990  55.5509997
  20.3639992  56.4594990  54.8959997  20.9249992  54.7744990  55.2169997
  20.5489992  56.0114990  56.9929997  20.5179992  55.1854990  57.7359997
  19.8599992  56.8564990  57.2039997  21.8989992  56.7024990  57.0989997
  22.6289992  56.3194990  56.3529997  22.4349992  56.4764990  58.0449997
  21.7329992  57.7934990  56.9649997  77.1179992  19.5684990  54.9889997
  77.1949992  20.6654990  55.1509997  78.0799992  19.2274990  54.5509997
  76.9449992  19.1304990  55.9959997  75.9989992  19.1184990  54.0159997
  76.3409992  18.1144990  53.6859997  74.9659992  19.1824990  54.4199997
  75.9159992  19.7654990  52.5409997  75.2729992  19.0614990  51.9719997
  75.5129992  20.7934990  52.4169997  77.2029992  19.7774990  51.7479997
  77.9299992  20.3554990  52.3569997  77.6529992  18.7684990  51.8569997
  77.0949992  20.3164990  50.3139997  76.7169992  21.3554990  50.1979997
  78.1379992  20.2494990  49.9369997  76.2999992  19.2864990  49.4089997
  76.5649992  18.2834990  49.8059997  75.2539992  19.4984990  49.7179997
  76.4799992  19.5194990  47.9219997  75.9549992  20.4864990  47.7699997
  77.5759992  19.6014990  47.7569997  76.0489992  18.2414990  47.1029997
  76.7799992  17.4424990  47.3509997  75.0199992  17.8784990  47.3119997
  76.0629992  18.6524990  45.5939997  75.4369992  19.5694990  45.5609997
  77.0539992  18.9764990  45.2119997  75.4549992  17.6594990  44.6269997
  76.2449992  16.8824990  44.5469997  74.4849992  17.2694990  45.0009997
  75.2429992  18.0614990  43.1419997  74.5009992  18.8844990  43.2149997
  76.1759992  18.4634990  42.6909997  74.6499992  16.8964990  42.2689997
  73.9069992  16.2644990  42.7999997  74.0269992  17.5084990  41.5819997
  75.7959992  15.9644990  41.7869997  76.2629992  16.3594990  40.8599997
  76.6239992  15.8294990  42.5159997  75.2939992  14.5774990  41.4009997
  75.1839992  14.0384990  42.3669997  74.2899992  14.6864990  40.9379997
  76.1469992  13.7354990  40.3949997  77.2309992  13.8114990  40.6239997
  75.7799992  12.6904990  40.4729997  75.9149992  14.1774990  38.9479997
  74.9169992  14.7954990  38.5929997  76.9879992  13.8144990  38.0919997
  76.9729992  14.3484990  36.8119997  77.1379992  13.4614990  36.1639997
  76.1269992  14.9694990  36.4479997  78.2329992  15.3344990  36.6559997
  77.9899992  16.2224990  37.2789997  78.4309992  15.7624990  35.1779997
  78.6109992  14.9164990  34.4809997  77.4899992  16.2644990  34.8669997
  79.5449992  16.6064990  35.0139997  79.3989992  18.2284990  35.1199997
  78.7069992  18.3564990  36.5829997  79.1879992  19.1684990  37.6159997
  79.4819992  18.4694990  38.4279997  79.9339992  19.9064990  37.2499997
  78.0309992  20.1454990  37.9519997  78.3379992  20.9924990  38.5469997
  77.7339992  20.6484990  37.0439997  76.7659992  19.5794990  38.5929997
  77.1299992  18.7614990  39.8219997  77.7349992  19.4734990  40.3619997
  76.2679992  18.3044990  40.2849997  77.8089992  17.9654990  39.5549997
  75.7809992  20.7524990  38.9779997  75.4099992  21.1174990  38.0319997
  74.8989992  20.3364990  39.4419997  76.2469992  21.4504990  39.6589997
  76.0499992  18.5874990  37.7119997  75.8049992  19.1254990  36.8079997
  75.1699992  18.1634990  38.1729997  76.7139992  17.7734990  37.4599997
  80.7319992  18.8714990  35.0229997  78.5239992  18.7364990  34.0589997
  79.3799992  14.6504990  37.0909997  79.7599992  15.0324990  38.3319997
  79.1089992  15.7154990  39.0999997  81.1659992  14.5504990  38.6159997
  81.6889992  14.3644990  37.6539997  81.1869992  13.5814990  39.1579997
  82.0239992  15.4954990  39.4919997  82.8799992  14.8974990  39.8699997
  81.5479992  15.7804990  40.4549997  82.4749992  16.7514990  38.6769997
  81.6429992  16.9974990  37.9839997  83.2669992  16.4634990  37.9529997
  82.8899992  17.9264990  39.6129997  83.4659992  18.7394990  39.1209997
  83.6469992  17.4704990  40.2859997  81.8179992  18.4934990  40.4489997
  81.1269992  17.6494990  40.6599997  81.1869992  19.1874990  39.8519997
  82.3519992  19.2414990  41.6789997  81.6659992  19.9764990  42.1499997
  83.1999992  19.8354990  41.2749997  82.9889992  18.3674990  42.8019997
  83.2369992  18.9424990  43.7199997  83.9249992  17.9464990  42.3769997
  82.1199992  17.1914990  43.2259997  81.8669992  16.5144990  42.3959997
  81.5089992  17.2084990  44.4459997  81.0189992  16.2804990  44.7759997
  81.6119992  18.3684990  45.4299997  81.6219992  19.2354990  44.7349997
  82.6059992  18.4524990  45.9199997  80.5669992  18.6404990  46.4689997
  79.5989992  18.5164990  45.9369997  80.6249992  19.6854990  46.8399997
  80.5229992  17.6104990  47.6889997  80.7359992  16.5904990  47.3039997
  79.4459992  17.5654990  47.9589997  81.4979992  17.9874990  48.9049997
  81.0639992  18.9464990  49.2589997  82.5399992  18.1354990  48.5489997
  81.5229992  16.9884990  50.0919997  82.3519992  17.2434990  50.7859997
  81.6469992  15.9114990  49.8479997  80.2779992  16.9614990  50.9529997
  79.3919992  16.8424990  50.2929997  80.2459992  17.9574990  51.4439997
  80.2699992  15.7814990  51.9489997  81.2859992  15.7584990  52.3969997
  80.2379992  14.9144990  51.2539997  79.1059992  15.8714990  52.8939997
  78.2189992  15.6924990  52.2499997  78.9829992  16.8384990  53.4249997
  79.2129992  15.1054990  53.6919997  13.5249992  46.5734990  56.7949997
  12.7719992  45.8674990  57.2059997  12.7939992  47.2224990  56.2679997
  14.0099992  47.0894990  57.6509997  14.4709992  45.9154990  55.9539997
  15.0639992  45.2754990  56.6409997  14.0419992  45.4124990  55.0609997
  15.4679992  46.9524990  55.4459997  14.9519992  47.3474990  54.5439997
  15.5049992  47.6934990  56.2719997  16.8409992  46.4324990  54.9489997
  17.3609992  45.8864990  55.7649997  16.7479992  45.6674990  54.1489997
  17.7929992  47.4674990  54.4849997  17.8409992  48.1474990  55.3619997
  18.7889992  47.0134990  54.2989997  17.2489992  48.2894990  53.2199997
  16.9249992  47.5304990  52.4759997  16.3319992  48.8404990  53.5199997
  18.1969992  49.2804990  52.5229997  17.4949992  49.9074990  51.9339997
  18.5899992  49.8764990  53.3749997  19.2089992  48.7124990  51.5609997
  19.8409992  49.5124990  51.1199997  19.9759992  48.1104990  52.0939997
  18.7769992  47.8354990  50.3549997  19.7429992  47.4324990  49.9819997
  18.2439992  46.9524990  50.7659997  17.7749992  48.3604990  49.2859997
  16.7779992  48.5714990  49.7279997  18.1199992  49.2334990  48.6909997
  17.4639992  47.2694990  48.2649997  18.3559992  46.7424990  47.8639997
  16.8529992  46.4634990  48.7249997  16.7329992  47.9164990  47.0759997
  16.0869992  48.6824990  47.5539997  17.5799992  48.3204990  46.4809997
  15.7599992  47.0394990  46.3839997  16.1719992  46.0264990  46.1859997
  14.8189992  46.9554990  46.9689997  15.4889992  47.5794990  44.9569997
  16.3779992  48.1074990  44.5529997  15.2229992  46.7574990  44.2579997
  14.2819992  48.5974990  44.8819997  13.3699992  47.9984990  45.0919997
  14.3429992  49.4044990  45.6429997  14.0339992  49.0654990  43.4249997
  13.0899992  48.5524990  42.8269997  14.8309992  50.0384990  42.9829997
  14.5329992  50.2844990  41.5889997  14.4289992  49.3194990  41.0489997
  13.4859992  50.6544990  41.5469997  15.5619992  51.1634990  40.9009997
  15.2559992  52.1954990  41.1789997  15.3389992  51.0934990  39.3429997
  15.0679992  50.0334990  39.1459997  14.3729992  51.5604990  39.0559997
  16.4279992  51.6244990  38.6179997  17.5139992  50.9694990  37.7649997
  17.3509992  49.4304990  38.0239997  18.2969992  48.5704990  37.3859997
  19.3129992  48.9994990  37.2549997  18.5689992  47.8094990  38.1489997
  17.7089992  48.2054990  36.0479997  17.7029992  49.1014990  35.4459997
  18.3539992  47.5244990  35.5129997  16.4069992  47.5214990  35.9899997
  15.3109992  48.4484990  36.4649997  14.3689992  48.0294990  36.1439997
  15.2769992  48.5874990  37.5349997  15.4079992  49.3974990  35.9589997
  16.1099992  47.1294990  34.5569997  16.9449992  46.5794990  34.1479997
  15.3499992  46.3634990  34.5009997  15.9439992  47.9854990  33.9199997
  16.4089992  46.3254990  36.9329997  16.5679992  46.7214990  37.9259997
  17.1769992  45.6204990  36.6539997  15.4559992  45.8204990  36.8729997
  17.2189992  51.2654990  36.3539997  18.8049992  51.4044990  38.3309997
  16.8679992  50.6974990  41.1609997  17.6909992  51.7294990  41.2369997
  17.4149992  52.8684990  40.8759997  19.0149992  51.1934990  41.7959997
  19.6669992  52.0444990  42.0859997  19.5509992  50.6484990  40.9889997
  18.7459992  50.2914990  43.0329997  19.5479992  49.5284990  43.1199997
  17.9059992  49.6164990  42.7609997  18.5699992  51.0984990  44.3179997
  19.1419992  52.0504990  44.3309997  19.0419992  50.5864990  45.1839997
  17.0459992  51.2434990  44.7619997  16.4819992  50.3014990  44.5909997
  16.6489992  51.9524990  44.0039997  16.8569992  51.6404990  46.2049997
  17.2509992  52.6684990  46.3559997  17.5209992  50.9694990  46.7899997
  15.4629992  51.7454990  46.7949997  15.0899992  50.7764990  47.1899997
  14.6919992  52.1414990  46.0999997  15.4659992  52.6734990  48.0559997
  14.4069992  52.9014990  48.3019997  15.7859992  53.7094990  47.8139997
  16.1339992  52.1224990  49.2919997  16.0279992  51.0294990  49.3509997
  16.9209992  52.8044990  50.1449997  17.1359992  52.2214990  51.0529997
  17.3669992  54.3224990  50.1109997  17.6529992  54.7874990  49.1429997
  18.2349992  54.4254990  50.7959997  16.2349992  55.1944990  50.7369997
  15.6119992  55.7134990  49.9769997  16.8359992  55.9744990  51.2519997
  15.3979992  54.6514990  51.9269997  14.7989992  53.8134990  51.5099997
  14.7539992  55.4964990  52.2509997  16.3409992  54.2854990  53.0819997
  16.7719992  55.2304990  53.4749997  17.2249992  53.7734990  52.6449997
  15.7629992  53.4614990  54.2649997  15.7189992  52.4684990  53.7679997
  14.7949992  53.8834990  54.6089997  16.8039992  53.2504990  55.4599997
  17.1529992  54.2284990  55.8559997  17.6639992  52.6954990  55.0289997
  16.3359992  52.2904990  56.5429997  15.3819992  52.7094990  56.9279997
  16.9719992  52.4024990  57.4479997  16.1759992  50.8754990  56.1029997
  15.6279992  50.3534990  56.9169997  17.2359992  50.5484990  56.1549997
  15.7419992  50.8034990  55.0829997  16.3079992  67.0194990  54.4789997
  15.9639992  67.9424990  54.9929997  16.3929992  66.1824990  55.2049997
  15.4549992  66.5604990  53.9359997  17.5099992  67.0924990  53.5919997
  18.4209992  67.4134990  54.1409997  17.5699992  66.1634990  52.9839997
  17.2869992  68.1904990  52.5529997  16.9989992  69.1984990  52.9189997
  18.2479992  68.3914990  52.0329997  16.1819992  67.8724990  51.4879997
  16.4099992  66.9034990  50.9939997  15.1699992  67.8964990  51.9459997
  16.1019992  68.9774990  50.4129997  15.8399992  69.9534990  50.8749997
  17.0649992  69.2654990  49.9399997  15.1539992  68.5724990  49.2309997
  14.2419992  68.0454990  49.5869997  14.8599992  69.5554990  48.8049997
  15.9169992  67.6744990  48.2889997  16.8099992  68.1614990  47.8419997
  16.3599992  66.8344990  48.8649997  15.0249992  66.9844990  47.2189997
  14.1129992  66.6964990  47.7839997  14.7929992  67.7754990  46.4739997
  15.7139992  65.7024990  46.6329997  16.7409992  66.1174990  46.5589997
  15.7169992  65.0164990  47.5059997  14.9859992  65.0784990  45.4209997
  15.5049992  64.1444990  45.1159997  13.9529992  64.8564990  45.7649997
  14.9239992  66.0524990  44.2379997  14.0169992  65.6684990  43.7219997
  14.5839992  67.0834990  44.4739997  16.0749992  66.0144990  43.2279997
  16.4599992  64.9874990  43.0529997  15.7159992  66.5384990  42.3159997
  17.3139992  66.8334990  43.6929997  16.9519992  67.4514990  44.5419997
  18.1319992  66.1944990  44.0889997  18.0509992  67.7564990  42.6779997
  17.3789992  68.6304990  42.5469997  19.0129992  68.1534990  43.0679997
  18.2249992  67.1954990  41.2809997  17.2699992  66.9714990  40.7599997
  18.7879992  67.8374990  40.5719997  19.1159992  65.9104990  41.2829997
  20.3149992  65.8944990  41.5799997  18.4109992  64.8754990  40.9179997
  19.0609992  63.6184990  40.6129997  19.9149992  63.8454990  39.9389997
  19.4459992  63.1524990  41.5449997  18.0179992  62.6524990  40.0429997
  18.5069992  61.6594990  39.9459997  17.4049992  63.0264990  38.6209997
  18.1969992  63.3114990  37.8959997  16.9089992  62.0994990  38.2609997
  16.3659992  63.9774990  38.6799997  15.7089992  64.5004990  37.3309997
  16.8819992  65.4684990  36.7749997  17.4239992  66.3424990  37.7539997
  16.6609992  66.6464990  38.5019997  18.2379992  65.7954990  38.2759997
  18.1199992  67.5444990  37.1079997  18.6779992  68.0804990  37.8619997
  18.7519992  67.1894990  36.3079997  17.2199992  68.5274990  36.4209997
  18.1459992  69.4004990  35.6029997  18.6439992  68.7364990  34.9119997
  17.5059992  70.0924990  35.0759997  18.9229992  69.8864990  36.1749997
  16.3849992  67.8464990  35.4339997  15.5969992  67.2974990  35.9259997
  15.8779992  68.6044990  34.8559997  16.9479992  67.1844990  34.7929997
  16.4699992  69.3714990  37.4249997  16.9589992  69.7504990  38.3109997
  15.7279992  68.7824990  37.9439997  15.9259992  70.1874990  36.9719997
  15.5999992  63.3094990  36.4189997  14.4689992  65.2704990  37.5219997
  17.0189992  62.5284990  40.9969997  16.4249992  61.3314990  41.1049997
  16.6209992  60.3834990  40.4299997  15.3879992  61.4694990  42.2139997
  14.4319992  60.9894990  41.9139997  15.1749992  62.4854990  42.6099997
  15.8109992  60.5114990  43.3689997  16.0949992  59.4614990  43.1439997
  14.8729992  60.4204990  43.9579997  16.7589992  61.2544990  44.3789997
  16.6389992  60.8324990  45.3999997  16.3759992  62.2654990  44.6339997
  18.2099992  61.0194990  43.9309997  18.3659992  61.3054990  42.8689997
  18.3899992  59.9264990  44.0129997  19.1779992  61.8374990  44.7609997
  20.1919992  61.7354990  44.3169997  19.1139992  61.4784990  45.8099997
  18.8939992  63.3854990  44.7869997  17.8359992  63.5334990  45.0929997
  19.0709992  63.8284990  43.7829997  19.6279992  64.1144990  45.8689997
  19.3199992  65.1624990  45.6679997  20.7249992  64.0084990  45.7329997
  19.1409992  63.6454990  47.2219997  18.0559992  63.7624990  47.3609997
  19.8449992  63.1824990  48.3119997  19.3409992  62.7844990  49.2039997
  21.3619992  62.9734990  48.4679997  21.8609992  63.4294990  47.5869997
  21.5949992  61.8864990  48.4399997  22.0419992  63.7824990  49.5879997
  22.1279992  64.8594990  49.3299997  23.1089992  63.4984990  49.7099997
  21.4629992  63.7624990  50.9869997  20.4019992  64.0904990  50.9539997
  22.0189992  64.5784990  51.4969997  21.6739992  62.4254990  51.7219997
  22.7439992  62.2024990  51.9259997  21.2969992  61.6254990  51.0509997
  20.9259992  62.4014990  53.0439997  21.1439992  63.3314990  53.6119997
  21.2749992  61.5804990  53.7069997  19.3759992  62.4634990  53.1519997
  18.9639992  61.4984990  52.7869997  19.0319992  63.2524990  52.4489997
  18.7669992  62.8044990  54.5409997  19.1499992  63.8224990  54.7689997
  19.0859992  62.0684990  55.3099997  17.2509992  62.9384990  54.6209997
  16.9919992  63.5054990  55.5399997  16.6629992  61.9954990  54.6029997
  16.8259992  63.5294990  53.7809997 128.7649992  76.8814990  52.2959997
 127.6749992  76.6724990  52.3459997 128.9979992  77.7604990  52.9339997
 129.3609992  76.0584990  52.7439997 129.2499992  77.2094990  50.9019997
 130.3529992  77.1004990  50.8229997 128.8219992  76.4074990  50.2619997
 128.8459992  78.6514990  50.4829997 127.7479992  78.6614990  50.6479997
 129.2689992  79.4674990  51.1079997 129.0779992  78.9354990  48.9759997
 128.9809992  77.9924990  48.3969997 128.2249992  79.6074990  48.7419997
 130.4199992  79.6004990  48.6689997 130.3779992  79.8914990  47.5979997
 130.4889992  80.4664990  49.3619997 131.7179992  78.6724990  48.8329997
 131.8549992  78.3634990  49.8909997 131.4699992  77.7174990  48.3219997
 133.0269992  79.1134990  48.2399997 133.2879992  80.1084990  48.6589997
 133.8579992  78.4054990  48.4459997 132.8829992  79.4044990  46.6769997
 132.5259992  78.4884990  46.1579997 132.1359992  80.2104990  46.5159997
 134.2899992  79.6734990  46.0519997 134.8649992  80.4134990  46.6479997
 134.8549992  78.7204990  46.1329997 134.3899992  79.9974990  44.6169997
 133.8179992  80.9234990  44.3959997 135.4729992  80.1724990  44.4399997
 133.9689992  78.9064990  43.6769997 134.4189992  77.9734990  44.0779997
 132.8629992  78.8034990  43.6929997 134.3949992  79.0304990  42.2499997
 133.9989992  80.0234990  41.9459997 135.4969992  79.1524990  42.1899997
 134.0689992  77.9554990  41.2509997 134.2209992  78.2594990  40.1939997
 134.9579992  77.3064990  41.4049997 132.7139992  77.1994990  41.5259997
 132.5269992  76.8604990  42.5669997 131.9359992  77.9224990  41.1999997
 132.6059992  75.7964990  40.9339997 133.0549992  75.6554990  39.9269997
 132.9849992  74.9774990  41.5809997 131.0619992  75.5844990  40.8269997
 130.1969992  75.7234990  41.6509997 130.8389992  75.1414990  39.5919997
 129.5639992  75.0184990  39.0729997 129.5899992  74.1394990  38.3949997
 128.8809992  74.9074990  39.9419997 129.2569992  76.3654990  38.2939997
 128.2049992  76.2814990  37.9479997 130.1679992  76.5444990  36.9979997
 130.3749992  75.5904990  36.4679997 129.7669992  77.3884990  36.3969997
 131.4469992  76.8764990  37.5629997 132.5539992  77.6284990  36.6999997
 132.2669992  79.1264990  37.1279997 131.2619992  79.8284990  36.3579997
 131.7129992  80.0354990  35.3639997 130.2989992  79.2744990  36.3339997
 131.0609992  81.2204990  36.9189997 130.4969992  81.8034990  36.2059997
 130.4149992  81.2444990  37.7839997 132.2839992  82.0404990  37.2749997
 133.2709992  81.8244990  36.1759997 134.1499992  82.4434990  36.2729997
 133.6049992  80.7974990  36.1879997 132.9179992  82.0674990  35.1849997
 131.7999992  83.4464990  37.3079997 130.8449992  83.4924990  37.8099997
 132.4879992  84.0454990  37.8859997 131.6769992  83.8574990  36.3169997
 132.7939992  81.6594990  38.6349997 133.1439992  80.6394990  38.5829997
 132.0319992  81.7264990  39.3979997 133.7339992  82.1594990  38.8129997
 133.9259992  77.2944990  37.1429997 132.3009992  77.4614990  35.2669997
 129.4269992  77.3994990  39.2669997 128.9419992  78.5504990  38.9439997
 128.1719992  78.7394990  38.0719997 129.4839992  79.6814990  39.8409997
 129.1999992  80.6834990  39.4539997 130.5789992  79.7504990  39.6619997
 128.9939992  79.4764990  41.2529997 129.4329992  78.5714990  41.7239997
 127.8939992  79.3404990  41.3219997 129.3469992  80.7454990  42.0219997
 128.5319992  81.4694990  41.8079997 130.2809992  81.2064990  41.6339997
 129.5369992  80.5224990  43.5089997 130.3069992  79.7454990  43.7019997
 128.5799992  80.0594990  43.8299997 129.8099992  81.7184990  44.4229997
 129.7579992  81.3684990  45.4769997 129.0049992  82.4814990  44.3489997
 131.1139992  82.5214990  44.1009997 130.7669992  83.0734990  43.2009997
 131.8659992  81.7694990  43.7809997 131.6819992  83.3504990  45.2179997
 132.5259992  83.9204990  44.7739997 132.0369992  82.6184990  45.9739997
 130.6839992  84.2744990  45.8549997 130.2249992  85.0364990  45.2079997
 130.3169992  84.2544990  47.1659997 129.5099992  84.9184990  47.5099997
 130.7689992  83.3704990  48.2579997 130.8949992  82.3214990  47.9129997
 130.1559992  83.3994990  49.1839997 132.1759992  84.0044990  48.6789997
 131.9269992  84.9484990  49.2079997 132.8779992  84.2074990  47.8419997
 133.0859992  83.1714990  49.6789997 133.8909992  83.8364990  50.0569997
 133.4419992  82.3274990  49.0489997 132.4049992  82.6324990  50.9139997
 131.4149992  82.2964990  50.5379997 132.3249992  83.3784990  51.7329997
 133.0279992  81.3604990  51.4349997 134.1079992  81.4784990  51.6669997
 133.0119992  80.5364990  50.6899997 132.3419992  80.7984990  52.6879997
 131.3049992  80.9084990  52.3039997 132.3619992  81.4144990  53.6119997
 132.6919992  79.2904990  53.0449997 132.1959992  78.6434990  52.2909997
 132.4059992  79.0084990  54.0809997 134.1869992  78.9434990  53.0759997
 134.8459992  79.6164990  53.6649997 134.5849992  79.0114990  52.0409997
 134.3839992  77.9054990  53.4229997 126.4419992  44.0934990  55.0969997
 125.8459992  43.4274990  55.7569997 126.7659992  45.0894990  55.4659997
 127.2859992  43.4274990  54.8179997 125.5629992  44.3514990  53.8479997
 124.7889992  45.0884990  54.1529997 126.1939992  44.8744990  53.0989997
 125.0849992  43.1324990  53.0929997 125.8979992  42.5564990  52.6019997
 124.5389992  42.5134990  53.8359997 124.0499992  43.4444990  52.0439997
 123.5669992  42.5654990  51.5669997 123.3249992  44.0174990  52.6599997
 124.4599992  44.3274990  50.8539997 123.6019992  44.4954990  50.1679997
 124.8069992  45.3324990  51.1779997 125.6459992  43.6964990  50.1519997
 126.5459992  43.8104990  50.7939997 125.2139992  42.6814990  50.0169997
 125.9029992  44.3374990  48.7759997 125.0219992  44.0884990  48.1459997
 126.1399992  45.4204990  48.8599997 127.1579992  43.6354990  48.0119997
 128.0519992  43.8164990  48.6479997 126.9969992  42.5384990  47.9349997
 127.4329992  44.1934990  46.7079997 126.6239992  44.0784990  45.9559997
 127.3969992  45.3014990  46.7889997 128.8429992  43.8634990  46.1309997
 129.6739992  44.3204990  46.7089997 128.9189992  42.7554990  46.1639997
 129.0009992  44.2204990  44.5629997 129.0819992  45.3024990  44.3269997
 129.9519992  43.7044990  44.3109997 127.7919992  43.6744990  43.6559997
 127.4939992  42.6754990  44.0399997 126.8579992  44.2744990  43.6219997
 128.3279992  43.4314990  42.2459997 129.3479992  42.9994990  42.3379997
 127.7379992  42.7424990  41.6049997 128.5729992  44.7934990  41.4599997
 127.8509992  45.5914990  41.7349997 129.5569992  45.2284990  41.7389997
 128.4919992  44.4684990  39.9759997 127.6599992  43.9174990  39.4889997
 128.4919992  45.3104990  39.2509997 129.8279992  43.6464990  39.7819997
 130.8649992  44.1934990  39.5129997 129.5999992  42.3144990  39.8159997
 130.7489992  41.4814990  39.4179997 131.6259992  42.0784990  39.0879997
 131.1279992  40.9234990  40.3009997 130.3819992  40.4584990  38.3199997
 131.2069992  39.7364990  38.1349997 130.0909992  41.2244990  36.9489997
 130.6829992  42.1634990  36.8999997 130.3729992  40.4924990  36.1619997
 128.7119992  41.4714990  36.8599997 128.2809992  42.6984990  35.9009997
 126.6789992  42.7064990  36.0669997 125.9079992  41.6464990  35.7089997
 124.9079992  42.0344990  35.4179997 126.3329992  41.1614990  34.8039997
 125.5289992  40.5704990  36.7539997 124.6509992  40.0334990  36.4269997
 126.3589992  39.8794990  36.7459997 125.1259992  41.0214990  38.2439997
 126.2709992  41.5504990  39.0359997 126.6009992  42.4784990  38.5919997
 126.1239992  41.5994990  40.1039997 127.0539992  40.8354990  38.8329997
 124.0369992  42.0504990  38.2509997 123.7379992  42.4414990  39.2119997
 124.2179992  42.9544990  37.6889997 123.1079992  41.7084990  37.8189997
 124.4949992  39.7424990  38.8149997 124.2639992  39.8634990  39.8629997
 125.0489992  38.8244990  38.6889997 123.5409992  39.6864990  38.3129997
 128.8709992  43.9464990  36.3379997 128.6639992  42.2974990  34.4969997
 129.2949992  39.6914990  38.8259997 129.1459992  38.4754990  38.3799997
 129.8879992  37.9234990  37.5469997 127.8709992  37.8474990  38.9849997
 127.4059992  37.2344990  38.1829997 127.1139992  38.6304990  39.2039997
 128.0689992  37.1334990  40.3319997 129.0979992  36.7244990  40.4219997
 127.4259992  36.2504990  40.5369997 127.7649992  38.0984990  41.5179997
 126.7119992  38.4524990  41.5639997 128.2899992  39.0464990  41.2759997
 128.0629992  37.5424990  42.9139997 127.7349992  36.4874990  43.0309997
 127.3909992  38.1464990  43.5609997 129.4579992  37.8154990  43.4979997
 130.2209992  37.3134990  42.8649997 129.5689992  37.3614990  44.5059997
 129.8209992  39.2334990  43.6569997 129.2109992  39.6614990  44.4809997
 129.6489992  39.8574990  42.7539997 131.2939992  39.4844990  44.0389997
 131.8339992  39.7654990  43.1099997 131.7599992  38.5354990  44.3809997
 131.5889992  40.6754990  44.9619997 132.0349992  41.5884990  44.5399997
 131.3329992  40.6424990  46.2689997 131.4229992  41.5664990  46.8589997
 130.7079992  39.5214990  47.0049997 130.7689992  38.5694990  46.4359997
 129.6219992  39.7214990  47.1269997 131.1589992  39.0194990  48.4149997
 132.2609992  38.8964990  48.4829997 130.6559992  38.0354990  48.5279997
 130.7459992  40.0434990  49.4549997 129.6349992  40.0454990  49.4509997
 131.1309992  41.0434990  49.1629997 131.0479992  39.6044990  50.8819997
 132.1259992  39.5594990  51.1449997 130.7009992  38.5544990  50.9809997
 130.4479992  40.5684990  51.8749997 130.0459992  41.4784990  51.3799997
 131.1779992  40.8724990  52.6549997 129.2299992  39.7464990  52.4339997
 129.6529992  38.9084990  53.0279997 128.6399992  39.2444990  51.6379997
 128.1949992  40.6764990  53.0649997 127.5399992  41.1224990  52.2869997
 128.6879992  41.4524990  53.6889997 127.0449992  40.1344990  54.0209997
 126.4379992  39.4234990  53.4189997 126.4859992  40.9814990  54.4719997
 127.5029992  39.5234990  54.8279997  19.9619992  74.5534990  55.4819997
  19.8179992  73.7134990  56.1959997  19.5339992  75.4534990  55.9729997
  21.0579992  74.7364990  55.4909997  19.4029992  74.3724990  54.0369997
  19.6839992  75.2294990  53.3889997  19.8479992  73.4224990  53.6699997
  17.8809992  74.3014990  54.0139997  17.6419992  73.3504990  54.5369997
  17.3759992  75.1644990  54.4979997  17.3559992  74.1124990  52.5709997
  18.1279992  73.5304990  52.0229997  16.4779992  73.4324990  52.6099997
  17.0799992  75.4524990  51.8219997  16.2369992  75.9144990  52.3799997
  18.0699992  75.9574990  51.8189997  16.6769992  75.2934990  50.4029997
  17.3219992  74.6194990  49.7979997  15.6189992  74.9604990  50.4619997
  16.6319992  76.5924990  49.5709997  15.8249992  76.4794990  48.8159997
  16.3719992  77.3914990  50.2979997  18.0169992  76.9484990  49.0609997
  18.6999992  76.6934990  49.8999997  18.2109992  76.2444990  48.2229997
  18.1969992  78.3894990  48.6099997  17.5739992  79.0394990  49.2599997
  19.2579992  78.7034990  48.7159997  17.5849992  78.4774990  47.1789997
  18.1309992  77.7484990  46.5419997  16.5159992  78.1774990  47.2089997
  17.6619992  79.8454990  46.5489997  17.1819992  80.5934990  47.2149997
  18.7429992  80.1004990  46.5239997  17.0089992  80.0264990  45.1449997
  17.4209992  81.0024990  44.8089997  17.4689992  79.3164990  44.4249997
  15.4899992  79.9484990  45.1689997  15.0969992  79.1164990  45.7919997
  15.0349992  80.9144990  45.4739997  14.9449992  79.6204990  43.7029997
  14.1739992  80.3954990  43.5029997  15.6809992  79.7684990  42.8839997
  14.3219992  78.2494990  43.4869997  13.4429992  78.0884990  44.1479997
  13.8859992  78.2074990  42.4659997  15.3689992  77.1354990  43.6679997
  15.2739992  76.0724990  44.2449997  16.3699992  77.3724990  42.8839997
  17.6539992  76.8244990  43.0089997  18.3869992  77.6454990  42.8649997
  17.9429992  76.3944990  43.9919997  17.9789992  75.8034990  41.9029997
  19.0519992  75.5154990  41.9379997  17.6259992  76.3144990  40.4589997
  18.0269992  77.3354990  40.2779997  18.0279992  75.7234990  39.6089997
  16.2029992  76.2854990  40.2509997  15.5729992  76.6104990  38.8069997
  16.7179992  76.0184990  37.8329997  16.5329992  74.6874990  37.3779997
  17.3709992  74.0784990  37.7789997  15.6189992  74.1814990  37.7549997
  16.5499992  74.6064990  35.8249997  17.1479992  73.7594990  35.5239997
  15.5429992  74.3834990  35.5029997  17.0349992  75.8174990  35.0279997
  18.3399992  76.3054990  35.5639997  19.0559992  75.4974990  35.5809997
  18.6929992  77.0984990  34.9219997  18.1809992  76.6724990  36.5669997
  17.1529992  75.3854990  33.5279997  16.2019992  75.1294990  33.0859997
  17.8029992  76.1214990  33.0769997  17.6879992  74.4474990  33.5259997
  16.0209992  76.9104990  35.1709997  15.9489992  77.3344990  36.1619997
  15.0699992  76.5194990  34.8399997  16.3319992  77.7364990  34.5489997
  14.3509992  75.8674990  38.4749997  15.5959992  78.0534990  38.6109997
  17.2849992  74.5824990  42.2269997  17.4069992  73.5594990  41.4489997
  18.2499992  73.3384990  40.6269997  16.1859992  72.6294990  41.7909997
  16.3429992  72.1584990  42.7849997  16.3019992  71.8174990  41.0409997
  14.9529992  73.3844990  41.4459997  14.8629992  73.9584990  40.4989997
  14.8219992  74.0424990  42.3319997  13.7269992  72.3624990  41.3439997
  14.2039992  71.6214990  40.6679997  12.9209992  72.9994990  40.9209997
  13.0769992  71.8374990  42.6879997  13.8279992  71.0564990  42.9349997
  12.1129992  71.3334990  42.4609997  12.9079992  72.8754990  43.8709997
  12.5399992  73.8064990  43.3909997  13.9249992  73.0864990  44.2649997
  11.8489992  72.3074990  44.8849997  12.1899992  71.2784990  45.1279997
  10.8399992  72.2194990  44.4279997  11.6159992  73.1384990  46.1569997
  10.7579992  72.6134990  46.6289997  11.4209992  74.1874990  45.8479997
  12.7519992  73.1104990  47.1489997  13.2369992  72.1784990  47.4739997
  13.1529992  74.2124990  47.8429997  13.9189992  74.2034990  48.6319997
  12.5379992  75.6264990  47.7069997  11.7039992  75.7894990  46.9919997
  13.2809992  76.4364990  47.5449997  11.8399992  76.1174990  48.9899997
  10.9429992  75.4874990  49.1729997  11.6199992  77.1794990  48.7519997
  12.5429992  76.0894990  50.4189997  13.3789992  76.8204990  50.4119997
  13.0179992  75.1244990  50.6979997  11.5809992  76.5204990  51.5979997
  10.7669992  75.7884990  51.7859997  11.1179992  77.4924990  51.3229997
  12.3059992  76.8474990  52.8889997  11.5879992  76.9324990  53.7329997
  12.8569992  77.8114990  52.9119997  13.3689992  75.7324990  53.2259997
  14.2249992  76.0004990  52.5699997  13.0849992  74.6654990  53.1039997
  13.7799992  75.8674990  54.7469997  14.2349992  74.9124990  55.0829997
  12.8589992  76.0264990  55.3479997  14.7719992  77.0154990  54.9529997
  14.3819992  78.0494990  55.0649997  15.5349992  77.0584990  54.1459997
  15.3189992  76.8454990  55.9039997 135.1559992  53.2454990  59.2359997
 134.8229992  54.1404990  59.8039997 135.7449992  53.6954990  58.4089997
 135.7959992  52.5684990  59.8429997 133.9159992  52.4994990  58.7619997
 134.2879992  51.6604990  58.1349997 133.5399992  51.9764990  59.6669997
 132.7989992  53.3284990  57.9769997 131.9349992  52.6524990  57.8059997
 132.4239992  54.0934990  58.6899997 133.2819992  54.1084990  56.7469997
 132.5809992  54.9454990  56.5389997 134.1769992  54.6794990  57.0729997
 133.4539992  53.2034990  55.5219997 134.1899992  52.4474990  55.8709997
 132.4869992  52.6824990  55.3559997 133.9459992  54.0404990  54.2629997
 133.6199992  53.5994990  53.2969997 133.4349992  55.0184990  54.3949997
 135.4389992  54.3884990  54.2009997 135.5459992  55.4224990  54.5939997
 136.0239992  53.6824990  54.8289997 135.8599992  54.3684990  52.7329997
 136.9269992  54.0594990  52.7339997 135.2409992  53.5864990  52.2439997
 135.4009992  55.5004990  51.8339997 134.2959992  55.6144990  51.8589997
 135.8069992  56.4764990  52.1779997 135.8599992  55.3564990  50.3439997
 135.6019992  56.3884990  50.0239997 136.9489992  55.2044990  50.1849997
 135.0479992  54.3144990  49.5159997 134.1239992  53.8954990  49.9679997
 134.7019992  54.9044990  48.6399997 135.7999992  52.9934990  49.1179997
 136.7599992  53.3764990  48.7109997 136.0619992  52.4964990  50.0759997
 135.0949992  52.2014990  47.9589997 134.0069992  52.0464990  48.1249997
 135.3199992  52.7934990  47.0459997 135.8169992  50.8134990  47.7659997
 136.8939992  50.9934990  47.9719997 135.4829992  50.3134990  48.7009997
 135.4299992  49.9514990  46.5309997 135.7869992  48.9204990  46.7379997
 134.3249992  49.8844990  46.4369997 136.1769992  50.5664990  45.3819997
 137.2709992  51.0604990  45.4359997 135.4449992  50.3974990  44.2879997
 136.1319992  50.6854990  43.0619997 136.7129992  51.6294990  43.1379997
 136.8319992  49.8594990  42.8129997 135.1599992  50.9814990  41.8649997
 135.0249992  49.9494990  41.4759997 135.7919992  51.9224990  40.8259997
 135.6169992  52.9814990  41.1109997 136.7749992  51.5194990  40.4989997
 134.9989992  51.6144990  39.6139997 135.4799992  52.2254990  38.1749997
 134.3329992  52.1714990  37.1209997 132.9759992  51.7464990  37.5509997
 132.8899992  50.6914990  37.8859997 132.7039992  52.2924990  38.4799997
 132.0849992  51.9474990  36.3389997 132.2259992  51.1734990  35.5979997
 131.0639992  51.8054990  36.6619997 132.1799992  53.2474990  35.6259997
 133.4239992  53.4974990  34.7939997 134.2789992  53.4494990  35.4529997
 133.3939992  52.7854990  33.9819997 133.4809992  54.5104990  34.4239997
 131.0379992  53.2244990  34.6109997 131.4279992  52.4154990  34.0109997
 130.1619992  52.8404990  35.1119997 131.0759992  54.0914990  33.9679997
 132.0849992  54.4104990  36.5709997 131.2689992  54.3194990  37.2729997
 131.9129992  55.2734990  35.9449997 133.0069992  54.4044990  37.1329997
 135.9099992  53.6414990  38.4639997 136.5059992  51.3314990  37.6059997
 133.9749992  51.6264990  42.3199997 132.9869992  50.8194990  42.7829997
 132.9109992  49.5914990  42.6989997 131.9309992  51.7064990  43.3379997
 130.9519992  51.3144990  42.9879997 132.1319992  52.7234990  42.9389997
 131.9099992  51.6174990  44.8999997 131.2249992  52.4604990  45.1359997
 132.8659992  51.9924990  45.3219997 131.5129992  50.3084990  45.6089997
 132.2349992  49.4744990  45.4779997 130.5239992  49.9694990  45.2329997
 131.3529992  50.6844990  47.1529997 132.2339992  51.2434990  47.5339997
 131.3949992  49.6904990  47.6469997 130.0489992  51.5084990  47.4909997
 129.1149992  51.0204990  47.1409997 129.9489992  52.4494990  46.9099997
 129.9509992  51.7904990  48.9539997 130.2159992  50.9334990  49.6079997
 128.8719992  51.8734990  49.2059997 130.6529992  53.1334990  49.3969997
 130.1719992  53.9984990  48.8929997 131.6699992  53.1374990  48.9509997
 130.6429992  53.4064990  50.9079997 130.0909992  54.2564990  51.3359997
 131.3699992  52.6304990  51.7139997 131.4519992  52.7664990  52.8019997
 132.2709992  51.5024990  51.3999997 133.2989992  51.6884990  51.7789997
 132.4259992  51.3154990  50.3159997 131.8279992  50.2694990  52.1119997
 130.7689992  50.0554990  51.8499997 131.9299992  50.3074990  53.2179997
 132.5599992  48.9914990  51.6349997 132.3629992  48.7044990  50.5799997
 132.0779992  48.1764990  52.2149997 134.1019992  48.9014990  51.8859997
 134.6599992  49.7134990  51.3739997 134.4929992  48.1464990  51.1699997
 134.5639992  48.5814990  53.2929997 135.3389992  47.7904990  53.2009997
 133.7599992  48.2484990  53.9839997 135.2509992  49.6564990  53.9769997
 134.5379992  50.5064990  53.9309997 136.1889992  49.9634990  53.4659997
 135.7579992  49.1174990  55.3209997 136.4049992  48.2134990  55.3199997
 134.7819992  48.8814990  55.7959997 136.4239992  50.1584990  56.1619997
 135.8669992  51.1174990  56.2289997 137.4219992  50.4604990  55.7779997
 136.5839992  49.7054990  57.1639997  17.7139992  99.7314990  52.8879997
  18.4719992 100.5124990  52.6649997  17.3889992  99.6664990  53.9489997
  16.8419992 100.0944990  52.3029997  18.0909992  98.3314990  52.4069997
  17.2019992  97.6734990  52.5109997  18.3639992  98.4874990  51.3409997
  19.3339992  97.6794990  53.0629997  20.0649992  98.5094990  52.9469997
  19.2089992  97.5214990  54.1559997  19.7149992  96.3814990  52.3719997
  20.3189992  95.8134990  53.1109997  18.8089992  95.8624990  51.9909997
  20.7139992  96.5884990  51.2429997  20.2999992  97.2834990  50.4819997
  21.6339992  97.0714990  51.6349997  21.0139992  95.2644990  50.4269997
  22.1039992  95.2474990  50.2119997  20.7149992  94.3214990  50.9349997
  20.3069992  95.2574990  49.0049997  19.2409992  94.9584990  49.0989997
  20.4219992  96.2454990  48.5099997  20.8969992  94.1304990  48.1159997
  21.9559992  94.3594990  47.8669997  20.8579992  93.1404990  48.6179997
  20.1899992  94.1524990  46.7999997  19.1549992  93.7474990  46.8219997
  20.2519992  95.2164990  46.4879997  21.0369992  93.3914990  45.6759997
  22.1259992  93.6074990  45.6999997  20.9319992  92.2894990  45.7759997
  20.6129992  93.6444990  44.2459997  20.4599992  94.7204990  44.0169997
  21.3389992  93.1124990  43.5949997  19.2479992  93.2394990  43.8969997
  19.1159992  92.1814990  44.2089997  18.4679992  93.8634990  44.3839997
  19.0379992  93.3744990  42.3929997  19.9829992  92.9294990  42.0129997
  18.1119992  92.8034990  42.1709997  18.7329992  94.8114990  41.8279997
  17.6639992  94.9624990  42.0909997  19.3119992  95.6834990  42.2009997
  18.7629992  94.9174990  40.2569997  19.7569992  94.7514990  39.7889997
  18.0979992  94.1804990  39.7579997  18.2559992  96.2744990  39.6629997
  17.6949992  97.0914990  40.3349997  18.5439992  96.3164990  38.3549997
  17.9519992  97.3994990  37.5949997  17.3819992  96.9404990  36.7589997
  17.2309992  98.0204990  38.1679997  19.1419992  98.2724990  36.9859997
  18.7289992  99.1384990  36.4259997  20.0969992  97.4404990  36.0799997
  20.4139992  96.4944990  36.5699997  19.4429992  97.2074990  35.2119997
  21.2089992  98.1804990  35.6969997  22.2799992  97.3754990  34.7539997
  23.2339992  96.6184990  35.7449997  24.0209992  97.2764990  36.7899997
  24.9699992  96.7474990  37.0269997  24.3899992  98.2814990  36.4929997
  23.1659992  97.4724990  38.1129997  23.5999992  98.3304990  38.6039997
  22.1749992  97.8744990  37.9649997  23.0759992  96.3434990  39.1399997
  22.4339992  95.1034990  38.3949997  21.4029992  95.3274990  38.1639997
  23.0349992  94.7734990  37.5599997  22.3459992  94.2764990  39.0839997
  24.4639992  95.9684990  39.6439997  24.9889992  95.5124990  38.8179997
  24.9889992  96.8074990  40.0759997  24.3799992  95.1704990  40.3669997
  22.1699992  96.7474990  40.2619997  22.1139992  95.9104990  40.9419997
  21.1899992  97.0584990  39.9309997  22.5259992  97.5214990  40.9259997
  21.5569992  96.3204990  34.0359997  23.0039992  98.3354990  33.8949997
  19.8819992  98.8374990  38.0259997  19.2269992  99.6954990  38.8549997
  18.1109992 100.1014990  38.6719997  20.1729992 100.0504990  39.9729997
  20.8819992 100.8204990  39.5999997  20.7699992  99.1554990  40.2469997
  19.4509992 100.6114990  41.2019997  18.5429992 101.1614990  40.8749997
  20.1269992 101.2564990  41.8019997  19.1349992  99.5084990  42.1839997
  20.0969992  98.9584990  42.2619997  18.3619992  98.9454990  41.6189997
  18.6929992 100.1184990  43.4909997  17.8839992 100.8794990  43.4979997
  19.5979992 100.5674990  43.9529997  18.1809992  99.0054990  44.4419997
  17.2649992  98.6244990  43.9419997  17.8009992  99.3104990  45.4409997
  19.1199992  97.8804990  44.7159997  19.2379992  97.2654990  43.7979997
  18.5919992  97.1914990  45.4089997  20.4629992  98.1934990  45.4209997
  21.0439992  98.8754990  44.7639997  21.1169992  97.2964990  45.3909997
  20.2859992  98.7874990  46.7869997  19.3089992  98.6344990  47.2689997
  21.3259992  99.3754990  47.4629997  21.2259992  99.7174990  48.5029997
  22.7609992  99.4474990  46.9379997  23.0149992 100.5254990  46.8609997
  22.8659992  98.9804990  45.9349997  23.7179992  98.7964990  47.9429997
  24.7849992  98.9504990  47.6749997  23.5269992  97.7064990  48.0459997
  23.5749992  99.5824990  49.3139997  22.6289992  99.2524990  49.7929997
  23.3849992 100.6344990  49.0109997  24.8899992  99.4464990  50.2279997
  25.7589992  99.9814990  49.7889997  25.2809992  98.4254990  50.4259997
  24.7999992  99.9364990  51.6709997  24.3079992 100.9324990  51.6949997
  25.7989992 100.2294990  52.0599997  24.1289992  98.9654990  52.5939997
  24.5729992  97.9484990  52.5379997  23.0489992  98.8594990  52.3549997
  24.3509992  99.3114990  54.0799997  25.4409992  99.2444990  54.2819997
  23.8559992  98.6144990  54.7899997  23.9909992 100.7044990  54.5499997
  24.1439992 100.9454990  55.6239997  22.9089992 100.8804990  54.3709997
  24.6479992 101.5054990  54.1479997 131.4709992  86.3714990  53.2259997
 130.5969992  87.0174990  53.4559997 132.0439992  85.9494990  54.0779997
 131.1139992  85.6514990  52.4579997 132.5039992  87.3484990  52.6239997
 132.8199992  88.0214990  53.4499997 133.4109992  86.7624990  52.3629997
 131.9549992  88.1514990  51.4289997 130.8469992  88.1294990  51.3499997
 132.2059992  89.2314990  51.3669997 132.5449992  87.5754990  50.0999997
 133.6469992  87.4324990  50.1159997 132.0879992  86.5624990  50.0729997
 132.3109992  88.4574990  48.8629997 131.2659992  88.6224990  48.5249997
 132.5619992  89.4744990  49.2329997 133.1759992  88.0324990  47.6849997
 134.2189992  87.8914990  48.0389997 132.7199992  87.0624990  47.3919997
 132.9819992  88.9304990  46.4729997 133.5189992  89.8884990  46.6419997
 133.6149992  88.5654990  45.6359997 131.4779992  89.0384990  46.0129997
 131.2379992  87.9624990  45.8719997 130.8689992  89.4404990  46.8509997
 131.1249992  89.9774990  44.8249997 130.0339992  89.8484990  44.6609997
 131.2029992  90.9764990  45.3039997 131.8779992  89.7094990  43.5159997
 131.7179992  90.5384990  42.7929997 132.9559992  89.7274990  43.7819997
 131.4809992  88.3434990  42.7209997 131.6249992  87.4544990  43.3709997
 130.4189992  88.5154990  42.4429997 132.4069992  87.9054990  41.5879997
 132.1439992  88.5434990  40.7169997 133.4059992  88.2694990  41.9129997
 132.5159992  86.3734990  41.3929997 133.3539992  86.3184990  40.6649997
 132.8859992  85.8914990  42.3229997 131.3449992  85.6764990  40.7279997
 130.8449992  86.3984990  40.0479997 131.5979992  84.7764990  40.1269997
 130.3489992  85.1114990  41.7589997 130.8769992  84.3124990  42.3219997
 130.0579992  85.9644990  42.4089997 129.0699992  84.5084990  41.1439997
 128.5259992  83.4604990  41.4559997 128.7749992  85.2574990  40.1019997
 127.7329992  84.8664990  39.2419997 128.1579992  84.0874990  38.5729997
 126.8879992  84.5124990  39.8709997 127.1649992  86.2514990  38.6089997
 126.1699992  86.1004990  38.1379997 128.0259992  86.9174990  37.5529997
 128.3549992  86.1454990  36.8239997 127.3669992  87.5464990  36.9169997
 129.1539992  87.5364990  38.0779997 129.2899992  89.1654990  37.9309997
 130.6499992  89.2154990  37.1229997 130.7149992  88.5444990  35.8659997
 130.6509992  87.4564990  36.0849997 129.9489992  88.9974990  35.2009997
 132.1209992  88.6304990  35.2749997 132.2739992  88.0624990  34.3699997
 132.3129992  89.6414990  34.9479997 133.2659992  88.1494990  36.2529997
 132.9779992  86.7564990  36.6439997 132.7899992  86.0934990  35.8119997
 133.8449992  86.3704990  37.1599997 132.1579992  86.6564990  37.3399997
 134.6299992  88.1504990  35.4999997 134.7009992  89.1954990  35.2369997
 135.4619992  87.7704990  36.0749997 134.4629992  87.5074990  34.6489997
 133.4469992  89.0524990  37.4609997 132.6799992  88.7564990  38.1629997
 133.4159992  90.0344990  37.0129997 134.4119992  88.7264990  37.8189997
 128.1999992  89.7434990  37.0809997 129.4689992  89.7404990  39.2599997
 126.9609992  87.1734990  39.6789997 125.9569992  87.0034990  40.5389997
 125.2099992  86.0454990  40.4929997 126.1309992  88.0694990  41.6479997
 125.1689992  88.6054990  41.7939997 126.8689992  88.8344990  41.3249997
 126.5879992  87.3424990  43.0009997 127.3799992  86.6194990  42.7119997
 125.7259992  86.8644990  43.5149997 127.3349992  88.3334990  43.8929997
 126.5869992  88.9694990  44.4119997 128.0479992  88.9694990  43.3249997
 128.1379992  87.6744990  45.0449997 128.5749992  88.4744990  45.6799997
 128.9809992  87.3004990  44.4249997 127.3669992  86.6334990  45.9349997
 128.0179992  86.2574990  46.7529997 127.1019992  85.8464990  45.1959997
 126.2539992  87.2564990  46.7909997 125.6899992  86.4194990  47.2539997
 125.5099992  87.8824990  46.2529997 126.7609992  88.2514990  47.9569997
 125.8519992  88.7654990  48.3339997 127.3179992  89.1124990  47.5289997
 127.5299992  87.4804990  49.1209997 128.6159992  87.3854990  48.9729997
 127.0289992  86.9174990  50.2009997 127.7609992  86.4384990  50.8679997
 125.5809992  86.7864990  50.5019997 125.0889992  87.3024990  49.6499997
 125.2979992  87.3374990  51.4239997 124.9269992  85.4174990  50.5099997
 125.0899992  84.9184990  49.5309997 123.8409992  85.4924990  50.7349997
 125.5109992  84.4114990  51.5119997 126.5939992  84.3934990  51.2609997
 125.0229992  83.5024990  51.0999997 125.2059992  84.6964990  52.9969997
 124.1089992  84.8174990  53.1289997 125.6869992  85.6044990  53.4189997
 125.6319992  83.4704990  53.7309997 126.1399992  82.7474990  53.0579997
 124.7729992  82.9274990  54.1799997 126.3589992  83.6824990  55.0839997
 125.7929992  84.4724990  55.6219997 127.3669992  84.0404990  54.7829997
 126.4079992  82.4484990  55.9689997 126.8729992  81.5714990  55.4709997
 125.4069992  82.0264990  56.2009997 127.1499992  82.7664990  57.2719997
 128.0859992  83.3374990  57.0919997 127.4669992  81.8384990  57.7939997
 126.4079992  83.2834990  57.9179997  20.5509992  41.9534990  53.1649997
  20.9199992  40.9064990  53.2099997  21.3359992  42.6894990  53.4409997
  20.2769992  42.2744990  52.1369997  19.3609992  42.2544990  54.0959997
  19.5789992  41.9324990  55.1369997  19.0919992  43.3244990  54.2259997
  17.9939992  41.7254990  53.7059997  18.3219992  40.9284990  53.0049997
  17.5169992  41.2444990  54.5859997  17.0309992  42.7834990  53.1209997
  16.0889992  42.2224990  52.9389997  16.8419992  43.5674990  53.8859997
  17.4659992  43.6004990  51.9279997  16.7379992  44.4314990  51.8099997
  18.4679992  44.0344990  52.1339997  17.4069992  42.6654990  50.6229997
  18.1559992  41.8484990  50.7039997  16.3879992  42.2534990  50.4639997
  17.7869992  43.4364990  49.3209997  18.6129992  44.1574990  49.5039997
  17.9449992  42.6674990  48.5349997  16.5329992  44.2684990  48.7119997
  16.2809992  45.2284990  49.2099997  16.9069992  44.5524990  47.7059997
  15.2499992  43.4204990  48.5489997  14.7859992  43.2084990  49.5359997
  14.4579992  43.9394990  47.9689997  15.3679992  42.0284990  47.8589997
  15.9879992  41.3234990  48.4529997  14.3529992  41.5814990  47.9279997
  15.9749992  41.9124990  46.4499997  17.0029992  42.3054990  46.6039997
  16.0419992  40.8344990  46.1899997  15.1139992  42.7344990  45.4479997
  14.1859992  42.1294990  45.3669997  14.9829992  43.7564990  45.8619997
  15.8359992  42.8494990  44.1169997  15.1579992  43.4594990  43.4829997
  16.7239992  43.5164990  44.1019997  15.9799992  41.4854990  43.4209997
  16.8839992  40.9514990  43.7839997  15.0859992  40.8544990  43.6079997
  16.0779992  41.5144990  41.8549997  15.9669992  40.4574990  41.5299997
  15.4729992  42.2824990  41.3279997  17.5129992  41.9634990  41.5699997
  18.3359992  42.3444990  42.4049997  17.6559992  41.9054990  40.2919997
  18.9199992  42.3414990  39.6789997  18.5939992  42.8134990  38.7279997
  19.3409992  43.1624990  40.2979997  20.0409992  41.2324990  39.6069997
  20.7769992  41.3624990  40.4299997  20.8609992  41.2604990  38.3549997
  20.7129992  42.2854990  37.9499997  21.9229992  41.1674990  38.6649997
  20.5999992  40.2344990  37.3049997  19.4319992  40.4574990  36.2039997
  18.1809992  41.0074990  37.0369997  17.0209992  41.3684990  36.2669997
  16.6479992  42.3324990  36.6739997  17.2329992  41.3104990  35.1779997
  15.8449992  40.2744990  36.3589997  15.0759992  40.5784990  35.6639997
  16.2559992  39.2974990  36.1519997  15.1869992  40.2514990  37.7229997
  14.6239992  41.5894990  38.0789997  13.6549992  41.7954990  37.6489997
  14.3909992  41.4314990  39.1209997  15.2349992  42.4764990  37.9919997
  14.1299992  39.1934990  37.7789997  13.4489992  39.3524990  36.9569997
  14.6789992  38.2664990  37.8519997  13.5469992  39.4304990  38.6569997
  16.1589992  39.8034990  38.8339997  16.1639992  38.7234990  38.8299997
  15.9019992  40.1294990  39.8299997  17.1809992  40.0884990  38.6319997
  19.8719992  41.4694990  35.2249997  18.9899992  39.1454990  35.6599997
  19.4369992  39.9314990  39.7829997  20.2259992  38.9904990  40.2799997
  21.4269992  39.1414990  40.6029997  19.4849992  37.7044990  40.2849997
  19.1889992  37.3684990  39.2679997  18.5699992  37.7064990  40.9149997
  20.4849992  36.5414990  40.6989997  21.5449992  36.8414990  40.5539997
  20.3349992  35.7434990  39.9409997  20.4399992  35.9424990  42.0389997
  21.2059992  35.1374990  42.0499997  19.5219992  35.3594990  42.2679997
  20.7729992  36.8664990  43.2599997  21.6969992  37.4664990  43.1149997
  21.1219992  36.2744990  44.1329997  19.6409992  37.7604990  43.7369997
  18.7309992  37.1534990  43.9269997  19.4699992  38.6384990  43.0779997
  19.9779992  38.2854990  45.1139997  20.8339992  38.9914990  45.1759997
  20.2819992  37.3764990  45.6759997  18.7529992  38.8344990  45.8479997
  18.2999992  39.4824990  45.0679997  19.1739992  39.5524990  46.5849997
  17.5999992  38.0004990  46.3769997  16.6879992  38.0494990  45.7629997
  17.6119992  37.2854990  47.4839997  16.8099992  36.6064990  47.8099997
  18.8209992  37.2224990  48.3719997  19.7159992  37.7114990  47.9299997
  19.2489992  36.2044990  48.4889997  18.4809992  37.8124990  49.7509997
  18.2689992  38.8914990  49.5939997  19.3529992  37.8614990  50.4369997
  17.3379992  37.1574990  50.5319997  17.5979992  36.0934990  50.7159997
  16.3799992  37.2474990  49.9769997  17.0879992  37.8464990  51.8419997
  16.1249992  37.5044990  52.2769997  17.0579992  38.9394990  51.6439997
  17.9849992  37.5554990  53.0019997  17.6069992  38.1064990  53.8889997
  19.0569992  37.7584990  52.7939997  17.9859992  36.0224990  53.2829997
  18.5569992  35.4554990  52.5159997  16.9339992  35.6744990  53.3579997
  18.6779992  35.7584990  54.6569997  18.3219992  34.7754990  55.0319997
  18.2739992  36.4864990  55.3929997  20.2299992  35.8154990  54.6349997
  20.6239992  35.9514990  55.6649997  20.4669992  36.6394990  53.9289997
  20.6959992  34.9774990  54.0729997  37.8009992  13.7854990  54.4819997
  36.6909992  13.7534990  54.5139997  38.1729992  13.4774990  55.4819997
  38.0049992  12.9834990  53.7389997  38.3759992  15.1604990  54.0859997
  38.3609992  15.8154990  54.9839997  39.4599992  15.0094990  53.8979997
  37.8679992  15.7794990  52.8269997  37.9639992  15.0904990  51.9609997
  36.7709992  15.9424990  52.9039997  38.5899992  17.1094990  52.5029997
  38.0829992  17.8894990  53.1099997  39.6739992  17.0714990  52.7459997
  38.5339992  17.6384990  51.0749997  39.0429992  17.0674990  50.2699997
  37.4679992  17.5914990  50.7629997  39.0529992  19.0664990  50.9799997
  38.6379992  19.5674990  51.8799997  40.1519992  18.9494990  51.0949997
  38.7009992  19.7924990  49.6929997  37.6069992  19.9094990  49.5419997
  39.0829992  20.8084990  49.9309997  39.4329992  19.2254990  48.4499997
  40.5099992  19.4054990  48.6549997  39.2169992  18.1474990  48.2869997
  38.9739992  19.8814990  47.1799997  37.9339992  19.5704990  46.9439997
  38.8679992  20.9424990  47.4919997  39.9979992  19.6954990  45.9849997
  39.8509992  20.4854990  45.2179997  40.9759992  19.9264990  46.4589997
  40.0489992  18.2634990  45.3489997  40.3899992  17.5814990  46.1559997
  39.0279992  17.9914990  45.0039997  41.1449992  18.2374990  44.3269997
  40.7779992  18.6564990  43.3659997  41.9269992  18.9294990  44.7059997
  41.7519992  16.8254990  43.9749997  42.6009992  16.8974990  43.2619997
  42.2629992  16.5164990  44.9119997  40.7129992  15.7114990  43.5769997
  40.0599992  15.3804990  44.4129997  39.9739992  16.0574990  42.8229997
  41.4449992  14.4004990  43.0849997  41.9729992  14.5934990  42.1269997
  42.2099992  13.9884990  43.7769997  40.3589992  13.3864990  42.5969997
  40.1859992  12.3174990  43.1599997  39.7939992  13.8864990  41.5269997
  38.8209992  12.9674990  41.0479997  39.3219992  12.0644990  40.6389997
  38.1269992  12.6134990  41.8409997  37.9269992  13.6184990  39.8859997
  37.3419992  12.7904990  39.4319997  38.8439992  14.2814990  38.8019997
  39.3419992  15.2284990  39.0999997  39.6369992  13.5674990  38.4959997
  38.0619992  14.5814990  37.6399997  38.8119992  15.3234990  36.4299997
  40.2479992  15.5814990  37.1769997  41.2489992  16.3104990  36.4309997
  42.1509992  16.2164990  37.0729997  41.6059992  15.8174990  35.5009997
  40.9179992  17.7904990  36.2629997  41.6589992  18.1954990  35.5889997
  39.9369992  17.9534990  35.8409997  41.0439992  18.6874990  37.4719997
  39.9929992  18.3304990  38.4329997  38.9619992  18.4634990  38.1399997
  40.1399992  17.2924990  38.6939997  40.1099992  18.8904990  39.3489997
  42.4309992  18.5224990  38.0619997  43.1329992  19.1364990  37.5179997
  42.4259992  18.9284990  39.0629997  42.6599992  17.4674990  38.0619997
  40.8959992  20.1454990  37.0919997  40.8349992  20.7504990  37.9839997
  40.0279992  20.2334990  36.4539997  41.8539992  20.4094990  36.6689997
  38.8339992  14.3394990  35.3079997  38.1729992  16.6734990  36.1649997
  37.1119992  14.6894990  40.3609997  35.8359992  14.6304990  40.0649997
  35.3289992  13.8864990  39.2629997  35.0879992  15.6944990  40.8659997
  34.1559992  16.0164990  40.3539997  35.7619992  16.5684990  40.9919997
  34.8669992  15.1034990  42.2229997  34.7089992  14.0034990  42.2159997
  33.8239992  15.3134990  42.5429997  35.8999992  15.5564990  43.2499997
  36.0279992  16.6534990  43.1309997  36.8889992  15.0504990  43.2219997
  35.3129992  15.4924990  44.6759997  34.7679992  14.5274990  44.5909997
  34.6199992  16.3194990  44.9379997  36.3029992  15.2344990  45.7919997
  37.1599992  15.9374990  45.8609997  36.8209992  14.2524990  45.7639997
  35.5779992  15.2804990  47.1329997  34.7119992  14.5854990  47.0749997
  35.0719992  16.2684990  47.0939997  36.4319992  15.0254990  48.4289997
  35.8029992  15.1584990  49.3339997  37.1219992  15.8954990  48.4109997
  37.2299992  13.6954990  48.4229997  36.5659992  12.8724990  48.7259997
  38.4749992  13.3504990  48.2929997  38.8189992  12.3074990  48.3499997
  39.6519992  14.3564990  48.0719997  39.2049992  15.3474990  47.8419997
  40.2179992  14.0834990  47.1559997  40.5219992  14.5354990  49.3139997
  41.0019992  13.5784990  49.6109997  39.8739992  14.8494990  50.1599997
  41.6579992  15.5704990  49.0269997  41.1789992  16.4684990  48.5799997
  42.3369992  15.1294990  48.2659997  42.5269992  16.1034990  50.2849997
  41.7379992  16.2954990  51.0429997  42.9929992  17.0694990  49.9949997
  43.6499992  15.2254990  50.8209997  44.5819992  15.4944990  50.2809997
  43.5119992  14.1344990  50.6589997  43.8379992  15.4744990  52.2969997
  44.0979992  16.5384990  52.4839997  44.6189992  14.7494990  52.6119997
  42.6849992  15.0304990  53.2829997  42.6489992  13.9244990  53.3709997
  41.6659992  15.1904990  52.8719997  42.7549992  15.7454990  54.6569997
  43.7669992  15.6494990  55.1069997  42.0119992  15.2884990  55.3449997
  42.4789992  16.8144990  54.5379997  49.0479992   9.6374990  54.0119997
  49.5919992   9.7544990  53.0509997  48.9889992   8.5714990  54.3199997
  49.6249992  10.2304990  54.7529997  47.6159992  10.1704990  53.7969997
  46.9889992   9.7194990  52.9979997  47.0629992   9.9814990  54.7409997
  47.8179992  11.6244990  53.4329997  48.4909992  12.0504990  54.2079997
  48.3009992  11.7284990  52.4389997  46.4599992  12.4074990  53.3809997
  45.8899992  12.1914990  54.3099997  46.7449992  13.4814990  53.3949997
  45.6699992  12.2074990  52.0849997  45.6239992  11.1204990  51.8599997
  44.6999992  12.4874990  52.5469997  46.0789992  12.9994990  50.8559997
  45.9649992  14.0774990  51.1019997  47.1819992  12.8894990  50.7759997
  45.4249992  12.6564990  49.5389997  45.7659992  11.6474990  49.2249997
  44.3509992  12.5354990  49.7959997  45.4769992  13.6844990  48.4899997
  44.8119992  14.5074990  48.8289997  46.4479992  14.1734990  48.2609997
  44.7809992  13.1114990  47.2339997  44.0219992  12.3814990  47.5889997
  44.3559992  13.7824990  46.4569997  45.6209992  12.2694990  46.2059997
  46.2179992  12.7954990  45.4309997  46.4719992  11.7794990  46.7259997
  44.8549992  11.0624990  45.6459997  44.4919992  10.2644990  46.3279997
  44.0579992  11.5094990  45.0129997  45.7239992  10.2724990  44.5909997
  46.5099992   9.6434990  45.0619997  45.0049992   9.6164990  44.0549997
  46.4129992  11.2144990  43.5289997  47.0559992  12.0464990  43.8869997
  47.0779992  10.4374990  43.0929997  45.5109992  11.7534990  42.5149997
  44.9239992  10.8774990  42.1659997  44.7439992  12.4824990  42.8549997
  46.2989992  12.2844990  41.2689997  46.8109992  11.4604990  40.7259997
  45.6669992  12.7904990  40.5079997  47.3049992  13.3574990  41.7689997
  47.0029992  14.2074990  42.5269997  48.4699992  13.1634990  41.1599997
  49.6579992  13.9524990  41.3699997  49.2639992  14.9904990  41.3519997
  50.1049992  13.6074990  42.3269997  50.6639992  13.7814990  40.2049997
  51.5869992  14.3714990  40.3929997  50.1329992  14.3384990  38.8959997
  49.4219992  15.1614990  39.1239997  50.9749992  14.7454990  38.2969997
  49.4399992  13.3244990  38.1379997  48.7149992  13.6774990  36.6729997
  48.3529992  12.2594990  36.0779997  48.6239992  11.1124990  36.8539997
  48.8669992  10.2944990  36.1429997  49.5759992  11.2194990  37.4159997
  47.4579992  10.7404990  37.8249997  47.7299992   9.7974990  38.2759997
  47.3319992  11.5014990  38.5809997  46.0299992  10.6564990  37.2669997
  45.3139992  12.0064990  37.1929997  45.1739992  12.3584990  38.2039997
  45.9459992  12.7284990  36.6959997  44.3409992  11.9034990  36.7369997
  46.1169992  10.2134990  35.8009997  45.2019992   9.7794990  35.4259997
  46.3709992  11.1204990  35.2729997  46.9609992   9.5444990  35.7279997
  45.1179992   9.6874990  37.9459997  44.2319992   9.6324990  37.3309997
  44.7659992  10.1874990  38.8369997  45.6059992   8.7334990  38.0839997
  47.4479992  14.4264990  36.9169997  49.7139992  14.2934990  35.7799997
  51.0579992  12.3714990  39.9899997  51.8789992  11.8914990  40.8489997
  52.3639992  12.5164990  41.7819997  52.1469992  10.4334990  40.5049997
  53.2339992  10.3674990  40.2849997  51.5559992   9.9774990  39.6819997
  51.8409992   9.4034990  41.6419997  52.4159992   9.7074990  42.5419997
  52.0769992   8.3734990  41.2999997  50.3749992   9.2034990  41.9209997
  49.7499992   8.6394990  41.1969997  49.9019992  10.1954990  42.0839997
  50.2139992   8.3594990  43.2179997  50.7579992   7.4204990  42.9799997
  49.1699992   8.0134990  43.3749997  50.6909992   8.9944990  44.5519997
  51.7969992   9.0044990  44.4489997  50.3329992   8.3854990  45.4089997
  50.1989992  10.3664990  44.7899997  49.0909992  10.2814990  44.7839997
  50.5199992  11.1084990  44.0279997  50.7509992  10.8254990  46.1769997
  51.7329992  11.3254990  46.0369997  50.9409992   9.9624990  46.8509997
  49.7809992  11.7424990  46.8849997  49.0899992  12.3094990  46.2429997
  49.8049992  11.9714990  48.2349997  48.8699992  12.4804990  48.5119997
  50.7709992  11.5384990  49.3349997  51.7589992  11.1964990  48.9589997
  50.3259992  10.6394990  49.8109997  50.9169992  12.6664990  50.3309997
  49.9569992  12.8444990  50.8599997  51.1649992  13.5954990  49.7729997
  52.0449992  12.5184990  51.3439997  53.0479992  12.3304990  50.9049997
  51.7669992  11.7104990  52.0539997  52.3559992  13.7954990  52.2059997
  52.8339992  14.5704990  51.5699997  52.8949992  13.4984990  53.1309997
  51.0679992  14.5474990  52.7699997  50.4919992  13.7754990  53.3229997
  50.5859992  15.0414990  51.8999997  51.3749992  15.7604990  53.6519997
  51.6829992  16.6094990  53.0049997  52.0989992  15.4444990  54.4329997
  50.1929992  16.1764990  54.5429997  50.6159992  16.9974990  55.1599997
  49.8809992  15.3294990  55.1909997  48.8729992  16.8184990  53.9349997
  49.2119992  17.6384990  53.2659997  48.4009992  17.1764990  54.8749997
  48.3869992  15.9764990  53.3979997  70.6359992 128.6164990  57.7199997
  70.2739992 129.4534990  57.0849997  71.7069992 128.8454990  57.9029997
  70.0079992 128.5974990  58.6359997  70.3989992 127.2554990  57.0199997
  69.3009992 127.0954990  56.9659997  70.9909992 127.2984990  56.0809997
  70.8799992 126.1594990  57.9559997  71.9889992 126.2144990  57.9999997
  70.5689992 126.4024990  58.9949997  70.5839992 124.7034990  57.6169997
  71.1959992 123.9454990  58.1509997  69.5299992 124.5054990  57.9069997
  70.5999992 124.3614990  56.1039997  70.0249992 123.4424990  55.8599997
  69.9989992 124.9644990  55.3899997  71.9839992 124.2854990  55.4969997
  72.6109992 125.1924990  55.3619997  72.6829992 123.6484990  56.0809997
  71.9419992 123.7004990  53.9889997  72.9459992 123.7234990  53.5139997
  71.7009992 122.6164990  54.0279997  70.8849992 124.4104990  53.0629997
  69.8689992 124.2354990  53.4759997  71.0119992 125.5134990  53.1019997
  70.9869992 123.9514990  51.5569997  72.0439992 123.8394990  51.2349997
  70.5539992 122.9334990  51.4499997  70.3319992 124.8034990  50.5149997
  69.2499992 124.7964990  50.7689997  70.8279992 125.7884990  50.6519997
  70.5909992 124.2204990  49.1229997  71.6759992 124.1194990  48.9069997
  70.2099992 123.1794990  49.2039997  69.7569992 124.9804990  48.1439997
  68.7479992 124.5344990  48.2699997  69.6499992 126.0804990  48.2599997
  70.1999992 124.8174990  46.6659997  70.2909992 123.7244990  46.4879997
  69.3689992 125.1664990  46.0159997  71.3999992 125.6814990  46.3439997
  71.2369992 126.7804990  46.3559997  72.1669992 125.5844990  47.1409997
  72.1259992 125.2194990  45.0519997  73.1069992 125.7414990  45.0439997
  72.3109992 124.1334990  44.9109997  71.4859992 125.7684990  43.8069997
  71.6019992 126.9144990  43.4079997  70.8769992 124.7494990  43.1649997
  70.2829992 124.8114990  41.8009997  70.7919992 125.5334990  41.1269997
  70.3749992 123.8554990  41.2419997  68.8109992 125.1064990  41.8029997
  68.3569992 124.3354990  42.4609997  68.1879992 125.0344990  40.3979997
  68.7799992 124.3204990  39.7849997  67.1409992 124.7014990  40.5589997
  68.2299992 126.3374990  39.7579997  67.6569992 126.4834990  38.3279997
  68.9599992 126.7984990  37.4649997  70.2049992 126.1494990  37.7589997
  70.4219992 126.2384990  38.8449997  70.1489992 125.0864990  37.4409997
  71.2889992 126.8684990  36.9389997  71.4089992 127.9094990  37.1959997
  72.1999992 126.3324990  37.1609997  71.2459992 126.7404990  35.4109997
  70.2419992 127.5664990  34.7079997  70.3339992 128.5924990  35.0309997
  70.3259992 127.4344990  33.6399997  69.2639992 127.2184990  35.0049997
  72.5189992 127.2554990  34.9169997  72.5379992 127.3404990  33.8399997
  72.6269992 128.2484990  35.3269997  73.2679992 126.4974990  35.0869997
  71.1679992 125.2314990  35.0269997  72.1329992 124.7504990  35.0799997
  70.9599992 125.1544990  33.9699997  70.3489992 124.8194990  35.5989997
  67.0339992 125.2954990  37.8289997  66.9059992 127.7804990  38.3319997
  68.6899992 126.4724990  42.3969997  67.3789992 126.7284990  42.7979997
  66.5389992 125.8894990  42.8709997  67.2309992 128.2254990  43.0589997
  66.1529992 128.4644990  42.9429997  67.8209992 128.8524990  42.3569997
  67.6639992 128.5284990  44.5459997  68.6609992 128.2074990  44.9139997
  66.9519992 127.8874990  45.1089997  67.4869992 130.0684990  44.8919997
  66.5239992 130.3544990  44.4189997  68.2889992 130.6824990  44.4279997
  67.1179992 130.4434990  46.3489997  66.5029992 129.6554990  46.8339997
  66.6559992 131.4384990  46.1719997  68.4389992 130.6024990  47.2109997
  68.2769992 131.0994990  48.1909997  69.2109992 131.3174990  46.8549997
  69.0549992 129.2524990  47.6639997  69.5089992 128.6664990  46.8359997
  68.2869992 128.5974990  48.1279997  70.2569992 129.4544990  48.7269997
  70.9899992 130.0894990  48.1859997  70.7929992 128.4974990  48.9049997
  69.8169992 130.1774990  49.9369997  70.3889992 131.0394990  50.3129997
  68.9169992 129.7284990  50.7769997  68.7729992 130.4454990  51.5989997
  68.0799992 128.4364990  50.7929997  68.1939992 127.7214990  49.9509997
  66.9889992 128.6434990  50.7899997  68.5189992 127.5554990  52.0379997
  69.6119992 127.4444990  51.8729997  68.0659992 126.5414990  52.0059997
  68.3029992 128.2084990  53.3999997  69.0399992 129.0284990  53.5349997
  68.6069992 127.4264990  54.1289997  66.9529992 128.7514990  53.8159997
  66.7879992 129.6184990  53.1419997  67.1039992 129.2234990  54.8109997
  65.9039992 127.6254990  53.8139997  65.8199992 127.1604990  52.8079997
  64.8609992 127.9344990  54.0409997  66.1529992 126.4114990  54.8229997
  67.1089992 125.8974990  54.5899997  65.3029992 125.6964990  54.8539997
  66.2559992 126.9464990  56.2919997  67.0759992 127.6674990  56.4989997
  66.3679992 126.0534990  56.9439997  64.9899992 127.6194990  56.8769997
  64.5499992 128.5044990  56.3679997  65.2929992 128.1324990  57.8149997
  64.2149992 126.8384990  57.0289997  27.1349992 108.8164990  53.8949997
  27.7859992 108.0894990  54.4259997  26.0569992 108.5684990  53.9979997
  27.1699992 109.7194990  54.5419997  27.6409992 109.0854990  52.5079997
  28.7269992 108.8784990  52.3959997  27.0709992 108.3694990  51.8789997
  27.3379992 110.4644990  52.0099997  27.3259992 110.4644990  50.8989997
  26.3069992 110.7184990  52.3339997  28.0919992 111.6334990  52.6469997
  27.8139992 112.5974990  52.1699997  27.7739992 111.7304990  53.7069997
  29.6539992 111.6604990  52.6559997  30.0529992 112.5524990  53.1849997
  29.9849992 110.7424990  53.1879997  30.3279992 111.6494990  51.2109997
  31.3839992 111.3364990  51.3549997  29.8579992 110.8094990  50.6549997
  30.0039992 112.9644990  50.4449997  28.9079992 112.9344990  50.2689997
  30.2889992 113.8994990  50.9729997  30.7709992 113.0964990  49.0859997
  30.3839992 112.2594990  48.4659997  30.4939992 114.0284990  48.5479997
  32.3459992 113.1684990  49.1349997  32.5769992 113.9944990  49.8399997
  32.9489992 112.3024990  49.4819997  32.9059992 113.5634990  47.7859997
  32.2909992 114.3274990  47.2649997  33.9319992 113.9084990  48.0369997
  33.0039992 112.3114990  46.8249997  33.6149992 111.5034990  47.2809997
  31.9739992 111.9704990  46.5849997  33.5839992 112.5684990  45.4169997
  34.4249992 113.2874990  45.5129997  33.9319992 111.5574990  45.1139997
  32.5289992 113.1294990  44.4229997  31.5869992 112.5424990  44.4569997
  32.4979992 114.2244990  44.6049997  33.0959992 113.2354990  43.0009997
  32.4809992 113.9704990  42.4379997  34.1569992 113.5614990  42.9639997
  33.0789992 111.8744990  42.2909997  33.5469992 111.1894990  43.0299997
  32.0089992 111.6074990  42.1529997  33.9059992 111.9294990  41.0019997
  34.1309992 112.8814990  40.2679997  34.2219992 110.7414990  40.7709997
  34.9349992 110.3174990  39.5719997  35.1429992 111.2014990  38.9319997
  35.9029992 109.8854990  39.9059997  34.2119992 109.2454990  38.7669997
  34.8429992 108.9764990  37.8939997  32.8379992 109.7004990  38.2499997
  32.8419992 110.7324990  37.8389997  32.5019992 109.0594990  37.4079997
  31.8539992 109.6114990  39.3249997  30.5739992 110.5944990  39.1319997
  30.1829992 110.3374990  37.6949997  29.4449992 109.1464990  37.3669997
  30.1439992 108.2884990  37.4649997  28.6279992 108.9434990  38.0919997
  28.7349992 109.2514990  35.9669997  28.0389992 108.4254990  35.9389997
  28.2399992 110.2114990  35.9719997  29.6579992 109.2474990  34.7389997
  30.0619992 107.8114990  34.5569997  30.7069992 107.7834990  33.6919997
  30.5239992 107.3664990  35.4259997  29.1899992 107.2314990  34.2939997
  28.8579992 109.6404990  33.5189997  28.7959992 110.7094990  33.3749997
  29.3049992 109.2144990  32.6329997  27.8589992 109.2394990  33.6009997
  30.7929992 110.1514990  34.8459997  31.2369992 109.9564990  35.8109997
  30.5849992 111.2104990  34.8579997  31.5029992 109.9154990  34.0669997
  29.4879992 110.1604990  40.0739997  31.0579992 112.0014990  39.2519997
  34.1599992 108.0514990  39.5779997  33.6499992 106.9684990  39.0109997
  33.3679992 106.8054990  37.8359997  33.4759992 105.8674990  40.1219997
  34.3989992 105.7304990  40.7249997  33.2539992 104.9594990  39.5219997
  32.2309992 106.1844990  40.9769997  31.6839992 105.2914990  41.3509997
  31.5759992 106.9264990  40.4709997  32.7699992 106.9094990  42.2059997
  33.3859992 107.7594990  41.8409997  33.4749992 106.2254990  42.7259997
  31.8689992 107.4244990  43.3059997  32.6289992 107.8104990  44.0189997
  31.4249992 106.5344990  43.8009997  30.7749992 108.5234990  43.0159997
  30.0789992 108.1744990  42.2239997  31.3769992 109.4344990  42.8099997
  30.0109992 108.8714990  44.3409997  29.3709992 108.0534990  44.7339997
  29.3039992 109.6544990  43.9919997  30.8129992 109.3674990  45.5249997
  31.4199992 110.2514990  45.2359997  31.6719992 108.7144990  45.7889997
  29.9899992 109.7814990  46.7219997  29.6749992 110.8324990  46.6479997
  29.7829992 109.1624990  47.8779997  28.9399992 109.4094990  48.5399997
  30.4289992 107.8124990  48.1999997  30.4189992 107.1214990  47.3299997
  29.7239992 107.3474990  48.9209997  31.9109992 107.8854990  48.7429997
  32.3989992 108.5914990  48.0369997  32.3539992 106.8664990  48.7419997
  32.0209992 108.6374990  50.0159997  31.4359992 109.5774990  49.9259997
  33.0829992 108.9434990  50.1339997  31.6359992 107.9124990  51.3669997
  31.7519992 106.8264990  51.1629997  30.5629992 108.1474990  51.5379997
  32.3999992 108.2734990  52.6779997  32.2989992 109.3664990  52.8509997
  33.4939992 108.1304990  52.5469997  31.9059992 107.5104990  53.9619997
  32.1329992 106.4304990  53.8389997  30.7949992 107.4974990  53.9289997
  32.2619992 107.9574990  55.4389997  32.0079992 107.2024990  56.2129997
  31.6149992 108.8004990  55.7619997  33.6709992 108.4904990  55.6259997
  34.4189992 107.7984990  55.1819997  33.8729992 108.5994990  56.7129997
  33.7999992 109.4824990  55.1419997  29.8069992  19.2434990  54.6839997
  28.8059992  19.2034990  55.1639997  30.3479992  18.2724990  54.6589997
  29.6369992  19.4644990  53.6089997  30.8379992  20.0434990  55.5009997
  30.6509992  19.7414990  56.5539997  31.8389992  19.6764990  55.1889997
  30.7779992  21.5464990  55.2049997  30.8019992  21.5824990  54.0949997
  29.7799992  21.8384990  55.5969997  31.9489992  22.2264990  55.8549997
  32.0059992  21.9034990  56.9159997  32.8259992  21.7114990  55.4089997
  32.1839992  23.6904990  55.5249997  31.5029992  24.3534990  56.1009997
  33.2409992  24.0014990  55.6679997  31.7699992  24.0914990  54.1349997
  32.1529992  23.2664990  53.4979997  30.6679992  24.0204990  54.0139997
  32.2629992  25.4414990  53.6779997  32.0519992  26.2634990  54.3949997
  33.3519992  25.2714990  53.5429997  31.7699992  25.8924990  52.3059997
  30.6769992  26.0854990  52.2459997  32.2869992  26.8584990  52.1219997
  32.3619992  24.9894990  51.1469997  33.4569992  25.0484990  51.3229997
  32.0259992  23.9384990  51.2809997  32.2109992  25.5624990  49.7079997
  31.1329992  25.6594990  49.4579997  32.5589992  26.6174990  49.7169997
  33.0409992  24.7944990  48.6839997  33.0779992  25.2724990  47.6809997
  34.0519992  24.8624990  49.1379997  32.5849992  23.3344990  48.5529997
  32.5369992  22.9414990  49.5909997  31.6789992  23.1714990  47.9319997
  33.7039992  22.4604990  47.7759997  34.5689992  22.7514990  48.4089997
  33.5199992  21.3814990  47.9679997  33.7309992  22.5834990  46.2849997
  33.7869992  23.6144990  45.8759997  34.7619992  22.2414990  46.0489997
  32.7969992  21.7384990  45.4059997  32.9179992  20.6864990  45.7409997
  31.7219992  21.9854990  45.5439997  33.1379992  21.7804990  43.9519997
  33.8329992  22.6314990  43.5409997  32.6629992  20.7544990  43.2639997
  33.0069992  20.6044990  41.9419997  33.3599992  21.5664990  41.5139997
  33.6719992  19.7144990  41.9429997  31.7489992  20.1404990  41.2459997
  31.4149992  19.2334990  41.7939997  31.7709992  19.8274990  39.7469997
  32.4029992  18.9624990  39.4509997  30.7629992  19.5354990  39.3809997
  32.1169992  21.0414990  39.0479997  33.5159992  21.2464990  38.3909997
  33.4599992  22.7044990  37.8189997  32.1919992  23.3874990  37.8659997
  31.8009992  23.3924990  38.9059997  32.2329992  24.4354990  37.4979997
  31.1899992  22.6844990  36.8849997  31.0189992  21.6384990  37.0939997
  30.2459992  23.1514990  37.1269997  31.4909992  22.8154990  35.3559997
  30.3309992  22.2024990  34.6269997  29.4139992  22.4974990  35.1149997
  30.3539992  22.4254990  33.5709997  30.3739992  21.1264990  34.6979997
  31.6519992  24.2474990  34.8779997  31.7039992  24.2414990  33.7999997
  30.8109992  24.8534990  35.1799997  32.5529992  24.7304990  35.2249997
  32.7619992  22.1624990  34.8619997  33.6089992  22.5424990  35.4149997
  32.8729992  22.2854990  33.7949997  32.7499992  21.0994990  35.0569997
  34.5519992  21.1554990  39.4459997  33.5529992  20.2784990  37.2929997
  30.7729992  21.1534990  41.4379997  29.5149992  20.8384990  41.5819997
  29.0209992  19.7444990  41.6179997  28.7259992  22.1324990  41.8739997
  28.0059992  22.2624990  41.0379997  29.3759992  23.0334990  41.8869997
  27.9619992  22.0884990  43.1689997  27.1609992  21.3174990  43.1719997
  27.2429992  22.9324990  43.2409997  28.8549992  22.0544990  44.3599997
  29.4319992  22.9974990  44.4669997  29.5889992  21.2484990  44.1449997
  28.1119992  21.8044990  45.6589997  27.4759992  22.7154990  45.6499997
  28.7129992  22.0984990  46.5459997  27.4469992  20.4394990  45.6879997
  26.8759992  20.2584990  44.7519997  26.7839992  20.4514990  46.5799997
  28.3929992  19.2264990  45.8259997  28.8939992  19.0494990  44.8499997
  27.8479992  18.2774990  46.0169997  29.4099992  19.2934990  46.9919997
  30.1059992  20.1594990  46.9679997  30.1209992  18.4404990  46.9609997
  28.6659992  19.2024990  48.3539997  27.8919992  18.4364990  48.5079997
  28.9129992  19.8464990  49.5069997  28.2429992  19.6794990  50.3639997
  29.9689992  20.8894990  49.7829997  29.4799992  21.8794990  49.9029997
  30.6959992  20.8954990  48.9429997  30.7869992  20.6534990  51.0189997
  30.0399992  20.3594990  51.7879997  31.0719992  21.6494990  51.4189997
  31.8099992  19.5504990  50.7299997  32.3779992  19.6614990  49.7819997
  31.2399992  18.5974990  50.7049997  32.7449992  19.3274990  51.8499997
  33.3509992  18.4124990  52.0209997  32.1359992  19.3614990  52.7779997
  33.6919992  20.6024990  52.0019997  33.0889992  21.5234990  52.1509997
  34.1069992  20.6654990  50.9729997  34.8059992  20.5134990  53.0479997
  35.6579992  19.9444990  52.6199997  34.4229992  20.0434990  53.9789997
  35.2939992  21.9294990  53.3369997  34.3929992  22.4444990  53.7349997
  35.6219992  22.5214990  52.4559997  36.3519992  22.0264990  54.4819997
  37.0589992  21.2044990  54.2429997  35.8569992  21.8894990  55.4669997
  36.9359992  22.9684990  54.4049997  62.4329992  13.0074990  53.3369997
  61.4789992  12.7264990  53.8309997  63.1179992  13.1984990  54.1899997
  62.9029992  12.1664990  52.7849997  62.2269992  14.1844990  52.3869997
  62.1999992  15.1554990  52.9259997  63.1829992  14.2374990  51.8219997
  61.0819992  14.0174990  51.3669997  60.0749992  14.0134990  51.8369997
  61.0759992  15.0184990  50.8849997  61.0139992  12.7494990  50.4949997
  60.8579992  11.8154990  51.0749997  59.9689992  12.8674990  50.1369997
  62.1399992  12.6994990  49.4249997  62.0479992  13.7144990  48.9809997
  63.1529992  12.5514990  49.8549997  61.9009992  11.6884990  48.3089997
  60.8289992  11.6614990  48.0209997  62.4369992  11.8664990  47.3519997
  62.2379992  10.2824990  48.7249997  63.0689992  10.4514990  49.4419997
  61.4479992   9.7674990  49.3119997  62.7689992   9.2984990  47.6419997
  63.8189992   9.5424990  47.3719997  62.7279992   8.3104990  48.1479997
  61.8829992   9.3944990  46.4049997  60.8069992   9.2444990  46.6389997
  62.0219992  10.3634990  45.8809997  62.1649992   8.2954990  45.3959997
  63.2509992   8.1544990  45.2109997  61.8509992   7.3764990  45.9349997
  61.3229992   8.5104990  44.1039997  61.4809992   7.6464990  43.4239997
  60.2839992   8.5774990  44.4899997  61.4619992   9.8574990  43.4169997
  60.6709992   9.9384990  42.6409997  61.5609992  10.7774990  44.0319997
  62.7829992  10.0274990  42.5929997  63.7489992   9.8204990  43.1019997
  62.7389992   9.3104990  41.7459997  62.7869992  11.4554990  41.8879997
  63.5029992  11.4274990  41.0389997  61.7739992  11.6354990  41.4689997
  63.1869992  12.4694990  42.9339997  62.3179992  12.6624990  43.5999997
  64.0369992  12.1774990  43.5879997  63.5939992  13.8124990  42.2429997
  62.8149992  14.7464990  42.0169997  64.8239992  13.6024990  41.7539997
  65.2779992  14.7564990  41.0449997  64.4429992  15.2734990  40.5249997
  65.8589992  15.4214990  41.7199997  66.2399992  14.2724990  39.8719997
  66.5279992  15.2634990  39.4589997  65.4489992  13.4364990  38.7719997
  64.5529992  13.9654990  38.3819997  66.2029992  13.4204990  37.9559997
  65.1709992  12.1594990  39.1569997  64.9329992  10.8914990  38.2489997
  63.9169992  11.2864990  37.0219997  62.6519992  11.9434990  37.3089997
  62.0059992  11.4504990  38.0669997  62.7979992  12.9874990  37.6579997
  61.8409992  11.9554990  36.0599997  61.2259992  12.8424990  36.0329997
  62.5829992  12.0254990  35.2789997  61.1119992  10.7604990  35.6419997
  60.8949992  10.7044990  34.1149997  61.7419992  11.1314990  33.5979997
  60.6629992   9.6834990  33.8489997  60.0609992  11.3094990  33.7919997
  61.9139992   9.5214990  35.9739997  62.8009992   9.5264990  35.3589997
  62.2919992   9.5294990  36.9859997  61.2739992   8.6934990  35.7069997
  59.7869992  10.8214990  36.2879997  59.9669992  10.6874990  37.3449997
  59.2109992  10.0044990  35.8789997  59.3969992  11.8114990  36.1039997
  66.2009992  10.5124990  37.5569997  64.2769992   9.8754990  39.0969997
  67.2959992  13.6124990  40.6279997  68.2459992  12.9754990  40.0339997
  68.3519992  12.7374990  38.8549997  69.2719992  12.4814990  41.1379997
  68.8139992  12.8084990  42.0949997  70.2359992  13.0164990  41.0049997
  69.4479992  10.9624990  41.2009997  70.1019992  10.8014990  42.0849997
  69.9149992  10.6104990  40.2569997  68.1309992  10.2774990  41.3189997
  67.5829992  10.4644990  40.3709997  67.5319992  10.6004990  42.1979997
  68.3399992   8.7974990  41.5009997  69.0569992   8.6474990  42.3369997
  68.8299992   8.3734990  40.5979997  66.9559992   8.1594990  41.6689997
  66.6879992   7.7674990  40.6649997  66.2429992   8.9854990  41.8739997
  66.7999992   7.2464990  42.9159997  67.7539992   6.6834990  43.0029997
  66.0159992   6.4734990  42.7679997  66.4519992   7.7984990  44.2929997
  66.5799992   6.9884990  45.0429997  65.4569992   8.2854990  44.3789997
  67.6059992   8.7204990  44.6869997  68.6179992   8.2904990  44.6469997
  67.5159992  10.0164990  45.0729997  68.4479992  10.5404990  45.3289997
  66.2739992  10.8064990  45.2339997  65.4299992  10.0884990  45.3179997
  66.1569992  11.3644990  44.2809997  66.2519992  11.8444990  46.3689997
  65.1989992  12.1384990  46.5649997  66.7869992  12.7164990  45.9369997
  66.8899992  11.3584990  47.6669997  67.9989992  11.3444990  47.5969997
  66.5859992  10.3174990  47.9069997  66.5839992  12.3164990  48.7979997
  65.5869992  12.0754990  49.2249997  66.6049992  13.3504990  48.3909997
  67.4419992  12.3224990  50.0439997  68.4709992  12.6684990  49.8059997
  67.5149992  11.2554990  50.3449997  66.9589992  13.2194990  51.1859997
  65.9579992  12.8344990  51.4739997  66.8499992  14.3154990  51.0379997
  67.9169992  13.2434990  52.4019997  67.9429992  12.1634990  52.6579997
  67.6009992  13.7714990  53.3269997  69.3279992  13.7224990  52.1489997
  69.8899992  13.1654990  51.3689997  69.9129992  13.7084990  53.0939997
  69.3509992  14.7264990  51.6749997  67.3319992  10.5224990  53.6239997
  66.5679992   9.7334990  53.7949997  67.0689992  11.2234990  52.8019997
  67.4409992  11.1434990  54.5379997  68.6539992   9.7724990  53.3629997
  68.7429992   8.8524990  53.9799997  68.5689992   9.3974990  52.3209997
  70.0149992  10.5434990  53.5059997  70.1109992  11.0334990  54.4989997
  70.8199992   9.7834990  53.6019997  70.3459992  11.4874990  52.3289997
  71.3759992  11.8914990  52.4299997  70.3919992  10.8634990  51.4109997
  69.3019992  12.5524990  51.9489997  68.5309992  11.8324990  51.5989997
  68.9429992  13.1324990  52.8259997  69.6429992  13.4254990  50.7039997
  70.4539992  14.0924990  51.0679997  69.9889992  12.7844990  49.8649997
  68.4879992  14.2884990  50.0999997  67.6249992  13.7674990  50.5659997
  68.4159992  15.3734990  50.3309997  68.3529992  14.0844990  48.5649997
  68.0609992  13.0334990  48.3519997  67.6199992  14.7844990  48.1109997
  69.6359992  14.3064990  47.7939997  70.0579992  15.2944990  48.0739997
  70.4659992  13.6014990  48.0169997  69.5679992  14.4134990  46.2279997
  68.8519992  13.6034990  45.9709997  69.1479992  15.3924990  45.9109997
  71.0399992  14.2744990  45.7099997  71.5369992  15.2044990  46.0589997
  71.5839992  13.4834990  46.2689997  71.1779992  14.1084990  44.2129997
  70.4029992  13.4784990  43.7269997  71.1629992  15.0044990  43.5549997
  72.4969992  13.4854990  43.8099997  73.2629992  13.7894990  44.5559997
  72.4399992  12.3774990  43.8719997  72.8229992  13.7604990  42.3359997
  71.9279992  13.4874990  41.7369997  73.0119992  14.8534990  42.2789997
  74.1009992  13.0404990  41.9059997  74.3679992  13.5714990  40.9669997
  74.8709992  13.1484990  42.6999997  74.0999992  11.6284990  41.4509997
  75.0089992  10.8534990  41.4129997  72.8419992  11.3954990  41.1039997
  72.5099992   9.9894990  40.8279997  73.1839992   9.6704990  40.0039997
  72.7729992   9.4244990  41.7479997  71.0459992   9.6884990  40.5199997
  70.9549992   8.5894990  40.3869997  70.4269992  10.3274990  39.2429997
  71.0019992  10.0304990  38.3389997  69.3939992   9.9194990  39.2259997
  70.4169992  11.7484990  39.3979997  69.6909992  12.5454990  38.2429997
  70.6919992  12.6844990  37.1119997  72.0389992  13.0174990  37.4479997
  72.1399992  13.7954990  38.2349997  72.5519992  12.0914990  37.7869997
  72.8469992  13.4824990  36.2509997  73.9039992  13.6154990  36.4299997
  72.8059992  12.6114990  35.6139997  72.3489992  14.7104990  35.5629997
  72.0229992  15.7364990  36.5689997  71.9749992  16.6734990  36.0339997
  71.1519992  15.5104990  37.1659997  72.8679992  15.8034990  37.2389997
  73.3589992  15.2574990  34.5309997  74.2609992  15.4554990  35.0919997
  73.5549992  14.5244990  33.7629997  73.0319992  16.1884990  34.0899997
  71.0809992  14.3294990  34.8449997  70.8239992  15.2314990  34.3089997
  70.2819992  14.1304990  35.5439997  71.1599992  13.4464990  34.2279997
  68.4449992  11.8564990  37.6989997  69.4089992  13.9364990  38.8129997
  70.2479992  10.1934990  41.6269997  70.1979992   9.4164990  42.7159997
  70.7489992   8.3534990  42.8809997  69.4449992  10.2224990  43.8129997
  68.5539992  10.7764990  43.4469997  70.1149992  11.0384990  44.1569997
  69.1369992   9.3084990  45.0319997  69.9219992   8.5734990  45.3139997
  68.2289992   8.7434990  44.7329997  68.6659992  10.0614990  46.2809997
  67.9849992   9.3874990  46.8429997  68.0959992  10.9724990  45.9969997
  69.7659992  10.5724990  47.2269997  69.2589992  11.1864990  48.0019997
  70.6649992  11.1074990  46.8529997  70.3899992   9.3694990  47.9789997
  71.0319992   8.8034990  47.2699997  69.5829992   8.7514990  48.4269997
  71.2409992   9.9194990  49.1439997  71.0069992   9.2484990  49.9979997
  70.8669992  10.9324990  49.4059997  72.7779992   9.8074990  48.9439997
  73.0519992   8.8294990  48.4949997  73.2789992   9.8314990  49.9359997
  73.2639992  10.8894990  47.9589997  73.2209992  10.6074990  46.8969997
  73.7299992  12.0784990  48.2809997  73.9099992  12.7544990  47.4319997
  73.8949992  12.6484990  49.6809997  74.8099992  12.1774990  50.0999997
  73.0059992  12.5284990  50.3369997  74.2719992  14.1824990  49.5509997
  75.0769992  14.4134990  48.8209997  74.6939992  14.3404990  50.5659997
  73.1649992  15.1554990  49.3809997  72.2829992  14.6784990  49.8589997
  72.9629992  15.0754990  48.2909997  73.6589992  16.5724990  49.7509997
  73.5749992  17.3434990  48.9549997  74.7579992  16.5754990  49.9119997
  73.1349992  17.1634990  51.1019997  72.0659992  17.4554990  51.0249997
  73.7569992  18.0824990  51.0519997  73.4619992  16.3594990  52.3959997
  74.5489992  16.1434990  52.3149997  72.8529992  15.4304990  52.3819997
  73.1169992  16.9804990  53.7749997  72.1189992  17.4684990  53.8069997
  73.9319992  17.6964990  54.0119997  72.9829992  15.9734990  54.9249997
  72.6759992  16.3514990  55.9229997  73.8939992  15.3634990  55.1049997
  72.2009992  15.2434990  54.6259997 117.8599992 107.3444990  58.5109997
 116.7909992 107.0424990  58.4879997 117.8429992 108.4464990  58.3769997
 118.2669992 107.1004990  59.5159997 118.6989992 106.7864990  57.3529997
 119.6599992 107.3434990  57.3969997 118.9469992 105.7524990  57.6749997
 117.9769992 106.6654990  55.9459997 118.5589992 106.1294990  55.1669997
 117.0069992 106.1434990  56.0919997 117.7779992 108.0364990  55.3609997
 116.9859992 108.5114990  55.9779997 118.7839992 108.5064990  55.4029997
 117.2549992 108.0974990  53.9269997 118.1589992 107.9164990  53.3069997
 116.4959992 107.2974990  53.7959997 116.5899992 109.3974990  53.4129997
 115.6959992 109.7944990  53.9399997 117.3179992 110.1704990  53.7379997
 115.9929992 109.3744990  51.9279997 115.4379992 110.3164990  51.7309997
 116.7529992 109.1874990  51.1389997 114.9109992 108.3004990  51.6939997
 115.4559992 107.3334990  51.6459997 114.1019992 108.2074990  52.4489997
 114.2829992 108.4554990  50.2759997 113.6559992 109.3704990  50.3329997
 115.0799992 108.6314990  49.5219997 113.4439992 107.2574990  49.8569997
 113.9749992 106.2814990  49.8189997 112.6389992 107.0184990  50.5829997
 112.7199992 107.4574990  48.5459997 111.9689992 106.6394990  48.4999997
 112.1689992 108.4214990  48.5899997 113.4919992 107.3514990  47.2429997
 114.3479992 108.0564990  47.3049997 113.8199992 106.2944990  47.1549997
 112.6059992 107.6944990  46.0269997 111.9579992 106.8194990  45.8059997
 112.0289992 108.6434990  46.0639997 113.4549992 107.7204990  44.7329997
 112.7449992 107.9264990  43.9039997 114.2739992 108.4624990  44.8539997
 114.2539992 106.3994990  44.2989997 114.8539992 106.0434990  45.1639997
 113.4959992 105.6124990  44.0989997 115.2849992 106.6394990  43.1179997
 115.5699992 107.7214990  42.6669997 115.7389992 105.4524990  42.7329997
 116.6469992 105.3204990  41.6189997 116.7259992 106.3174990  41.1349997
 117.6129992 104.9914990  42.0589997 116.0699992 104.2054990  40.6179997
 116.2389992 103.1754990  40.9989997 116.7799992 104.2774990  39.2909997
 116.8989992 105.3614990  39.0769997 117.7999992 103.8434990  39.3669997
 116.1549992 103.6204990  38.2179997 115.5369992 104.3924990  36.9829997
 114.9309992 105.6954990  37.6319997 114.0869992 106.5154990  36.8419997
 113.4599992 105.9124990  36.1509997 113.3539992 107.0014990  37.5199997
 114.8839992 107.6034990  36.1219997 115.6819992 107.2494990  35.4859997
 114.1599992 108.1594990  35.5439997 115.5129992 108.7594990  36.8999997
 116.3839992 108.3004990  38.0769997 115.8369992 107.6294990  38.7229997
 117.2559992 107.7864990  37.7009997 116.8169992 109.1424990  38.5959997
 116.3689992 109.4614990  35.9239997 115.7889992 109.8984990  35.1249997
 116.9169992 110.2374990  36.4369997 117.1959992 108.8374990  35.6159997
 114.4889992 109.7174990  37.2919997 113.8259992 109.3564990  38.0629997
 113.9449992 109.9834990  36.3979997 114.7979992 110.6634990  37.7119997
 116.6369992 104.8394990  36.1109997 114.3869992 103.6114990  36.3709997
 114.6149992 104.4274990  40.5329997 113.8789992 103.3164990  40.3489997
 114.2609992 102.1344990  40.2879997 112.4649992 103.7254990  40.1369997
 112.1669992 103.6404990  39.0699997 112.3309992 104.8004990  40.3869997
 111.2579992 102.9234990  40.6889997 111.3959992 101.8204990  40.6869997
 110.4789992 103.0894990  39.9149997 110.7589992 103.5774990  42.0089997
 109.7629992 103.0934990  42.1069997 110.5769992 104.6614990  41.8439997
 111.7779992 103.4184990  43.1499997 111.5489992 104.2884990  43.8019997
 112.8239992 103.5874990  42.8149997 111.5569992 102.1704990  44.0189997
 111.3339992 101.3634990  43.2879997 110.6729992 102.2634990  44.6849997
 112.8289992 101.8104990  44.8389997 113.7489992 101.7194990  44.2229997
 112.7029992 100.7914990  45.2629997 113.2219992 102.6874990  46.0379997
 113.5039992 103.6984990  45.6729997 114.1479992 102.1404990  46.3139997
 112.3589992 102.8504990  47.2599997 111.4479992 103.4424990  47.0879997
 112.6229992 102.3614990  48.4999997 111.9319992 102.5944990  49.3229997
 113.7739992 101.4654990  49.0249997 114.7079992 101.6894990  48.4669997
 113.4049992 100.4234990  48.9089997 114.1169992 101.7534990  50.5149997
 115.1349992 101.3354990  50.6709997 113.3789992 101.2684990  51.1889997
 114.2769992 103.2494990  50.8369997 113.3309992 103.7904990  50.6239997
 114.8689992 103.6624990  49.9919997 114.7759992 103.6534990  52.2419997
 115.0969992 104.7104990  52.1299997 115.6919992 103.1124990  52.5609997
 113.6909992 103.7274990  53.3999997 113.4239992 102.6584990  53.5399997
 112.7039992 104.1824990  53.1669997 114.0909992 104.3194990  54.7369997
 114.9129992 105.0484990  54.5729997 114.6179992 103.5514990  55.3419997
 113.0009992 104.9454990  55.6859997 112.2989992 104.1234990  55.9379997
 112.3979992 105.7374990  55.1909997 113.7269992 105.4314990  56.9339997
 114.3729992 106.3004990  56.6829997 114.4089992 104.6614990  57.3539997
 113.0039992 105.5614990  57.7679997  98.6309992  15.3964990  56.9649997
  97.5799992  15.7404990  57.0679997  99.0429992  15.2564990  57.9869997
  98.6529992  14.3944990  56.4869997  99.4959992  16.4034990  56.2139997
  99.4569992  17.3624990  56.7739997 100.5279992  15.9954990  56.1659997
  99.0639992  16.6584990  54.8369997  98.9339992  15.7414990  54.2229997
  98.0899992  17.1734990  54.9759997 100.0299992  17.5734990  54.0249997
  99.5929992  17.5754990  53.0039997 100.0229992  18.5444990  54.5659997
 101.4829992  16.9954990  53.8539997 102.0819992  16.8824990  54.7819997
 101.3489992  15.9804990  53.4219997 102.3829992  17.7174990  52.8479997
 102.4259992  18.7534990  53.2469997 103.3649992  17.1984990  52.8819997
 101.8829992  17.7504990  51.3839997 101.4469992  16.7694990  51.0979997
 100.9649992  18.3764990  51.3849997 102.7839992  18.4634990  50.2919997
 103.1329992  19.4644990  50.6229997 103.6769992  17.8224990  50.1319997
 102.0999992  18.7974990  48.9309997 101.2829992  18.0634990  48.7619997
 101.5699992  19.7704990  49.0149997 103.1049992  18.8184990  47.7629997
 103.9719992  19.5084990  47.8369997 103.4519992  17.7694990  47.6459997
 102.5529992  19.2494990  46.3389997 101.8749992  18.4294990  46.0189997
 102.0199992  20.2234990  46.2849997 103.7039992  19.5124990  45.3009997
 104.1339992  20.4414990  45.7339997 104.3819992  18.6334990  45.2639997
 103.0699992  19.7524990  43.9169997 102.5029992  18.8584990  43.5799997
 102.3059992  20.5474990  44.0579997 104.0179992  20.1354990  42.7719997
 104.3929992  21.1794990  42.8349997 104.8839992  19.4484990  42.6669997
 103.3369992  20.1474990  41.3679997 102.6189992  20.9944990  41.3669997
 104.1159992  20.3594990  40.6049997 102.6919992  18.7674990  41.0629997
 103.4339992  17.7644990  40.9709997 101.4109992  18.8044990  41.0899997
 100.7969992  17.5654990  40.8519997 101.2419992  17.0604990  39.9679997
 101.0099992  16.8154990  41.6439997  99.2749992  17.6654990  40.5959997
  98.8559992  16.6364990  40.6089997  99.1429992  18.2174990  39.1339997
  99.4689992  17.3984990  38.4579997  98.0789992  18.4664990  38.9359997
  99.8929992  19.4024990  38.9469997  99.7129992  20.2094990  37.6189997
 101.1839992  20.0704990  36.8929997 102.2999992  19.9604990  37.7699997
 102.2599992  20.7664990  38.5339997 102.3249992  19.0404990  38.3919997
 103.5809992  19.8724990  36.9649997 104.4279992  19.6294990  37.5899997
 103.5329992  19.0844990  36.2269997 104.0759992  20.9894990  36.1069997
 104.1269992  22.2694990  36.8659997 104.7959992  22.2394990  37.7129997
 104.4329992  23.0254990  36.1569997 103.1619992  22.4284990  37.3239997
 105.4299992  20.6914990  35.4879997 105.8679992  21.5094990  34.9359997
 106.0279992  20.3684990  36.3279997 105.4079992  19.7934990  34.8889997
 103.0719992  21.2784990  35.0029997 102.9689992  20.3764990  34.4179997
 103.3739992  22.0134990  34.2719997 102.1309992  21.5454990  35.4619997
  98.6459992  19.5604990  36.8149997  99.4719992  21.6634990  37.9989997
  98.6639992  18.5054990  41.5649997  97.3279992  18.6074990  41.5969997
  96.5579992  17.9934990  40.9509997  96.9659992  19.6334990  42.6349997
  97.7899992  19.8264990  43.3549997  96.0909992  19.3644990  43.2659997
  96.7289992  20.9814990  41.8599997  96.1819992  21.7334990  42.4679997
  96.0229992  20.7344990  41.0379997  97.9409992  21.7734990  41.4309997
  97.4999992  22.6114990  40.8499997  98.5249992  21.1554990  40.7159997
  98.8929992  22.3014990  42.4429997  99.4879992  21.5254990  42.9699997
  98.2709992  22.8154990  43.2069997  99.9119992  23.3744990  41.8189997
  99.5149992  24.3674990  41.5199997 100.4149992  22.8724990  40.9649997
 101.2399992  23.6004990  42.7169997 101.7809992  24.2864990  42.0299997
 101.8319992  22.6624990  42.7759997 100.8379992  24.3224990  43.9739997
 100.4029992  23.5674990  44.6639997 100.0149992  25.0414990  43.7769997
 102.0299992  25.1394990  44.4399997 101.9779992  26.1394990  43.9859997
 103.0019992  24.6944990  45.2549997 103.8689992  25.3554990  45.4009997
 103.0549992  23.2514990  45.8529997 103.9839992  22.7494990  45.5059997
 102.2849992  22.6384990  45.3379997 103.0689992  22.9874990  47.4049997
 103.6169992  23.8754990  47.7859997 103.5439992  22.0124990  47.6439997
 101.5459992  22.9644990  47.9869997 101.0589992  22.1914990  47.3549997
 101.1389992  23.9314990  47.6229997 101.2769992  22.8934990  49.4499997
 101.3509992  23.8564990  49.9979997 101.9759992  22.1634990  49.9119997
  99.9059992  22.4224990  49.8789997  99.6869992  21.7134990  49.0519997
  99.0729992  23.1544990  49.8129997  99.8639992  21.7164990  51.2299997
 100.5159992  20.8184990  51.1789997  98.8329992  21.3214990  51.3489997
 100.3119992  22.5384990  52.4859997  99.9309992  23.5734990  52.6159997
 101.4019992  22.7204990  52.3679997 100.0179992  21.8774990  53.8139997
  98.9249992  21.7554990  53.9689997 100.4719992  22.5764990  54.5489997
 100.5289992  20.8974990  53.9309997 109.0129992  24.4314990  55.6389997
 109.8129992  23.7764990  56.0459997 108.0669992  23.9234990  55.9249997
 109.0969992  25.4544990  56.0649997 109.0049992  24.4744990  54.1199997
 108.0649992  24.9854990  53.8229997 109.7849992  25.1914990  53.7859997
 109.1979992  23.1274990  53.5359997 110.1979992  22.7794990  53.8719997
 108.4109992  22.4734990  53.9679997 109.1509992  23.1224990  51.9669997
 109.0889992  24.1774990  51.6249997 110.0779992  22.7014990  51.5219997
 108.0349992  22.3254990  51.3139997 108.2099992  21.2474990  51.1099997
 107.1129992  22.2024990  51.9229997 107.3949992  22.9704990  50.0879997
 106.3939992  22.5494990  49.8499997 107.0869992  24.0204990  50.2809997
 108.2659992  23.1034990  48.8049997 107.5569992  23.4044990  48.0049997
 108.9229992  23.9984990  48.8249997 108.9749992  21.8744990  48.2269997
 109.4759992  21.2504990  48.9969997 108.1939992  21.1464990  47.9179997
 109.9619992  22.0114990  47.0719997 110.6639992  22.8574990  47.2299997
 110.5979992  21.1004990  47.0879997 109.3379992  22.2414990  45.6789997
 108.9779992  21.2914990  45.2299997 108.4969992  22.9594990  45.7959997
 110.3209992  22.8774990  44.6279997 109.8049992  22.6804990  43.6639997
 110.3589992  23.9704990  44.8209997 111.6389992  22.2744990  44.5079997
 112.1939992  22.3504990  45.4669997 111.5399992  21.2134990  44.1949997
 112.6159992  22.9944990  43.5839997 112.0599992  23.2804990  42.6649997
 112.9219992  23.9734990  44.0099997 113.7249992  21.9384990  43.2039997
 114.6899992  22.4894990  43.2019997 113.9839992  21.1584990  43.9509997
 113.5289992  21.3054990  41.8149997 113.4559992  22.1394990  41.0839997
 114.5689992  20.9164990  41.7759997 112.4119992  20.2714990  41.7619997
 112.2109992  19.2394990  42.4169997 111.6629992  20.6794990  40.8089997
 110.2949992  20.2064990  40.7389997 110.3329992  19.1634990  40.3579997
 109.7969992  20.1414990  41.7299997 109.4499992  21.1724990  39.7619997
 108.3849992  20.8824990  39.6339997 110.2009992  21.2514990  38.3899997
 110.1369992  20.2374990  37.9409997 109.5739992  21.8944990  37.7359997
 111.5759992  21.7604990  38.3149997 111.8319992  23.2844990  37.8559997
 110.4339992  24.0774990  38.1489997 110.4159992  25.4544990  37.7799997
 109.6159992  26.0074990  38.3179997 111.3689992  25.9614990  38.0419997
 110.2049992  25.7464990  36.3099997 110.3709992  26.8064990  36.1839997
 110.9979992  25.3974990  35.6659997 108.7759992  25.4224990  35.8449997
 108.7809992  25.9564990  34.4359997 108.9839992  27.0164990  34.4139997
 109.5509992  25.5454990  33.7999997 107.7999992  26.0194990  33.9879997
 108.5429992  23.9274990  35.7819997 109.3669992  23.4224990  35.3009997
 108.5829992  23.4324990  36.7409997 107.6289992  23.7194990  35.2449997
 107.7069992  26.0704990  36.7539997 107.6569992  25.4814990  37.6569997
 106.7869992  25.9044990  36.2139997 107.7259992  27.1424990  36.8839997
 112.8159992  23.8154990  38.8339997 112.3079992  23.3304990  36.4109997
 109.3649992  22.4294990  40.4809997 108.5019992  23.3424990  40.0709997
 107.6829992  23.1664990  39.1679997 108.6859992  24.5534990  41.0659997
 109.3059992  25.3894990  40.6769997 109.1929992  24.1844990  41.9829997
 107.3889992  25.1844990  41.3609997 106.8219992  24.4304990  41.9469997
 106.8669992  25.2874990  40.3849997 107.4539992  26.6154990  41.8909997
 106.4719992  27.1354990  41.9189997 108.0299992  27.2734990  41.2059997
 108.1729992  26.6234990  43.2889997 108.7459992  27.5734990  43.2339997
 108.9509992  25.8324990  43.3449997 107.2499992  26.5934990  44.5069997
 107.0469992  25.5414990  44.7979997 106.2579992  26.9624990  44.1689997
 107.8909992  27.2274990  45.8009997 107.1759992  26.9704990  46.6119997
 107.9509992  28.3344990  45.7299997 109.1779992  26.4574990  46.2189997
 109.9769992  26.6854990  45.4809997 109.0049992  25.3614990  46.1649997
 109.5219992  26.9354990  47.6249997 108.6939992  26.6974990  48.3079997
 110.5279992  27.4844990  48.2659997 110.3129992  27.7954990  49.2989997
 111.9249992  27.9594990  47.8789997 112.3099992  28.9264990  48.2669997
 112.0179992  28.0174990  46.7739997 112.9659992  26.8614990  48.2249997
 113.9269992  27.3094990  47.8929997 112.8399992  25.8834990  47.7149997
 113.0319992  26.5354990  49.7549997 112.3799992  27.2404990  50.3139997
 114.0879992  26.7604990  50.0149997 112.5219992  25.1344990  50.2249997
 112.7579992  24.4164990  49.4109997 111.4189992  25.2344990  50.3199997
 113.2199992  24.8254990  51.5819997 114.3089992  24.6154990  51.5139997
 112.8319992  23.8074990  51.8009997 112.9019992  25.7614990  52.7509997
 111.8079992  25.8764990  52.9109997 113.3049992  26.7374990  52.4069997
 113.4339992  25.3754990  54.1479997 113.4439992  26.3394990  54.6999997
 114.4319992  24.9504990  53.9059997 112.6749992  24.3734990  55.0139997
 112.2259992  23.6064990  54.3479997 111.8859992  24.9034990  55.5899997
 113.3649992  23.8414990  55.7029997  17.9499992  85.4694990  57.4959997
  18.1939992  86.0684990  58.3989997  18.6339992  85.8034990  56.6859997
  18.1809992  84.3974990  57.6709997  16.4819992  85.5014990  57.2089997
  16.1499992  84.6924990  56.5229997  15.8529992  85.3934990  58.1179997
  15.8899992  86.7884990  56.6249997  14.7859992  86.6744990  56.5829997
  16.1399992  87.6354990  57.2999997  16.3149992  87.0384990  55.1849997
  15.8669992  88.0464990  55.0489997  17.4179992  87.1474990  55.1149997
  15.7649992  86.0424990  54.1929997  16.0409992  86.3734990  53.1689997
  16.2579992  85.0624990  54.3689997  14.2139992  85.7414990  54.2179997
  14.0959992  85.1034990  55.1199997  13.5869992  86.6584990  54.2409997
  13.8299992  84.7634990  53.0499997  14.3089992  83.7614990  53.0769997
  12.7539992  84.5214990  53.1829997  14.0049992  85.2314990  51.5979997
  13.7029992  86.2834990  51.4099997  15.0489992  85.0704990  51.2549997
  13.1259992  84.3704990  50.5569997  13.7619992  83.4794990  50.3659997
  12.1629992  84.0884990  51.0329997  12.6509992  85.0804990  49.3149997
  11.9009992  85.8624990  49.5599997  13.4879992  85.6584990  48.8689997
  11.9879992  84.2754990  48.1769997  11.0579992  83.7794990  48.5299997
  11.6349992  85.0784990  47.4959997  12.8329992  83.1984990  47.5689997
  13.1189992  82.4784990  48.3659997  12.2329992  82.6024990  46.8479997
  14.0649992  83.7784990  46.8589997  13.7859992  84.7874990  46.4859997
  14.8449992  83.8684990  47.6439997  14.5819992  82.8874990  45.7339997
  14.7909992  81.8774990  46.1489997  13.8139992  82.7644990  44.9399997
  15.9229992  83.4494990  45.2329997  16.5959992  83.7144990  46.0759997
  16.3679992  82.6694990  44.5789997  15.8139992  84.7614990  44.4709997
  15.8349992  85.9134990  44.9189997  15.5669992  84.5424990  43.1249997
  15.3029992  85.6344990  42.2429997  14.3329992  85.5644990  41.7049997
  15.3649992  86.6124990  42.7649997  16.2699992  85.5854990  41.0519997
  16.1139992  86.5464990  40.5159997  16.0179992  84.3154990  40.1479997
  15.8449992  83.5634990  40.9479997  15.1259992  84.4314990  39.4949997
  17.2349992  83.8844990  39.4769997  17.8599992  84.4134990  38.1149997
  16.6299992  84.3084990  37.1089997  16.1409992  82.9864990  36.8499997
  16.3779992  82.6484990  35.8189997  16.4149992  82.2124990  37.5989997
  14.5499992  83.1394990  36.9299997  14.1579992  82.1334990  36.8839997
  14.4569992  83.6204990  37.8919997  13.8579992  83.9584990  35.8599997
  12.3769992  84.0244990  36.0249997  11.9169992  83.0484990  35.9859997
  12.3769992  84.6384990  36.9129997  11.9249992  84.6914990  35.3059997
  14.2729992  85.4324990  35.8169997  13.7689992  85.8714990  34.9689997
  13.8989992  85.9354990  36.6969997  15.3439992  85.4934990  35.6959997
  14.1419992  83.2974990  34.5139997  13.7189992  82.3044990  34.5649997
  15.1279992  83.2064990  34.0849997  13.5759992  83.9484990  33.8649997
  18.1909992  85.8664990  38.2389997  18.8569992  83.4614990  37.5349997
  17.6679992  85.5494990  41.4599997  18.2779992  86.5524990  42.0789997
  17.7259992  87.6184990  42.2859997  19.6519992  86.2144990  42.7509997
  20.3249992  87.0984990  42.7819997  20.2099992  85.4514990  42.1679997
  19.4879992  85.7314990  44.1669997  18.7879992  84.8724990  44.0869997
  18.9679992  86.4744990  44.8079997  20.7969992  85.2514990  44.7319997
  21.4839992  86.0994990  44.9439997  21.4059992  84.6394990  44.0329997
  20.7469992  84.3484990  45.9329997  21.7469992  84.2984990  46.4129997
  20.5889992  83.2994990  45.6009997  19.6869992  84.7064990  47.0079997
  18.7249992  84.8524990  46.4729997  20.0049992  85.6814990  47.4349997
  19.4699992  83.5974990  48.0979997  20.4189992  83.6384990  48.6739997
  19.6229992  82.6744990  47.4989997  18.1899992  83.6424990  48.8609997
  18.0549992  82.6704990  49.3819997  17.3299992  83.5244990  48.1669997
  17.9459992  84.9924990  49.5179997  17.0679992  85.5224990  49.1209997
  18.6599992  85.5394990  50.5249997  18.1829992  86.4544990  50.9059997
  19.8979992  84.9364990  51.2249997  20.8029992  85.5084990  50.9309997
  20.1029992  83.9434990  50.7709997  19.9639992  84.9314990  52.7709997
  19.8909992  85.8474990  53.3959997  20.9609992  84.5084990  53.0199997
  19.0509992  83.8794990  53.4639997  18.0049992  84.2464990  53.3989997
  19.2339992  83.8894990  54.5599997  19.0329992  82.4264990  53.0089997
  20.0669992  82.1624990  52.6999997  18.3179992  82.4424990  52.1589997
  18.5929992  81.4114990  54.1509997  19.3459992  81.4874990  54.9639997
  18.5359992  80.3934990  53.7099997  17.1639992  81.6174990  54.7149997
  17.0249992  82.5724990  55.2659997  17.1209992  80.8004990  55.4669997
  15.8699992  81.4824990  53.7839997  15.8539992  80.4624990  53.3429997
  15.8749992  82.2394990  52.9709997  14.5539992  81.7414990  54.6339997
  14.3999992  81.0004990  55.4469997  13.7109992  81.6174990  53.9199997
  14.5089992  82.7624990  55.0709997  92.4549992  16.9274990  54.6929997
  92.7549992  15.8844990  54.4579997  91.3899992  17.2424990  54.6689997
  92.6609992  17.0454990  55.7779997  93.2919992  17.8844990  53.9039997
  93.0459992  18.9424990  54.1369997  94.3709992  17.7124990  54.1019997
  93.1539992  17.7204990  52.4009997  93.2699992  16.6414990  52.1619997
  92.1809992  18.1274990  52.0509997  94.2449992  18.4914990  51.6059997
  93.8649992  19.5244990  51.7559997  95.2279992  18.1974990  52.0329997
  94.2449992  18.2954990  50.0389997  94.4949992  17.2484990  49.7649997
  93.2149992  18.5194990  49.6889997  95.1999992  19.2604990  49.3199997
  94.8539992  20.2554990  49.6719997  96.2429992  19.0554990  49.6439997
  95.1019992  19.1904990  47.8219997  94.0149992  19.2094990  47.5929997
  95.4409992  20.1534990  47.3849997  95.7409992  17.9804990  47.1439997
  96.7869992  18.0204990  47.5179997  95.2769992  16.9914990  47.3449997
  95.8479992  18.1914990  45.5789997  96.4829992  17.3344990  45.2689997
  94.9369992  18.0594990  44.9559997  96.7789992  19.3764990  45.1709997
  96.1889992  20.3174990  45.1409997  97.5699992  19.5824990  45.9229997
  97.4149992  19.0244990  43.8339997  96.5539992  18.5724990  43.2969997
  97.7519992  19.9514990  43.3229997  98.5989992  18.0324990  43.8169997
  99.2769992  18.3234990  44.6469997  98.1799992  17.0764990  44.1999997
  99.2819992  17.9764990  42.5149997  98.7849992  18.6164990  41.7559997
 100.3279992  18.2904990  42.7209997  99.4209992  16.5374990  41.9469997
 100.4119992  16.1024990  42.1969997  98.6149992  15.8764990  42.3289997
  99.3869992  16.6014990  40.4859997  98.4749992  17.0544990  40.0409997
 100.2159992  17.2214990  40.0819997  99.4649992  15.2444990  39.7799997
  99.5109992  14.1954990  40.3389997  99.6009992  15.3814990  38.4849997
  99.5079992  14.2154990  37.6389997  99.9859992  14.4894990  36.6739997
 100.0509992  13.3624990  38.0999997  98.0129992  13.7664990  37.3659997
  98.0419992  12.9614990  36.5999997  97.2029992  14.9234990  36.6129997
  97.6929992  14.9624990  35.6159997  96.1939992  14.4984990  36.4229997
  97.2799992  16.2134990  37.2199997  96.2059992  16.9514990  38.1219997
  94.8649992  16.4904990  37.3569997  94.5029992  17.0424990  36.0889997
  94.0719992  18.0624990  36.1839997  95.4319992  17.0974990  35.4819997
  93.5029992  16.1724990  35.2949997  92.9429992  16.7544990  34.5789997
  94.1779992  15.5204990  34.7589997  92.4989992  15.3424990  36.0439997
  93.1919992  14.0924990  36.5919997  93.8959992  14.4484990  37.3299997
  92.4889992  13.3504990  36.9409997  93.7659992  13.6414990  35.7959997
  91.8869992  16.2034990  37.1249997  91.3229992  17.0264990  36.7099997
  91.1279992  15.6094990  37.6129997  92.6759992  16.5454990  37.7779997
  91.3209992  14.9284990  35.0989997  91.7719992  14.3264990  34.3239997
  90.9249992  15.8984990  34.8369997  90.5199992  14.3664990  35.5539997
  96.2479992  16.3894990  39.4949997  96.2919992  18.4554990  38.0349997
  97.3299992  13.3604990  38.5509997  96.2899992  12.5674990  38.4699997
  95.8809992  11.9914990  37.4839997  95.5959992  12.4164990  39.8489997
  96.2139992  12.8924990  40.6409997  95.5019992  11.3334990  40.0779997
  94.1149992  13.0164990  39.8639997  93.4989992  12.5994990  39.0379997
  94.1999992  14.0894990  39.5899997  93.3779992  12.9504990  41.2509997
  93.6029992  11.9304990  41.6299997  92.2729992  13.0584990  41.2149997
  93.7949992  14.1004990  42.2869997  93.4599992  15.1334990  42.0529997
  94.8889992  14.0094990  42.1139997  93.4059992  13.7574990  43.6709997
  92.3489992  13.6804990  44.0039997  93.7349992  14.7064990  44.1459997
  94.3849992  12.7904990  44.3239997  95.4329992  12.9134990  43.9749997
  94.1279992  11.7424990  44.0589997  94.5659992  12.9294990  45.8919997
  93.6019992  12.6054990  46.3399997  94.6269992  13.9694990  46.2779997
  95.7329992  12.1504990  46.5379997  95.3639992  11.1894990  46.9249997
  97.0339992  12.6314990  46.5749997  97.7199992  12.0194990  47.1789997
  97.6109992  13.9334990  46.0459997  97.0639992  14.1854990  45.1129997
  98.6659992  13.9124990  45.6999997  97.3369992  14.9894990  46.9979997
  96.3199992  15.1074990  47.4309997  97.5839992  15.9694990  46.5379997
  98.3119992  14.8484990  48.2409997  98.5769992  15.8534990  48.6329997
  99.2169992  14.3024990  47.8989997  97.8159992  13.8574990  49.3459997
  98.6729992  13.7744990  50.0489997  97.7239992  12.7944990  49.0359997
  96.5539992  14.2944990  50.1399997  95.5999992  13.8864990  49.7409997
  96.5029992  15.4004990  50.0549997  96.6369992  13.9804990  51.6509997
  97.5419992  14.5524990  51.9489997  96.7669992  12.9044990  51.8939997
  95.4949992  14.5824990  52.5069997  94.5779992  14.3614990  51.9209997
  95.7389992  15.6644990  52.5769997  95.4559992  14.1764990  53.9699997
  95.3549992  13.0724990  54.0459997  94.6009992  14.6504990  54.4969997
  96.3249992  14.5484990  54.5529997 103.6109992 115.7434990  55.0889997
 104.4599992 115.6324990  54.3809997 104.0119992 115.6354990  56.1189997
 103.2639992 116.7984990  55.0419997 102.5169992 114.8644990  54.6529997
 103.1539992 113.9544990  54.6859997 101.8989992 114.7104990  55.5639997
 101.7759992 115.1984990  53.3749997 101.2649992 116.1834990  53.4229997
 102.5869992 115.3424990  52.6309997 100.9079992 114.0894990  52.8079997
 101.1359992 113.0164990  52.9819997  99.9019992 114.3244990  53.2169997
 100.7079992 114.1504990  51.2869997 100.8279992 115.2244990  51.0299997
 101.5389992 113.5694990  50.8329997  99.3879992 113.7764990  50.8509997
  99.1699992 112.7724990  51.2739997  98.5499992 114.4114990  51.2119997
  99.1219992 113.6044990  49.3739997  99.5869992 114.4584990  48.8359997
  99.7449992 112.7644990  48.9989997  97.6549992 113.5014990  48.9099997
  97.1139992 112.7124990  49.4749997  97.2579992 114.5004990  49.1909997
  97.4879992 113.2124990  47.3629997  98.2679992 112.4954990  47.0279997
  96.4279992 112.9464990  47.1649997  97.8689992 114.3754990  46.4579997
  96.9439992 114.9804990  46.3389997  98.6739992 114.9634990  46.9479997
  98.5039992 113.9464990  45.0829997  99.1569992 113.0894990  45.3559997
  97.7409992 113.4874990  44.4179997  99.3489992 115.0314990  44.4209997
 100.0649992 115.3964990  45.1869997 100.0089992 114.4634990  43.7309997
  98.6649992 116.1904990  43.6839997  98.1199992 115.6944990  42.8529997
  97.9849992 116.5264990  44.4959997  99.6759992 117.2014990  43.3499997
 100.4069992 117.4754990  44.1409997 100.4249992 116.7714990  42.6519997
  99.2229992 118.5814990  42.7389997  98.5069992 118.3114990  41.9329997
  98.7399992 119.1754990  43.5439997 100.4079992 119.3264990  42.1019997
 101.4149992 119.7264990  42.7049997 100.2379992 119.4514990  40.7589997
 101.4549992 119.6744990  40.0299997 101.2089992 119.9084990  38.9719997
 102.0909992 120.4594990  40.4919997 102.3769992 118.4074990  39.8119997
 103.3209992 118.8184990  39.3929997 101.6669992 117.4444990  38.7679997
 101.2599992 118.0604990  37.9379997 102.3209992 116.6274990  38.3939997
 100.5079992 116.7234990  39.3719997 100.3859992 115.1904990  39.3799997
 100.0989992 114.9364990  37.8409997  99.0089992 115.4264990  37.0589997
  98.0559992 115.2774990  37.6089997  99.0039992 116.5284990  36.9199997
  98.9379992 114.8294990  35.6369997  98.9389992 113.7554990  35.7499997
  97.9359992 115.0194990  35.2809997  99.8739992 115.1614990  34.5719997
 100.0779992 116.6614990  34.3749997 100.3369992 117.0774990  35.3369997
 100.8849992 116.9064990  33.6999997  99.1889992 117.1124990  33.9589997
 101.2579992 114.5804990  34.9129997 101.3419992 114.7614990  35.9739997
 101.2699992 113.5294990  34.6669997 102.0029992 115.1444990  34.3719997
  99.3529992 114.4374990  33.3409997  98.5539992 115.1184990  33.0879997
  98.8889992 113.5024990  33.6159997 100.1299992 114.3084990  32.6019997
 101.4959992 114.3794990  39.9469997  99.0979992 114.8584990  40.0349997
 102.5019992 117.7374990  41.0559997 103.7099992 117.2614990  41.3189997
 104.7399992 117.5234990  40.7119997 103.6019992 116.2194990  42.5249997
 104.4729992 115.5324990  42.5929997 102.6629992 115.6284990  42.5659997
 103.6649992 117.1024990  43.7619997 102.6239992 117.4304990  43.9699997
 104.4259992 117.9094990  43.6959997 103.9799992 116.3034990  44.9869997
 105.0259992 115.9774990  44.8019997 103.2979992 115.4344990  45.1049997
 103.8719992 117.0494990  46.3119997 103.9619992 118.1414990  46.1269997
 104.6639992 116.6814990  46.9989997 102.5839992 116.8594990  47.0079997
 102.3539992 115.7754990  47.0899997 101.7909992 117.4284990  46.4779997
 102.7439992 117.2914990  48.4899997 103.4419992 118.1554990  48.4689997
 103.3449992 116.6074990  49.1259997 101.4919992 117.5284990  49.2989997
 101.7149992 117.4454990  50.3839997 100.8599992 116.6584990  49.0159997
 100.8789992 118.8674990  48.9719997 101.6039992 119.6944990  48.9799997
  99.5719992 119.0924990  48.6579997  99.1819992 120.0734990  48.3469997
  98.5109992 118.0034990  48.5879997  98.8299992 117.2594990  47.8269997
  97.6619992 118.6064990  48.2009997  97.9939992 117.3674990  49.9219997
  98.7719992 116.6114990  50.1609997  96.9939992 116.9044990  49.7779997
  97.8549992 118.2254990  51.1739997  97.0869992 119.0264990  51.1259997
  98.8339992 118.7404990  51.2719997  97.7659992 117.3484990  52.3919997
  98.6389992 116.6944990  52.6019997  97.0149992 116.5304990  52.3539997
  97.4299992 118.2194990  53.5789997  96.3729992 118.5294990  53.4359997
  98.0449992 119.1274990  53.4029997  97.3549992 117.4864990  54.9109997
  98.3789992 117.4224990  55.3359997  96.7119992 116.5844990  54.8279997
  96.6059992 118.3494990  55.8849997  96.4739992 117.7644990  56.8199997
  95.5689992 118.5474990  55.5389997  97.2419992 119.6894990  56.3709997
  96.6489992 120.2564990  57.1199997  97.4259992 120.4714990  55.6039997
  98.2289992 119.4314990  56.8109997 109.0749992 113.3464990  57.5349997
 109.6929992 112.5434990  57.0799997 108.4699992 112.9844990  58.3939997
 109.8229992 114.1354990  57.7659997 108.1129992 113.8304990  56.4859997
 107.6089992 114.7264990  56.9059997 108.7279992 114.0874990  55.5969997
 107.2019992 112.7634990  55.8479997 107.7719992 111.8884990  55.4679997
 106.5479992 112.3304990  56.6349997 106.3699992 113.2114990  54.5979997
 105.8699992 114.1724990  54.8429997 106.9089992 113.4894990  53.6669997
 105.3859992 112.1794990  54.1139997 105.9529992 111.2274990  54.2039997
 104.5179992 112.2594990  54.8019997 104.9299992 112.3364990  52.6419997
 104.5509992 113.3494990  52.3859997 105.7639992 112.1674990  51.9289997
 103.7429992 111.4524990  52.1639997 102.8099992 111.7264990  52.7009997
 103.4999992 111.7414990  51.1189997 104.0139992 109.9154990  52.3289997
 104.3259992 109.6764990  53.3679997 103.1539992 109.2284990  52.1839997
 105.2849992 109.4284990  51.4689997 106.1289992 110.0394990  51.8539997
 105.6219992 108.4064990  51.7459997 105.1039992 109.4284990  49.9489997
 105.1219992 110.5044990  49.6739997 106.0189992 108.9944990  49.4929997
 103.9339992 108.6354990  49.3909997 103.6669992 107.7184990  49.9589997
 103.0159992 109.2594990  49.4369997 104.2079992 108.2284990  47.8479997
 105.0949992 107.5644990  47.7669997 103.2969992 107.7204990  47.4639997
 104.3729992 109.4884990  47.0349997 103.7169992 110.2864990  47.4449997
 105.4229992 109.8494990  47.0729997 104.0229992 109.2334990  45.5519997
 104.6689992 108.3454990  45.3869997 102.9409992 108.9964990  45.4599997
 104.4819992 110.4034990  44.6409997 104.0129992 111.2774990  45.1409997
 105.5909992 110.4444990  44.6059997 103.8769992 110.3404990  43.2579997
 103.0139992 109.4894990  42.9869997 104.4369992 111.2274990  42.4699997
 104.1429992 111.0994990  41.0429997 104.3879992 110.0904990  40.6469997
 103.0689992 111.3584990  40.9319997 104.9929992 112.0914990  40.1199997
 104.6539992 113.1144990  40.3929997 104.6619992 111.9844990  38.5879997
 104.8909992 110.9364990  38.2979997 103.5959992 112.2654990  38.4519997
 105.3119992 112.9564990  37.8449997 106.1299992 112.6204990  36.5209997
 107.0549992 111.4204990  37.0769997 107.8639992 110.9214990  36.0469997
 107.2979992 110.8414990  35.0949997 108.4529992 111.8394990  35.8359997
 108.5919992 109.5704990  36.4059997 107.7939992 108.9274990  36.7469997
 109.0609992 109.0694990  35.5729997 109.6039992 109.5564990  37.4639997
 109.0299992 110.0274990  38.8379997 108.7939992 111.0804990  38.7989997
 108.2679992 109.4074990  39.2879997 109.8159992 109.9764990  39.5759997
 109.9359992 108.0934990  37.6639997 110.3939992 107.5424990  36.8559997
 110.7429992 108.0704990  38.3819997 109.0089992 107.6814990  38.0349997
 110.8409992 110.3654990  37.0749997 111.2399992 109.9174990  36.1769997
 111.5069992 110.3334990  37.9249997 110.4479992 111.3464990  36.8499997
 105.1919992 111.9544990  35.5319997 106.9329992 113.7824990  36.0029997
 106.3489992 111.7354990  40.3239997 106.9979992 112.6024990  41.0889997
 106.6069992 113.7454990  41.2899997 108.3679992 112.0414990  41.3039997
 109.0699992 112.4744990  40.5599997 108.3199992 110.9334990  41.2449997
 109.0299992 112.5324990  42.6049997 108.8629992 113.6274990  42.6869997
 110.1259992 112.4004990  42.4799997 108.6189992 111.7234990  43.8519997
 108.1579992 110.7724990  43.5079997 107.7459992 112.1714990  44.3719997
 109.7629992 111.6174990  44.8539997 109.9319992 112.5874990  45.3689997
 110.7479992 111.4394990  44.3719997 109.5999992 110.4054990  45.8189997
 109.6779992 109.5444990  45.1209997 108.6289992 110.3954990  46.3579997
 110.6529992 110.3564990  46.8849997 111.6329992 110.6224990  46.4339997
 110.6319992 109.4054990  47.4589997 110.4799992 111.5394990  47.9109997
 110.6239992 112.5304990  47.4279997 111.3499992 111.3724990  48.5809997
 109.2889992 111.6284990  48.8189997 108.4389992 112.1274990  48.3309997
 109.1369992 110.9294990  49.9969997 108.2019992 111.1174990  50.5439997
 110.1019992 109.8524990  50.6469997 110.9129992 109.8234990  49.8879997
 109.5339992 108.8974990  50.6339997 110.6959992 109.9814990  52.0849997
 111.1189992 111.0054990  52.0059997 111.3689992 109.1694990  52.4329997
 109.6149992 110.1804990  53.1939997 108.9439992 111.0374990  52.9699997
 110.2899992 110.3594990  54.0579997 108.8209992 108.9014990  53.4209997
 109.5939992 108.1044990  53.3859997 108.0569992 108.5964990  52.6749997
 108.1319992 108.7864990  54.8839997 107.9759992 107.6924990  55.0039997
 107.1899992 109.3494990  54.7159997 108.9259992 109.2054990  56.1159997
 109.1129992 110.3004990  56.0839997 109.8379992 108.5944990  55.9459997
 108.2759992 108.8764990  57.4389997 108.0489992 107.7904990  57.3919997
 107.2759992 109.3604990  57.4029997 109.1269992 109.3584990  58.6039997
 110.1449992 108.9144990  58.5809997 108.7359992 108.9444990  59.5569997
 109.1129992 110.4544990  58.7849997  44.3669992 120.3734990  54.9439997
  44.6839992 119.3184990  54.8019997  43.5619992 120.4464990  55.7059997
  45.2549992 120.8764990  55.3819997  43.9609992 120.9064990  53.6349997
  43.0539992 120.4054990  53.2339997  43.6359992 121.9684990  53.6529997
  45.0519992 120.8434990  52.5169997  46.0419992 121.0384990  52.9819997
  45.0699992 119.8184990  52.0899997  44.8129992 121.8594990  51.3709997
  43.9689992 121.4914990  50.7499997  44.4999992 122.8484990  51.7689997
  46.0399992 122.0034990  50.4889997  46.8179992 122.6154990  50.9939997
  46.3919992 120.9494990  50.4939997  45.6559992 122.5004990  49.0959997
  44.9469992 121.7604990  48.6669997  45.0929992 123.4584990  49.1259997
  46.7739992 122.5744990  48.0129997  47.5579992 121.8194990  48.2349997
  46.3509992 122.4334990  46.9959997  47.5509992 123.8964990  48.0089997
  46.9309992 124.7544990  47.6719997  47.7449992 124.2424990  49.0469997
  48.8439992 123.7954990  47.2319997  49.6379992 123.4794990  47.9419997
  48.5809992 122.9924990  46.5109997  49.2799992 125.0824990  46.4379997
  49.1879992 125.9074990  47.1769997  50.3459992 125.0734990  46.1269997
  48.3329992 125.4014990  45.1999997  47.2889992 125.0684990  45.3849997
  48.4149992 126.5084990  45.1629997  48.9069992 124.8494990  43.8599997
  48.2389992 125.3044990  43.0979997  49.9289992 125.2504990  43.6859997
  48.8919992 123.3184990  43.9189997  49.6889992 122.8894990  44.5629997
  47.9649992 122.8664990  44.3319997  49.0979992 122.8034990  42.5389997
  48.2439992 123.0874990  41.8879997  50.0449992 123.2554990  42.1719997
  49.1649992 121.2244990  42.6469997  49.6569992 120.9134990  41.6999997
  49.7829992 120.9554990  43.5309997  47.7569992 120.5364990  42.7149997
  47.3289992 119.9264990  43.6949997  47.2039992 120.5824990  41.4949997
  45.8739992 120.0884990  41.3859997  45.8409992 119.2894990  40.6149997
  45.5049992 119.6534990  42.3399997  44.9449992 121.2254990  40.9499997
  43.8599992 120.9854990  40.9319997  45.2329992 121.7384990  39.4599997
  45.0439992 120.9914990  38.6589997  44.5309992 122.5514990  39.1769997
  46.5919992 122.0324990  39.2559997  47.0959992 123.5174990  39.1539997
  46.6039992 123.8654990  37.6509997  46.9159992 122.8924990  36.6539997
  48.0069992 122.7114990  36.5459997  46.3769992 121.9314990  36.7969997
  46.3719992 123.3164990  35.2989997  46.8609992 122.7734990  34.5039997
  45.3449992 122.9824990  35.3029997  46.3889992 124.8134990  34.9039997
  45.9239992 124.7954990  33.4009997  45.7399992 125.8224990  33.1219997
  46.7389992 124.4124990  32.8049997  45.0049992 124.2384990  33.2879997
  45.3529992 125.5814990  35.6739997  44.4149992 125.0984990  35.4449997
  45.4619992 125.6834990  36.7439997  45.2369992 126.6124990  35.3729997
  47.8269992 125.3224990  35.1069997  48.5129992 124.6844990  34.5699997
  48.0859992 125.3994990  36.1529997  47.9249992 126.2624990  34.5839997
  46.3909992 124.3724990  40.1309997  48.5609992 123.5294990  39.2399997
  45.0199992 122.3864990  41.7779997  44.5099992 122.2844990  43.0439997
  44.1509992 121.2894990  43.5979997  44.4159992 123.6764990  43.6999997
  45.4069992 123.9684990  44.1069997  43.6319992 123.6264990  44.4859997
  43.8949992 124.7154990  42.6229997  42.8359992 124.5324990  42.3429997
  44.2339992 124.5974990  41.5719997  44.0439992 126.1684990  43.1869997
  43.5719992 126.2044990  44.1919997  43.4859992 126.8554990  42.5149997
  45.4819992 126.5484990  43.3539997  46.0869992 126.2044990  42.4879997
  45.8609992 126.1084990  44.3019997  45.7599992 128.0554990  43.4609997
  45.4329992 128.4644990  42.4809997  46.8289992 128.1344990  43.7519997
  45.0079992 128.7084990  44.6429997  43.9619992 128.5744990  44.2939997
  45.1479992 129.8094990  44.6959997  45.0989992 128.0914990  46.0219997
  46.1749992 128.0094990  46.2859997  45.0079992 126.9844990  46.0229997
  44.1729992 128.4704990  47.1199997  43.0899992 128.4784990  46.9249997
  44.6139992 129.0394990  48.3399997  43.9189992 129.4854990  49.0669997
  46.0389992 129.2974990  48.6999997  46.2059992 130.3844990  48.8619997
  46.8219992 128.8644990  48.0419997  46.4069992 128.6554990  50.0409997
  45.8279992 129.1564990  50.8459997  47.4839992 128.9084990  50.1379997
  46.1939992 127.1284990  50.0979997  46.3749992 126.6714990  49.1019997
  45.1269992 126.9294990  50.3379997  47.0859992 126.3304990  51.0859997
  48.1579992 126.5564990  50.9009997  46.9859992 125.2364990  50.9179997
  46.8329992 126.6694990  52.4829997  45.7419992 126.4904990  52.5959997
  47.0479992 127.7524990  52.6029997  47.6479992 125.9424990  53.5699997
  48.6849992 125.6974990  53.2549997  47.2089992 124.9734990  53.8869997
  47.8329992 126.7254990  54.8879997  48.1569992 127.7804990  54.7609997
  48.7319992 126.2264990  55.3089997  46.7309992 126.6934990  55.9379997
  47.0019992 127.3804990  56.7669997  46.6489992 125.6624990  56.3429997
  45.7789992 127.0534990  55.4919997 120.4059992  29.3314990  57.5559997
 121.4859992  29.5894990  57.5859997 120.1029992  28.5144990  58.2449997
 119.8689992  30.2114990  57.9719997 119.8879992  28.9344990  56.1959997
 120.5599992  28.1924990  55.7139997 118.9719992  28.3134990  56.2889997
 119.7359992  30.0984990  55.1389997 118.9399992  30.7784990  55.5119997
 120.7089992  30.6034990  55.3189997 119.3629992  29.5524990  53.7269997
 120.2049992  28.8804990  53.4529997 118.3999992  29.0004990  53.7409997
 119.1189992  30.6704990  52.6899997 118.2669992  31.2824990  53.0579997
 120.0669992  31.2444990  52.7689997 119.1409992  30.2634990  51.2359997
 119.9319992  29.5064990  51.0439997 118.1519992  29.7934990  51.0499997
 119.1319992  31.4564990  50.2459997 118.2719992  32.1534990  50.3349997
 120.0139992  32.0994990  50.4569997 119.1389992  30.9214990  48.7559997
 120.0669992  30.3274990  48.6149997 118.2109992  30.3234990  48.6289997
 119.0089992  31.9704990  47.6509997 117.9249992  32.2144990  47.6559997
 119.5419992  32.8964990  47.9569997 119.4319992  31.6634990  46.2339997
 119.1679992  32.4354990  45.4799997 120.5239992  31.4694990  46.1689997
 118.8039992  30.4304990  45.6769997 119.2909992  30.3504990  44.6809997
 119.0359992  29.5254990  46.2769997 117.2579992  30.5344990  45.6079997
 116.8739992  30.9934990  46.5439997 116.9679992  31.2704990  44.8279997
 116.4279992  29.2684990  45.2939997 116.8569992  28.8714990  44.3489997
 116.5229992  28.5044990  46.0949997 114.9479992  29.6584990  45.2899997
 114.4419992  28.7564990  44.8829997 114.5509992  29.9974990  46.2709997
 114.4609992  30.7994990  44.3649997 113.3659992  30.8344990  44.1829997
 114.6889992  31.8304990  44.7109997 115.0299992  30.4844990  42.9519997
 114.8159992  29.4904990  42.3189997 115.9229992  31.4234990  42.6229997
 116.3869992  31.2454990  41.2379997 115.5889992  30.7454990  40.6489997
 116.4959992  32.2204990  40.7169997 117.8429992  30.6154990  41.1819997
 118.5679992  31.4304990  41.3969997 118.0399992  30.2954990  39.7019997
 117.4909992  31.0144990  39.0569997 119.1239992  30.2644990  39.4589997
 117.3839992  28.9904990  39.4689997 117.9509992  27.7124990  38.8369997
 117.9909992  28.0074990  37.3139997 117.0639992  28.4954990  36.4669997
 116.2969992  27.7004990  36.3459997 116.4439992  29.2914990  36.9299997
 117.6759992  28.9934990  35.1489997 118.1359992  28.2384990  34.5289997
 116.9449992  29.3974990  34.4639997 118.8399992  29.9724990  35.2979997
 120.0859992  29.2034990  35.7309997 120.2689992  28.3484990  35.0969997
 120.9719992  29.8184990  35.6819997 120.0609992  28.8904990  36.7649997
 119.1289992  30.4314990  33.8879997 119.8689992  31.2184990  33.8869997
 119.4639992  29.6144990  33.2659997 118.2169992  30.8504990  33.4889997
 118.5869992  31.2404990  36.1009997 117.5569992  31.4384990  35.8419997
 119.3339992  31.9714990  35.8269997 118.4849992  31.1304990  37.1699997
 119.3099992  27.3604990  39.3329997 116.9279992  26.6674990  38.8859997
 117.8929992  29.4074990  42.0219997 119.1019992  28.8774990  42.1799997
 120.1449992  29.3714990  41.7819997 119.0249992  27.6464990  43.0719997
 118.3659992  26.8384990  42.6899997 118.5199992  27.8854990  44.0329997
 120.4629992  27.1744990  43.4719997 121.1139992  28.0704990  43.5589997
 120.7449992  26.4734990  42.6579997 120.6319992  26.4364990  44.8149997
 119.7299992  25.7914990  44.8849997 120.5209992  27.1924990  45.6209997
 121.9619992  25.6094990  45.0259997 122.8249992  26.1184990  44.5449997
 121.8639992  24.6674990  44.4449997 122.3629992  25.2564990  46.4829997
 122.2539992  26.1934990  47.0699997 123.4189992  24.9174990  46.4159997
 121.3879992  24.2344990  47.1659997 121.9689992  23.4154990  47.6409997
 120.8059992  23.8394990  46.3059997 120.4359992  24.7734990  48.1969997
 119.9539992  25.7474990  47.9649997 120.9929992  25.0964990  49.1019997
 119.5749992  23.6454990  48.5979997 120.1589992  22.7694990  48.9159997
 118.2029992  23.5944990  48.7039997 117.7549992  22.7294990  49.2159997
 117.2429992  24.6894990  48.4639997 116.5739992  24.5644990  47.5859997
 117.7399992  25.6544990  48.2269997 116.4339992  24.9354990  49.7759997
 116.2229992  23.9454990  50.2339997 115.5729992  25.6204990  49.6279997
 117.3069992  25.5644990  50.9509997 117.6719992  26.6134990  50.9569997
 118.2829992  25.0394990  50.8769997 116.8099992  25.3464990  52.3189997
 117.4989992  25.8554990  53.0259997 116.7719992  24.2424990  52.4349997
 115.4169992  25.8814990  52.6019997 115.0059992  25.2984990  53.4539997
 114.7049992  25.6514990  51.7799997 115.4359992  27.3394990  53.0339997
 115.2509992  28.0374990  52.1889997 116.4929992  27.4944990  53.3389997
 114.6519992  27.5724990  54.4099997 115.2319992  27.0324990  55.1879997
 113.6599992  27.0854990  54.2989997 114.5449992  29.0714990  54.7999997
 114.0199992  29.1684990  55.7739997 113.9979992  29.7034990  54.0679997
 115.5619992  29.4964990  54.9389997 122.1209992 102.1104990  56.8379997
 123.1069992 101.8794990  56.3809997 121.4439992 101.3224990  56.4449997
 122.1579992 102.0084990  57.9439997 121.7189992 103.4114990  56.3879997
 120.8639992 103.7094990  57.0319997 122.4449992 104.2494990  56.4589997
 121.3979992 103.4364990  54.8749997 122.3299992 103.1034990  54.3699997
 120.6539992 102.6574990  54.6049997 120.9829992 104.8254990  54.4419997
 120.0009992 105.0194990  54.9239997 121.6229992 105.7034990  54.6759997
 120.7919992 104.8804990  52.9209997 121.5439992 104.2874990  52.3569997
 119.7569992 104.4964990  52.7949997 121.0039992 106.2734990  52.3699997
 120.4019992 107.0284990  52.9199997 122.0219992 106.5814990  52.6909997
 121.0479992 106.3104990  50.8659997 120.1689992 105.8474990  50.3689997
 121.0469992 107.3524990  50.4809997 122.2099992 105.5054990  50.1939997
 123.0929992 106.0934990  50.5209997 122.3709992 104.4954990  50.6279997
 122.1129992 105.3574990  48.7209997 121.6929992 106.2794990  48.2639997
 123.0849992 105.2134990  48.2019997 121.1959992 104.2084990  48.2479997
 121.5999992 103.2954990  48.7349997 120.2119992 104.3084990  48.7549997
 120.9909992 104.1394990  46.7289997 120.0529992 103.5574990  46.6059997
 120.8279992 105.0964990  46.1869997 122.0509992 103.1674990  46.1299997
 123.0019992 103.7404990  46.1259997 122.1109992 102.2084990  46.6899997
 121.6809992 102.7374990  44.6829997 122.4649992 102.0094990  44.3839997
 120.6689992 102.2784990  44.6769997 121.5379992 103.8754990  43.6339997
 121.4449992 103.4004990  42.6339997 120.6659992 104.4734990  43.9749997
 122.6989992 104.9524990  43.5879997 122.6779992 105.4624990  44.5749997
 123.7219992 104.5394990  43.4589997 122.3189992 106.0754990  42.6139997
 122.0319992 107.2014990  42.9349997 122.2619992 105.5614990  41.4019997
 122.1609992 106.5754990  40.3619997 121.1459992 106.3974990  39.9469997
 122.2269992 107.6774990  40.4909997 123.2019992 106.1484990  39.2319997
 123.0859992 106.8554990  38.3829997 123.0799992 104.7114990  38.7739997
 123.8749992 104.4384990  38.0469997 123.1019992 104.0374990  39.6569997
 121.8879992 104.5614990  38.0749997 121.4719992 103.0194990  37.7839997
 122.8519992 102.2984990  37.7229997 123.1589992 100.9174990  37.7909997
 123.7029992 100.8074990  38.7529997 122.2129992 100.3424990  37.8789997
 123.9419992 100.5334990  36.5279997 124.4779992  99.6024990  36.6359997
 123.1599992 100.4094990  35.7939997 124.9359992 101.6054990  35.9579997
 125.8599992 102.1374990  37.0519997 125.3199992 102.6264990  37.8499997
 126.4519992 101.3344990  37.4649997 126.5949992 102.7964990  36.6129997
 125.7739992 101.0444990  34.8149997 125.2139992 100.8324990  33.9159997
 126.4559992 101.8454990  34.5699997 126.3849992 100.1974990  35.0909997
 124.2229992 102.7574990  35.3539997 123.5899992 103.1074990  36.1549997
 123.6519992 102.3554990  34.5299997 124.8729992 103.5044990  34.9229997
 120.6859992 102.5414990  38.9489997 120.8189992 102.9624990  36.4419997
 124.4679992 106.2884990  39.8209997 125.5629992 106.3644990  39.0129997
 125.5129992 106.4874990  37.8359997 126.8179992 106.1194990  39.8229997
 127.1119992 107.0934990  40.2709997 127.7379992 105.8914990  39.2419997
 126.6479992 105.0914990  40.9359997 125.9539992 105.4354990  41.7319997
 127.6609992 104.9974990  41.3829997 126.2759992 103.6034990  40.6109997
 127.1009992 103.1004990  40.0619997 125.3779992 103.6304990  39.9569997
 126.1189992 102.8354990  41.8649997 125.3399992 103.3964990  42.4229997
 127.0999992 102.8474990  42.3849997 125.6079992 101.3444990  41.7659997
 126.3789992 100.7244990  41.2619997 124.6499992 101.3704990  41.2029997
 125.2779992 100.6434990  43.1099997 124.8259992  99.6654990  42.8379997
 124.4729992 101.2374990  43.5929997 126.4909992 100.3174990  43.9979997
 127.1409992 101.2154990  44.0719997 127.1299992  99.6054990  43.4329997
 126.0939992  99.8754990  45.3979997 125.3039992  99.1304990  45.5709997
 126.5909992 100.4404990  46.5339997 126.0069992 100.0564990  47.3839997
 127.6139992 101.5514990  46.6829997 127.0629992 102.4884990  46.4569997
 128.3709992 101.5184990  45.8689997 128.3449992 101.4904990  48.0159997
 129.1769992 102.2274990  48.0229997 128.6969992 100.4444990  48.1429997
 127.3709992 101.9134990  49.1929997 127.9909992 102.1204990  50.0909997
 126.7389992 101.0994990  49.6059997 126.3089992 103.0154990  49.0729997
 125.7479992 102.9324990  48.1179997 126.8339992 103.9584990  48.8079997
 125.4849992 103.3454990  50.2699997 124.8459992 102.4874990  50.5709997
 124.6799992 104.0604990  49.9979997 126.2849992 103.9594990  51.4149997
 126.4019992 105.0364990  51.1679997 127.2419992 103.4324990  51.6199997
 125.5429992 103.9834990  52.7769997 125.2129992 102.9334990  52.9319997
 124.6839992 104.6824990  52.8639997 126.2969992 104.2864990  54.0449997
 127.1309992 103.5964990  54.2939997 125.5699992 104.0994990  54.8649997
 126.5609992 105.3654990  54.0129997  36.6689992 116.0974990  53.0419997
  35.7689992 116.3814990  52.4549997  36.4679992 116.3184990  54.1119997
  36.8419992 115.0084990  52.9039997  37.8899992 116.7954990  52.4549997
  38.8279992 116.2904990  52.7709997  37.7239992 116.5704990  51.3799997
  37.8959992 118.3304990  52.4559997  36.8259992 118.5634990  52.2659997
  38.0899992 118.7684990  53.4579997  38.8289992 118.8484990  51.3879997
  39.1279992 119.8824990  51.6649997  39.8199992 118.3564990  51.4909997
  38.3669992 118.7104990  49.8149997  38.5379992 117.6634990  49.4859997
  37.2759992 118.9074990  49.7529997  39.0979992 119.7714990  48.8599997
  38.8889992 120.8194990  49.1639997  40.1649992 119.4644990  48.8889997
  38.7909992 119.4604990  47.4019997  39.0049992 118.3944990  47.1739997
  37.7299992 119.6744990  47.1539997  39.7189992 120.1984990  46.3649997
  39.6159992 121.3044990  46.3819997  40.7699992 119.9294990  46.6019997
  39.4459992 119.9864990  44.8589997  38.3559992 120.1404990  44.7029997
  39.9849992 120.7404990  44.2479997  39.9739992 118.6534990  44.4749997
  41.0759992 118.5934990  44.6009997  39.6299992 117.8954990  45.2109997
  39.4749992 118.0404990  43.0789997  38.3669992 118.0884990  43.0299997
  39.9019992 118.6334990  42.2419997  39.8509992 116.6244990  42.8789997
  40.9559992 116.5704990  42.9799997  39.4679992 115.6844990  43.3309997
  39.8569992 116.3444990  41.3789997  40.2239992 117.2654990  40.8769997
  40.5959992 115.5364990  41.1879997  38.5189992 115.7934990  40.9119997
  38.3239992 114.8394990  41.4469997  37.7899992 116.5634990  41.2439997
  38.3879992 115.6974990  39.3689997  38.9979992 116.5064990  38.9129997
  38.8029992 114.7344990  38.9999997  36.8679992 115.7164990  39.0899997
  36.2109992 114.6854990  38.9529997  36.4129992 116.9884990  38.7419997
  35.0469992 116.9434990  38.3859997  35.0959992 116.5854990  37.3349997
  34.4489992 116.1504990  38.8819997  34.4529992 118.3724990  38.5649997
  33.5679992 118.3904990  37.8939997  35.5579992 119.4304990  38.0519997
  36.0719992 118.9794990  37.1759997  35.1349992 120.4074990  37.7359997
  36.4759992 119.7614990  39.0829997  37.8989992 120.3474990  38.9179997
  37.8639992 120.7574990  37.4009997  38.9289992 121.5464990  36.8599997
  38.4359992 122.1644990  36.0789997  39.3299992 122.1804990  37.6789997
  40.1339992 120.6514990  36.3569997  41.0459992 121.2094990  36.2059997
  40.2859992 119.9434990  37.1579997  39.8619992 120.0024990  35.0559997
  41.0029992 119.0554990  34.7159997  41.9929992 119.4874990  34.7419997
  41.0429992 118.2604990  35.4449997  40.7889992 118.4994990  33.8149997
  38.5399992 119.2974990  34.9799997  37.7409992 119.9564990  35.2829997
  38.2749992 119.1614990  33.9419997  38.6059992 118.4104990  35.5929997
  39.9149992 121.2364990  34.1039997  38.9909992 121.7624990  34.2959997
  39.7979992 120.8744990  33.0929997  40.7399992 121.9114990  34.2789997
  38.1649992 121.5124990  39.8349997  38.8779992 119.2804990  39.1619997
  34.0939992 118.5254990  40.0049997  33.3869992 119.6014990  40.1959997
  32.9429992 120.2914990  39.2979997  33.1219992 119.9174990  41.6619997
  32.8689992 119.0564990  42.3169997  32.3319992 120.6984990  41.6939997
  34.4259992 120.5454990  42.1159997  34.3809992 121.1204990  43.0659997
  34.8689992 121.2064990  41.3419997  35.5779992 119.5464990  42.3709997
  36.4569992 120.1104990  42.7499997  35.8939992 119.2264990  41.3549997
  35.3639992 118.3294990  43.1899997  36.2189992 117.6404990  43.0189997
  34.5059992 117.6794990  42.9169997  35.3849992 118.7454990  44.7249997
  34.7239992 119.6264990  44.8699997  36.3809992 119.1014990  45.0619997
  34.9169992 117.6964990  45.7409997  35.5049992 116.7574990  45.6489997
  33.8569992 117.3754990  45.6519997  34.8649992 118.3534990  47.1109997
  35.8949992 118.6864990  47.3609997  34.6949992 117.5214990  47.8269997
  33.7669992 119.3704990  47.1869997  32.7779992 119.0294990  46.8469997
  33.8599992 120.6544990  47.5229997  33.0109992 121.3464990  47.6209997
  35.1679992 121.3134990  47.8569997  35.1839992 122.2744990  47.3009997
  36.0649992 120.7434990  47.5349997  35.2689992 121.5724990  49.3389997
  36.2179992 122.0754990  49.6219997  35.1959992 120.5964990  49.8639997
  34.2659992 122.6854990  49.6719997  33.2189992 122.3174990  49.6119997
  34.2569992 123.5404990  48.9609997  34.5689992 123.1814990  51.1069997
  33.9589992 124.1054990  51.2049997  35.6369992 123.4844990  51.1509997
  34.4789992 122.1404990  52.2409997  34.7919992 122.6724990  53.1649997
  35.2419992 121.3564990  52.0499997  32.9999992 121.6314990  52.5999997
  32.4239992 121.5044990  51.6579997  32.4609992 122.3644990  53.2379997
  33.1219992 120.3074990  53.3649997  32.2449992 120.2034990  54.0389997
  33.9739992 120.4274990  54.0689997  33.1979992 119.0254990  52.5759997
  32.2469992 118.8764990  52.0199997  33.3509992 118.1264990  53.2099997
  34.0249992 119.0554990  51.8349997  88.7909992 124.0104990  53.9269997
  88.7359992 125.0674990  54.2639997  87.9899992 123.4204990  54.4219997
  88.6289992 123.7874990  52.8509997  90.1499992 123.4524990  54.3629997
  90.5069992 123.9344990  55.2989997  90.0169992 122.3604990  54.5159997
  91.3199992 123.3914990  53.3299997  92.2089992 122.9404990  53.8179997
  91.0499992 122.7774990  52.4439997  91.6369992 124.8274990  52.7679997
  90.6999992 125.3594990  52.4969997  92.0179992 125.3624990  53.6629997
  92.7759992 124.7934990  51.8029997  93.0099992 125.8614990  51.6059997
  93.6009992 124.4144990  52.4429997  92.7069992 124.0464990  50.4089997
  93.6879992 124.1504990  49.8969997  92.6059992 122.9514990  50.5679997
  91.4689992 124.5564990  49.6319997  90.5759992 124.4784990  50.2879997
  91.6609992 125.6234990  49.3889997  91.2449992 123.7404990  48.3369997
  90.4219992 124.2954990  47.8389997  92.2239992 123.6614990  47.8169997
  90.6659992 122.3704990  48.6009997  91.3289992 121.6374990  49.1089997
  89.9039992 122.4714990  49.4039997  90.0479992 121.6104990  47.4129997
  89.7599992 120.5604990  47.6349997  89.1299992 122.1604990  47.1119997
  90.8139992 121.5754990  46.1089997  91.1619992 122.6004990  45.8599997
  91.7959992 121.0804990  46.2659997  90.0649992 120.9864990  44.9169997
  89.6639992 120.0104990  45.2619997  89.2389992 121.6394990  44.5609997
  90.9819992 120.7924990  43.7009997  91.9549992 120.4404990  44.1049997
  90.5869992 120.0354990  42.9889997  91.2219992 122.1694990  42.9859997
  91.5889992 122.9024990  43.7369997  92.0289992 121.8774990  42.2809997
  90.0449992 122.8014990  42.1699997  89.5699992 122.0424990  41.5109997
  89.2309992 123.0644990  42.8779997  90.5369992 124.0594990  41.4529997
  91.0669992 124.9654990  41.9919997  90.3299992 123.9514990  40.1319997
  91.0899992 124.8524990  39.2979997  90.5429992 124.9564990  38.3369997
  91.1419992 125.8974990  39.6729997  92.5739992 124.4054990  39.0489997
  93.1609992 125.2594990  38.6459997  92.5869992 123.1634990  38.1959997
  91.9589992 123.4874990  37.3389997  93.6139992 122.8874990  37.8759997
  92.1179992 122.0604990  38.9429997  90.9789992 121.2014990  38.3379997
  91.4359992 120.9924990  36.8809997  91.3819992 119.7914990  36.0909997
  90.5749992 119.1694990  36.5339997  91.0369992 120.0114990  35.0579997
  92.6649992 118.9104990  36.1719997  92.8159992 118.5144990  37.1649997
  92.5039992 118.0074990  35.6019997  94.0139992 119.4264990  35.7479997
  94.4669992 120.3844990  36.8189997  94.5969992 119.8474990  37.7479997
  95.4419992 120.7494990  36.5319997  93.7339992 121.1634990  36.9659997
  95.0089992 118.3354990  35.7869997  94.8169992 117.4934990  35.1389997
  96.0189992 118.6664990  35.5939997  95.0899992 118.0254990  36.8179997
  93.9859992 120.0844990  34.3749997  93.5809992 119.3894990  33.6549997
  94.9949992 120.3364990  34.0849997  93.3279992 120.9364990  34.2879997
  90.9269992 119.8494990  38.9949997  89.7029992 121.9804990  38.3229997
  93.2339992 124.2044990  40.2569997  94.4499992 123.8384990  40.2599997
  95.2559992 123.7494990  39.3199997  94.8659992 123.5954990  41.7079997
  94.0039992 123.2064990  42.2919997  95.1549992 124.5764990  42.1429997
  96.0369992 122.5704990  41.8069997  96.0809992 122.3714990  42.8989997
  96.9829992 123.0404990  41.4639997  95.9029992 121.1984990  41.1999997
  96.8369992 120.6064990  41.3059997  95.9219992 121.2244990  40.0889997
  94.7899992 120.2354990  41.6919997  93.8149992 120.7664990  41.6519997
  94.9589992 119.9094990  42.7399997  94.8359992 118.8024990  41.0559997
  95.8759992 118.4404990  41.1979997  94.5559992 118.8464990  39.9819997
  93.7989992 117.7554990  41.6709997  94.0249992 116.8344990  41.0929997
  92.7659992 118.0614990  41.3999997  93.8939992 117.5764990  43.1859997
  93.1639992 116.7804990  43.4459997  93.6839992 118.5564990  43.6659997
  95.2519992 116.9334990  43.5299997  95.2939992 115.9084990  43.1339997
  96.2099992 117.5254990  44.2799997  97.1389992 116.9874990  44.5209997
  96.0869992 118.9284990  44.8669997  95.0499992 119.2754990  44.6669997
  96.9059992 119.5814990  44.4979997  96.2749992 118.9304990  46.4089997
  96.2259992 120.0344990  46.5269997  97.3039992 118.6204990  46.6909997
  95.2819992 118.0664990  47.1299997  95.8529992 117.1944990  47.5129997
  94.5139992 117.7034990  46.4139997  94.6699992 118.7254990  48.3259997
  93.7509992 118.2014990  48.6649997  94.4009992 119.7734990  48.0739997
  95.6809992 118.7064990  49.5309997  96.6569992 118.9514990  49.0619997
  95.5549992 117.7474990  50.0789997  95.2639992 119.9474990  50.3349997
  94.2349992 120.0734990  50.7349997  95.4729992 120.7774990  49.6269997
  96.0979992 120.1224990  51.6129997  96.2999992 121.2144990  51.6339997
  97.1049992 119.6944990  51.4219997  95.3809992 119.7644990  52.9479997
  95.2049992 118.6674990  52.9349997  94.4889992 120.4024990  53.1259997
  96.0769992 120.0954990  53.7479997  22.7569992  28.8014990  57.3009997
  22.4959992  29.2994990  58.2589997  22.2759992  29.3604990  56.4699997
  23.8319992  28.7444990  57.0269997  22.0149992  27.4944990  57.4309997
  22.4879992  26.7704990  58.1289997  20.9969992  27.6704990  57.8399997
  22.0339992  26.6824990  56.1139997  21.2719992  25.8734990  56.1029997
  21.7409992  27.3634990  55.2859997  23.5099992  26.2844990  55.7609997
  24.0489992  27.2324990  55.5459997  23.9609992  25.7854990  56.6449997
  23.6729992  25.3214990  54.5519997  24.7079992  24.9194990  54.5889997
  23.1099992  24.3984990  54.8079997  23.2559992  25.9064990  53.1939997
  22.2279992  26.3214990  53.2739997  23.9919992  26.7114990  52.9859997
  23.1939992  25.0034990  51.9659997  24.2209992  24.6234990  51.7769997
  22.5449992  24.1494990  52.2549997  22.6169992  25.7394990  50.7759997
  21.5079992  25.6724990  50.7809997  22.8329992  26.8174990  50.9359997
  23.0969992  25.4284990  49.3619997  24.1569992  25.7234990  49.2149997
  22.9019992  24.3574990  49.1409997  22.1329992  26.1524990  48.3399997
  21.1479992  25.6404990  48.3839997  21.9769992  27.2104990  48.6429997
  22.5729992  26.1364990  46.8389997  23.6659992  26.2904990  46.7139997
  22.1709992  25.1644990  46.4829997  21.9099992  27.2834990  46.0779997
  20.7999992  27.2634990  46.1139997  22.2669992  28.2674990  46.4499997
  22.1979992  27.1904990  44.5299997  21.8709992  28.1544990  44.0839997
  23.2849992  27.2264990  44.3009997  21.5579992  26.0504990  43.8309997
  22.1379992  25.1464990  44.1169997  20.5319992  25.8524990  44.2079997
  21.5269992  26.0024990  42.2869997  22.5089992  26.2544990  41.8309997
  21.2429992  24.9804990  41.9549997  20.5059992  26.9194990  41.6829997
  19.7229992  27.5804990  42.3109997  20.6509992  26.9574990  40.3509997
  20.1199992  27.9864990  39.5359997  19.9109992  27.5264990  38.5459997
  19.1399992  28.3034990  39.9529997  21.2209992  29.0654990  39.2119997
  20.8459992  29.8724990  38.5469997  22.3809992  28.3274990  38.4069997
  21.9329992  28.0214990  37.4369997  23.0529992  29.1474990  38.0749997
  22.9519992  27.3144990  39.1959997  23.1879992  25.8854990  38.5279997
  24.1649992  26.3044990  37.3589997  25.4369992  26.9664990  37.7009997
  25.4129992  27.5344990  38.6559997  26.2709992  26.2634990  37.9119997
  25.8099992  27.9984990  36.5869997  24.8729992  28.5074990  36.4189997
  26.4359992  28.7714990  37.0069997  26.3619992  27.5134990  35.2589997
  27.4359992  26.5074990  35.5299997  27.0009992  25.7644990  36.1819997
  27.8539992  26.1674990  34.5939997  28.1919992  27.0194990  36.1079997
  25.2059992  26.7904990  34.4899997  25.0499992  25.8154990  34.9279997
  24.2499992  27.2644990  34.6549997  25.4779992  26.7024990  33.4479997
  26.7099992  28.7534990  34.4669997  27.2099992  28.3914990  33.5809997
  27.3939992  29.3324990  35.0679997  25.8199992  29.3464990  34.3149997
  23.8999992  24.9624990  39.4619997  21.9619992  25.4284990  37.8929997
  21.6949992  29.6154990  40.4709997  22.4439992  30.6474990  40.2399997
  22.5739992  31.2584990  39.2099997  23.1959992  31.0074990  41.5209997
  23.7639992  31.9504990  41.3729997  23.9159992  30.1994990  41.7749997
  22.2709992  31.1634990  42.7579997  21.8139992  30.1604990  42.8949997
  21.5339992  31.9514990  42.4919997  23.0599992  31.4914990  44.0589997
  22.3789992  31.1804990  44.8799997  23.2689992  32.5814990  44.0059997
  24.2719992  30.5804990  44.4439997  25.1749992  30.8614990  43.8609997
  23.9989992  29.5304990  44.2029997  24.5489992  30.5854990  45.9049997
  23.6329992  30.3584990  46.4909997  24.9389992  31.5584990  46.2739997
  25.4599992  29.3884990  46.3169997  26.5049992  29.3204990  45.9449997
  24.9629992  28.4214990  46.0889997  25.5599992  29.4244990  47.8979997
  25.8509992  28.3894990  48.1779997  24.5519992  29.4774990  48.3619997
  26.5429992  30.4184990  48.4099997  27.3399992  30.6354990  47.6839997
  26.5029992  31.0514990  49.6159997  27.3579992  31.7094990  49.8309997
  25.4669992  30.8704990  50.7519997  24.4519992  30.9394990  50.3059997
  25.3929992  31.7894990  51.3719997  25.5769992  29.5874990  51.5489997
  25.8989992  28.7004990  50.9619997  24.5559992  29.2724990  51.8539997
  26.6229992  29.7934990  52.6969997  26.4549992  30.7974990  53.1429997
  27.6039992  29.8114990  52.1759997  26.6429992  28.6414990  53.6719997
  27.3169992  27.8494990  53.2809997  25.6069992  28.2584990  53.7929997
  27.1299992  29.0304990  55.0999997  28.0689992  29.4834990  54.7149997
  27.5109992  28.2214990  55.7589997  26.2929992  29.9664990  55.8969997
  25.4029992  29.3274990  56.0819997  25.9889992  30.8174990  55.2509997
  26.8719992  30.4794990  57.1939997  27.2489992  29.5564990  57.6859997
  26.0299992  30.7824990  57.8519997  27.7579992  31.6264990  56.9089997
  28.0619992  32.1854990  57.8199997  27.1569992  32.3384990  56.3039997
  28.6299992  31.3534990  56.2749997  56.8689992 129.3114990  58.9859997
  57.6669992 130.0794990  58.9009997  57.4109992 128.3414990  59.0069997
  56.4729992 129.4724990  60.0109997  55.8129992 129.4494990  57.9039997
  56.2669992 129.0184990  56.9859997  54.8999992 128.8234990  57.9979997
  55.3059992 130.8824990  57.4739997  55.0719992 131.5294990  58.3459997
  56.1749992 131.3564990  56.9699997  54.1809992 130.9274990  56.4759997
  53.3799992 130.6854990  57.2079997  54.1699992 131.9904990  56.1559997
  54.2669992 129.9084990  55.3739997  55.3039992 130.0194990  54.9909997
  54.2309992 128.8734990  55.7769997  53.0479992 129.9244990  54.3799997
  52.2939992 129.1404990  54.6059997  52.5379992 130.9104990  54.3549997
  53.5079992 129.6974990  52.9329997  54.1259992 128.7834990  53.0629997
  52.6759992 129.3534990  52.2819997  54.3109992 130.6934990  52.1729997
  53.6749992 131.1234990  51.3699997  54.5039992 131.5384990  52.8679997
  55.7049992 130.2444990  51.6039997  56.3529992 130.1344990  52.4999997
  55.4639992 129.3334990  51.0149997  56.4009992 131.2334990  50.5809997
  55.5239992 131.6984990  50.0829997  56.8219992 132.1374990  51.0709997
  57.3769992 130.6044990  49.6169997  58.4619992 130.6154990  49.8579997
  57.0269992 129.5564990  49.4959997  57.2219992 131.2494990  48.2119997
  56.1199992 131.2794990  48.0809997  57.4629992 132.3274990  48.3359997
  58.0159992 130.5254990  47.0649997  59.0919992 130.8024990  47.0839997
  57.8669992 129.4424990  47.2609997  57.6339992 130.5334990  45.5839997
  57.9919992 129.5764990  45.1479997  56.5249992 130.4984990  45.5399997
  58.1369992 131.7504990  44.7799997  57.5829992 132.6314990  45.1649997
  59.2229992 131.9474990  44.9099997  57.9249992 131.6184990  43.2499997
  56.8699992 131.8894990  42.6919997  58.9409992 130.9824990  42.7059997
  58.8749992 130.8194990  41.3059997  58.3499992 131.6884990  40.8539997
  59.9199992 130.8614990  40.9319997  58.1889992 129.5114990  40.8709997
  58.7129992 128.6724990  41.3769997  58.5159992 129.2954990  39.4389997
  58.7929992 130.2174990  38.8849997  59.4729992 128.7324990  39.3859997
  57.4749992 128.5704990  38.7889997  56.3539992 129.2024990  37.7729997
  55.3469992 127.9114990  37.3849997  54.0629992 127.8734990  38.0059997
  54.1629992 127.5364990  39.0599997  53.4979992 128.8294990  37.9739997
  53.1919992 126.7424990  37.4129997  53.6909992 125.8014990  37.5929997
  52.2329992 126.8104990  37.9049997  52.9129992 126.7594990  35.8869997
  54.1979992 126.4084990  35.0919997  54.0169992 126.7144990  34.0719997
  55.0889992 126.8844990  35.4739997  54.3629992 125.3404990  35.0789997
  51.7899992 125.7444990  35.5879997  52.1339992 124.8034990  35.9929997
  50.9589992 126.0434990  36.2099997  51.6099992 125.7014990  34.5239997
  52.4339992 128.1364990  35.4209997  51.3589992 128.0734990  35.3459997
  52.7849992 128.2074990  34.4019997  52.7909992 129.0044990  35.9549997
  55.6729992 130.2294990  38.5359997  57.1039992 129.6524990  36.5809997
  56.7279992 129.5534990  41.0529997  56.2789992 128.4774990  41.7209997
  56.9079992 127.5054990  41.9649997  54.7929992 128.7054990  41.9639997
  54.2289992 128.4674990  41.0359997  54.4809992 129.7624990  42.1089997
  54.2849992 127.6584990  42.9579997  54.6709992 126.6404990  42.7349997
  53.1869992 127.4964990  42.9189997  54.6189992 127.9364990  44.4319997
  55.7039992 128.1484990  44.5369997  54.2569992 127.1224990  45.0959997
  53.9339992 129.2534990  44.9969997  52.8659992 129.0484990  44.7659997
  54.3539992 130.1284990  44.4549997  53.9929992 129.5634990  46.4949997
  53.6999992 130.6314990  46.5849997  55.0379992 129.3184990  46.7809997
  52.9289992 128.7634990  47.2029997  52.9799992 127.8264990  46.6089997
  51.9039992 129.1124990  46.9539997  53.1249992 128.4574990  48.6959997
  53.1379992 129.4764990  49.1379997  54.1489992 128.0464990  48.8279997
  51.9009992 127.6784990  49.3219997  50.8999992 128.0654990  49.0829997
  51.9919992 126.4914990  49.9189997  51.0939992 126.0264990  50.3509997
  53.3119992 125.6454990  50.1159997  53.9209992 125.7414990  49.1919997
  53.0859992 124.5614990  50.1989997  54.0209992 126.1824990  51.3789997
  53.4399992 125.8824990  52.2769997  54.3419992 127.2434990  51.3049997
  55.2739992 125.3134990  51.5109997  55.7189992 125.1624990  50.5049997
  55.0639992 124.3574990  52.0379997  56.4369992 125.9144990  52.3549997
  56.7559992 126.9024990  51.9599997  57.2829992 125.1984990  52.2739997
  56.0749992 126.0294990  53.8059997  56.2519992 125.0624990  54.3249997
  55.0079992 126.3054990  53.9469997  56.9639992 127.1664990  54.4769997
  56.8319992 127.1214990  55.5789997  56.6559992 128.2124990  54.2619997
  58.3749992 127.0424990  54.2099997  58.5599992 127.3504990  53.1579997
  58.7129992 125.9894990  54.3109997  59.2369992 127.9344990  55.0959997
  59.4519992 127.5404990  56.1129997  58.7289992 128.9204990  55.0369997
  60.1899992 127.9684990  54.5269997  59.0679992   5.6104990  53.7779997
  58.8019992   6.6014990  54.2049997  59.3969992   5.6554990  52.7179997
  59.8659992   5.2024990  54.4339997  57.9259992   4.6514990  53.9089997
  58.2559992   3.6314990  53.6179997  57.7319992   4.4614990  54.9869997
  56.6339992   4.9514990  53.0489997  56.4559992   6.0304990  53.2479997
  56.8349992   5.0254990  51.9579997  55.3979992   3.9524990  53.2999997
  55.6379992   2.9354990  52.9229997  55.2059992   3.9494990  54.3939997
  54.1899992   4.5644990  52.5999997  54.3679992   4.7974990  51.5279997
  53.3769992   3.8134990  52.6939997  53.8509992   5.9284990  53.2459997
  53.9169992   5.7234990  54.3359997  54.5039992   6.7794990  52.9599997
  52.3869992   6.4284990  52.9609997  51.6959992   5.5604990  53.0149997
  52.1649992   7.1164990  53.8049997  52.2629992   7.1784990  51.6489997
  52.7689992   8.1494990  51.8389997  52.6199992   6.5474990  50.8069997
  50.7579992   7.5224990  51.3319997  50.0649992   6.6604990  51.4349997
  50.4339992   8.2354990  52.1199997  50.6869992   8.0934990  49.9169997
  49.7389992   8.6594990  49.7889997  51.5179992   8.8304990  49.9199997
  50.9769992   6.9784990  48.8789997  52.0489992   6.6904990  48.8639997
  50.3849992   6.0394990  48.9089997  50.8109992   7.5324990  47.4209997
  49.7549992   7.8174990  47.2269997  51.3749992   8.4774990  47.2639997
  51.2519992   6.5084990  46.4239997  52.3269992   6.4174990  46.6909997
  50.7399992   5.5284990  46.5319997  51.2059992   6.8004990  44.9359997
  50.2059992   6.8674990  44.4579997  51.7459992   7.7174990  44.6159997
  51.9979992   5.7104990  44.0819997  53.0399992   5.9594990  44.3749997
  51.8379992   4.6794990  44.4639997  51.7539992   5.7264990  42.5649997
  51.9639992   4.8164990  41.8299997  51.5139992   6.9574990  42.2179997
  51.6649992   7.3224990  40.8469997  51.5679992   6.5424990  40.0619997
  50.8859992   8.0954990  40.6719997  53.1579992   7.9694990  40.6649997
  53.1239992   8.7324990  39.8579997  54.2009992   6.9344990  40.4029997
  54.3169992   6.3094990  41.3149997  53.8499992   6.3464990  39.5279997
  55.3279992   7.5984990  40.0479997  55.7789992   8.1584990  38.6849997
  54.9599992   7.4134990  37.5809997  55.0409992   7.6794990  36.2159997
  54.0269992   8.0164990  35.9139997  55.8149992   8.4564990  36.0399997
  55.4789992   6.3744990  35.4629997  55.7139992   6.7444990  34.4759997
  56.3709992   6.1294990  36.0199997  54.5579992   5.2054990  35.4029997
  54.4379992   4.5494990  36.7309997  53.7379992   5.1374990  37.3059997
  54.1289992   3.5284990  36.5629997  55.4199992   4.6754990  37.1629997
  53.1749992   5.7334990  34.9029997  52.4689992   4.9404990  34.7109997
  52.8089992   6.3824990  35.6849997  53.3219992   6.3384990  34.0189997
  55.1019992   4.2184990  34.4209997  54.4999992   3.3244990  34.4909997
  56.1059992   3.9604990  34.7229997  54.9509992   4.4534990  33.3779997
  55.3519992   9.5924990  38.4719997  57.2119992   7.8504990  38.5499997
  53.5969992   8.7194990  41.8169997  52.9109992   9.7674990  42.2499997
  52.1109992  10.3524990  41.5119997  53.4589992  10.2724990  43.6419997
  54.4859992  10.5454990  43.3189997  53.5109992   9.5764990  44.5059997
  52.6369992  11.4834990  44.1299997  51.5759992  11.2064990  44.3089997
  52.7619992  12.1634990  43.2599997  53.3079992  12.1884990  45.2969997
  52.5639992  12.9844990  45.5109997  54.2449992  12.6314990  44.8969997
  53.5789992  11.3614990  46.5299997  54.3149992  10.5764990  46.2529997
  52.6389992  10.8504990  46.8319997  53.9159992  12.2234990  47.7689997
  53.2679992  13.1144990  47.9059997  54.9609992  12.5864990  47.6599997
  53.7829992  11.4444990  49.0909997  54.4009992  10.5444990  48.8819997
  52.7639992  11.1094990  49.3819997  54.5899992  12.1134990  50.2649997
  54.0059992  12.1194990  51.2099997  54.6239992  13.1734990  49.9349997
  56.0169992  11.6214990  50.5099997  56.7769992  12.2574990  50.0319997
  56.4469992  10.5504990  51.1639997  57.5349992  10.5134990  51.3189997
  55.7149992   9.4554990  51.8699997  55.8309992   8.4744990  51.3609997
  54.6249992   9.6674990  51.8189997  56.2749992   9.1954990  53.2579997
  57.3649992   9.3874990  53.1649997  56.1099992   8.1324990  53.5339997
  55.6269992  10.0554990  54.3149997  54.5369992   9.8494990  54.3669997
  55.6959992  11.1344990  54.0589997  56.1929992   9.8604990  55.7559997
  55.5859992  10.5054990  56.4269997  57.2899992  10.0124990  55.8429997
  56.0179992   8.3804990  56.1849997  56.5639992   7.7694990  55.4349997
  54.9609992   8.0604990  56.0629997  56.4489992   8.1404990  57.6489997
  55.7389992   8.6224990  58.3549997  57.4419992   8.5884990  57.8669997
  56.4939992   6.6144990  58.0199997  56.6979992   6.4064990  59.0919997
  57.3099992   6.1094990  57.4599997  55.1039992   5.9184990  57.8359997
  55.0299992   5.6394990  56.7629997  54.2429992   6.5774990  58.0789997
  55.1249992   4.9834990  58.4339997  85.7589992 124.2494990  54.3989997
  86.4679992 124.9674990  54.8649997  86.1689992 123.2484990  54.1469997
  84.9699992 123.9724990  55.1309997  85.2919992 124.9114990  53.0989997
  85.0979992 125.9924990  53.2679997  86.0249992 124.8974990  52.2639997
  83.9269992 124.4914990  52.4889997  83.2479992 124.5104990  53.3679997
  83.4729992 125.1154990  51.6909997  84.0629992 123.0944990  51.7549997
  84.5879992 122.3654990  52.4079997  83.0359992 122.7274990  51.5419997
  84.5779992 123.1454990  50.3289997  84.2889992 123.9494990  49.6189997
  85.5969992 123.5854990  50.3799997  84.5569992 121.8504990  49.5199997
  84.9399992 121.0694990  50.2109997  83.4949992 121.5734990  49.3489997
  85.3379992 121.7764990  48.1969997  86.3879992 121.9734990  48.5029997
  85.3389992 120.7544990  47.7609997  84.9659992 122.7854990  47.1089997
  83.9019992 122.9724990  47.3679997  85.4979992 123.7414990  47.3019997
  85.3819992 122.2174990  45.7569997  85.3919992 122.9904990  44.9589997
  86.3479992 121.6864990  45.8949997  84.4379992 121.0804990  45.2399997
  84.9589992 120.5614990  44.4069997  84.1229992 120.2744990  45.9369997
  83.1159992 121.7884990  44.8009997  82.5139992 120.8604990  44.6969997
  82.6079992 122.3944990  45.5809997  83.0649992 122.5714990  43.4499997
  83.4349992 123.5894990  43.6979997  83.7709992 122.0234990  42.7899997
  81.7629992 122.9224990  42.8189997  81.2049992 121.9654990  42.7329997
  81.1269992 123.5814990  43.4489997  81.9429992 123.6394990  41.4809997
  82.3809992 124.6364990  41.7009997  82.6599992 123.0454990  40.8739997
  80.5629992 123.7154990  40.7569997  80.6979992 123.0574990  39.8719997
  79.8409992 123.3514990  41.5189997  80.1699992 125.1424990  40.3419997
  80.0099992 126.0394990  41.1709997  80.0509992 125.1604990  39.0349997
  79.6619992 126.4604990  38.5449997  79.1289992 126.4224990  37.5709997
  78.9289992 126.9354990  39.2319997  80.8209992 127.4084990  38.3149997
  80.5349992 128.0774990  37.4749997  82.0869992 126.6694990  37.7989997
  81.7959992 125.9274990  37.0239997  82.7919992 127.4274990  37.3949997
  82.6709992 126.0094990  38.9509997  84.1899992 125.7244990  39.1169997
  84.4839992 125.3124990  37.6509997  85.8769992 125.3714990  37.2009997
  86.2189992 126.4184990  37.0509997  86.5189992 124.8324990  37.9299997
  85.9859992 124.6614990  35.8669997  86.8729992 125.0894990  35.4239997
  86.1529992 123.6104990  36.0509997  84.7919992 124.6994990  34.8859997
  83.5949992 123.9684990  35.3469997  83.1809992 124.4064990  36.2429997
  82.8269992 124.1094990  34.5999997  83.9069992 122.9414990  35.4649997
  84.4589992 126.1014990  34.4199997  84.1629992 126.6904990  35.2759997
  85.3169992 126.5794990  33.9719997  83.7409992 125.9774990  33.6229997
  85.4659992 123.9334990  33.6829997  84.7739992 123.7674990  32.8709997
  85.7569992 122.9484990  34.0189997  86.3689992 124.4524990  33.3969997
  85.0079992 126.9354990  39.3469997  84.4379992 124.5494990  40.0009997
  81.1599992 128.0404990  39.5519997  82.1859992 128.8884990  39.6609997
  82.7719992 129.4944990  38.7769997  82.2749992 129.2454990  41.1599997
  81.8539992 128.4174990  41.7699997  81.6659992 130.1464990  41.3869997
  83.7229992 129.4314990  41.5929997  84.1019992 130.2574990  40.9529997
  84.3849992 128.5434990  41.5029997  83.8419992 129.8374990  43.1199997
  83.2029992 130.7204990  43.3399997  84.9129992 130.0714990  43.2989997
  83.3469992 128.6804990  43.9579997  83.6009992 127.7034990  43.4919997
  82.2409992 128.7314990  44.0379997  84.0819992 128.7424990  45.3139997
  83.6479992 129.5114990  45.9889997  85.1439992 129.0534990  45.2229997
  83.9799992 127.4984990  46.1909997  84.8599992 127.4864990  46.8689997
  84.2549992 126.6024990  45.5939997  82.5929992 127.2554990  46.7719997
  81.8719992 127.8914990  46.2169997  82.6529992 127.5644990  47.8379997
  82.1599992 125.8234990  46.8109997  82.8919992 125.0594990  47.1139997
  80.8339992 125.4464990  46.6009997  80.6919992 124.3594990  46.6939997
  79.5169992 126.1934990  46.2899997  78.8289992 125.5664990  45.6829997
  79.6329992 127.1444990  45.7279997  78.7199992 126.5444990  47.5599997
  78.6489992 125.6364990  48.1969997  77.7029992 126.8524990  47.2349997
  79.3729992 127.6584990  48.4079997  79.7289992 128.3934990  47.6549997
  80.1999992 127.2564990  49.0319997  78.3549992 128.2594990  49.3129997
  77.4289992 127.6504990  49.3899997  77.9379992 129.2344990  48.9809997
  78.8349992 128.4154990  50.8119997  78.9569992 127.3834990  51.2049997
  78.0119992 128.7594990  51.4759997  80.0509992 129.2894990  51.1229997
  79.7839992 130.3674990  51.0899997  80.6369992 129.0434990  50.2119997
  80.8249992 129.0384990  52.4289997  81.3039992 128.0374990  52.4789997
  80.0569992 129.0134990  53.2319997  81.8169992 130.1414990  52.6849997
  82.3389992 129.9464990  53.6469997  81.3309992 131.1394990  52.6639997
  82.6789992 130.0944990  51.9869997  88.3139992   7.3664990  54.4049997
  88.9589992   7.3904990  53.4999997  87.4699992   6.6484990  54.4919997
  89.0619992   7.1504990  55.1969997  87.7029992   8.7984990  54.5989997
  87.3019992   8.7954990  55.6359997  88.4619992   9.5954990  54.4479997
  86.4849992   9.1614990  53.7199997  86.7879992   9.2404990  52.6529997
  85.7559992   8.3464990  53.9169997  85.7689992  10.4774990  54.1409997
  85.4139992  10.4424990  55.1929997  86.5699992  11.2424990  54.0559997
  84.6729992  10.9414990  53.1479997  84.4539992  11.9854990  53.4619997
  85.3229992  10.9374990  52.2469997  83.3819992  10.2034990  53.0099997
  83.6159992   9.1304990  52.8439997  82.7939992  10.2734990  53.9499997
  82.5259992  10.7544990  51.8579997  81.8239992   9.9084990  51.6999997
  81.9579992  11.6264990  52.2469997  83.1219992  11.0714990  50.3939997
  84.1299992  11.5274990  50.5029997  83.2129992  10.1094990  49.8459997
  82.0609992  11.9854990  49.7339997  81.2889992  11.2544990  49.4139997
  81.6889992  12.7254990  50.4739997  82.3689992  12.7684990  48.4029997
  82.7979992  11.9894990  47.7369997  81.3529992  13.0884990  48.0879997
  83.4329992  13.8334990  48.4199997  83.0839992  14.7144990  48.9999997
  84.4349992  13.4914990  48.7589997  83.7579992  14.3464990  46.9939997
  82.8059992  14.6654990  46.5179997  84.5039992  15.1534990  47.1589997
  84.4589992  13.3354990  46.0789997  85.3239992  12.9574990  46.6659997
  83.8669992  12.4614990  45.7319997  85.0539992  14.0974990  44.8859997
  85.7529992  14.8404990  45.3269997  85.6919992  13.3424990  44.3789997
  84.1829992  14.8904990  43.8559997  83.2889992  14.3764990  43.4429997
  83.7459992  15.7794990  44.3599997  85.0979992  15.2684990  42.7149997
  85.5319992  16.3614990  42.4769997  85.2059992  14.1414990  41.9439997
  86.1509992  14.2644990  40.9329997  85.5529992  14.5964990  40.0569997
  86.9409992  15.0324990  41.0759997  86.8079992  12.9354990  40.5769997
  87.4209992  13.0254990  39.6549997  85.7739992  11.8244990  40.1199997
  85.0719992  11.7224990  40.9749997  85.2159992  12.2464990  39.2569997
  86.4779992  10.6234990  39.7959997  87.0949992  10.3954990  38.3139997
  86.1629992  11.3444990  37.4029997  86.6269992  11.4234990  35.9919997
  87.7309992  11.4504990  35.8709997  86.3099992  10.5314990  35.4109997
  85.8789992  12.5854990  35.3339997  86.0719992  12.3924990  34.2889997
  84.8139992  12.4244990  35.4099997  86.1409992  13.9674990  35.7359997
  85.4599992  14.8224990  34.6819997  85.9489992  14.8594990  33.7199997
  84.4129992  14.5684990  34.6069997  85.4429992  15.8144990  35.1109997
  85.3709992  14.4464990  36.9709997  85.6049992  13.8404990  37.8339997
  85.5459992  15.4744990  37.2529997  84.3369992  14.3394990  36.6789997
  87.6019992  14.3934990  35.8919997  87.7099992  15.4684990  35.9129997
  88.1649992  13.9974990  35.0599997  88.0339992  13.9834990  36.7929997
  88.5259992  10.7294990  38.3809997  86.8389992   9.0424990  37.9709997
  87.5459992  12.4234990  41.6809997  88.7389992  12.9794990  41.8559997
  89.2599992  13.8944990  41.2219997  89.4789992  12.3994990  43.0269997
  90.4179992  12.9474990  43.2559997  89.6249992  11.2984990  42.9989997
  88.5959992  12.7984990  44.2599997  87.7099992  12.1284990  44.2819997
  88.2799992  13.8564990  44.3759997  89.2499992  12.4444990  45.6819997
  90.1939992  13.0294990  45.6949997  89.3759992  11.3484990  45.5559997
  88.3909992  12.6914990  46.9169997  87.5199992  12.0004990  46.9009997
  88.0539992  13.7504990  46.9209997  88.9839992  12.3954990  48.2569997
  89.8689992  13.0234990  48.4939997  89.4199992  11.3744990  48.3039997
  87.9559992  12.4854990  49.5109997  87.0719992  11.8474990  49.2979997
  87.6619992  13.5564990  49.4819997  88.5529992  12.1954990  50.9369997
  89.0299992  11.2144990  51.1479997  87.7139992  12.1854990  51.6659997
  89.5539992  13.1964990  51.3769997  90.5409992  13.0194990  50.9259997
  89.4129992  14.2754990  52.1439997  90.1929992  15.0364990  52.2979997
  88.1299992  14.7894990  52.7689997  87.2979992  14.0914990  53.0039997
  87.6099992  15.4604990  52.0519997  88.3799992  15.6084990  54.0519997
  87.4429992  16.0884990  54.4069997  88.9579992  16.5194990  53.7909997
  89.1269992  14.9234990  55.2189997  89.2769992  15.6764990  56.0219997
  90.1989992  14.8174990  54.9489997  88.6169992  13.5784990  55.8049997
  89.0869992  13.3934990  56.7949997  88.9469992  12.7414990  55.1529997
  87.0599992  13.6244990  55.9999997  86.6369992  13.5674990  54.9739997
  86.8699992  14.5554990  56.5749997  86.5019992  12.4254990  56.8099997
  86.7519992  11.4444990  56.3539997  85.3989992  12.5144990  56.7159997
  86.9449992  12.2524990  58.2729997  86.5579992  13.1354990  58.8249997
  88.0289992  12.0214990  58.3499997  86.2659992  10.9484990  58.8819997
  85.8659992  10.3014990  58.0719997  85.3219992  11.1864990  59.4159997
  87.0459992  10.4704990  59.5119997 122.7829992  29.9544990  52.2239997
 123.5169992  29.4914990  52.9179997 121.8419992  29.3684990  52.2979997
 122.6439992  31.0244990  52.4859997 123.1969992  29.7924990  50.7529997
 122.8309992  28.8324990  50.3299997 122.7099992  30.5294990  50.0779997
 124.7609992  30.0134990  50.5439997 125.1989992  30.9334990  50.9879997
 125.2799992  29.1064990  50.9199997 125.2069992  30.0284990  49.0179997
 125.0149992  28.9734990  48.7249997 124.5369992  30.7424990  48.4929997
 126.7299992  30.3264990  48.8929997 126.8049992  31.4324990  48.9549997
 127.1869992  29.9544990  49.8349997 127.3719992  29.7234990  47.6059997
 128.4519992  29.4644990  47.5749997 126.8699992  28.7374990  47.5059997
 127.0899992  30.6134990  46.3539997 126.0249992  30.9294990  46.3559997
 127.8079992  31.4534990  46.4669997 127.3679992  29.6944990  45.1739997
 128.0619992  28.8834990  45.4819997 126.4619992  29.2584990  44.7009997
 128.0469992  30.4144990  44.0049997 127.6909992  29.9424990  43.0639997
 127.6679992  31.4524990  43.8909997 129.5419992  30.4724990  43.9849997
 129.8359992  30.5294990  45.0549997 129.9239992  29.4994990  43.6069997
 130.2999992  31.4684990  43.1279997 129.9259992  32.4074990  43.5899997
 131.3999992  31.4544990  43.2789997 130.0839992  31.4614990  41.6329997
 129.0569992  31.8694990  41.5189997 130.7809992  32.2124990  41.2039997
 130.3489992  30.1914990  40.8639997 130.5509992  30.4424990  39.7999997
 131.1959992  29.6514990  41.3369997 129.1339992  29.3024990  40.6799997
 129.4189992  28.3614990  40.1639997 128.6569992  28.9464990  41.6179997
 128.0249992  29.9484990  39.8999997 127.5109992  30.7834990  40.4229997
 128.4399992  30.2524990  38.9149997 126.8269992  28.9204990  39.5629997
 126.2769992  28.3194990  40.4849997 126.4249992  28.9354990  38.3169997
 125.4339992  27.9584990  38.0459997 125.6359992  27.5324990  37.0399997
 125.3759992  27.1044990  38.7529997 124.0509992  28.6834990  37.7789997
 123.3629992  27.8214990  37.6439997 124.0409992  29.5654990  36.4799997
 124.3599992  28.9894990  35.5849997 122.9459992  29.6144990  36.2939997
 124.7309992  30.7844990  36.7179997 125.2219992  31.4424990  35.3429997
 125.7219992  32.8654990  35.8939997 127.0169992  33.4184990  36.0859997
 127.7949992  32.8774990  35.5059997 127.0589992  34.4944990  35.8149997
 127.4999992  33.4144990  37.5449997 127.5009992  32.3954990  37.9019997
 128.5289992  33.7354990  37.6019997 126.8359992  34.2684990  38.6359997
 126.8379992  35.7364990  38.3759997 126.4389992  36.4004990  39.1289997
 127.8669992  36.0414990  38.2629997 126.2159992  35.9624990  37.5219997
 125.3739992  33.8484990  38.8439997 125.1309992  33.4594990  37.8659997
 125.1569992  33.0164990  39.4979997 124.7139992  34.6394990  39.1689997
 127.5859992  33.9884990  39.8699997 127.2839992  34.7824990  40.5369997
 128.6389992  34.0384990  39.6349997 127.3149992  32.9724990  40.1169997
 126.3599992  30.7234990  34.6319997 124.0009992  31.7584990  34.5259997
 123.6819992  29.5284990  38.8889997 123.2479992  28.9754990  40.0259997
 123.0409992  27.8294990  40.2059997 123.0149992  30.1194990  41.0169997
 121.9789992  30.2184990  41.4039997 123.2619992  31.1144990  40.5879997
 123.9909992  29.9534990  42.2869997 125.0169992  30.1714990  41.9209997
 123.9089992  28.8784990  42.5539997 123.5319992  30.7384990  43.5579997
 124.2369992  30.2574990  44.2689997 122.5159992  30.3544990  43.7899997
 123.5489992  32.2964990  43.5109997 123.1959992  32.7564990  44.4589997
 122.6679992  32.6114990  42.9129997 124.8479992  32.9834990  43.0029997
 125.1639992  32.6124990  42.0039997 125.7029992  32.6024990  43.6019997
 124.9339992  34.5734990  42.9779997 124.1279992  35.0664990  42.3939997
 125.8959992  34.7164990  42.4399997 125.0389992  35.2054990  44.3849997
 125.5639992  36.1844990  44.3799997 125.7529992  34.5244990  44.8959997
 123.7089992  35.3274990  45.0569997 122.9939992  36.0164990  44.5829997
 123.2859992  34.7034990  46.1329997 122.2939992  35.0334990  46.4739997
 124.1109992  33.6344990  46.8629997 124.9489992  33.2784990  46.2269997
 123.4379992  32.7884990  47.1189997 124.9489992  34.0344990  48.0829997
 125.5619992  34.8984990  47.7459997 125.6859992  33.2284990  48.2859997
 124.1629992  34.2634990  49.4009997 123.3339992  33.5244990  49.4309997
 123.8199992  35.3194990  49.3839997 125.0519992  34.1194990  50.5739997
 125.9959992  34.5724990  50.2039997 125.3259992  33.0864990  50.8779997
 124.4769992  34.8144990  51.7509997 124.0639992  35.8324990  51.5839997
 125.2519992  34.8904990  52.5429997 123.3609992  33.9804990  52.4259997
 123.6559992  32.9094990  52.4479997 122.4199992  33.9674990  51.8359997
 122.9169992  34.6324990  53.7009997 122.7669992  35.6944990  53.4099997
 123.7019992  34.3644990  54.4399997 121.5719992  34.0584990  54.2519997
 121.2019992  34.6124990  55.1409997 121.6639992  32.9834990  54.5169997
 120.7259992  34.1364990  53.5359997  15.7469992  89.5234990  54.8059997
  15.0789992  88.7934990  54.3029997  15.3139992  89.6004990  55.8259997
  16.6869992  88.9314990  54.7939997  15.8439992  90.8374990  54.0919997
  14.9069992  91.4334990  54.0459997  16.5309992  91.5794990  54.5519997
  16.4389992  90.5914990  52.7089997  17.4299992  90.0974990  52.6219997
  15.7099992  89.9044990  52.2289997  16.5879992  91.8814990  51.8799997
  15.5549992  92.2864990  51.8209997  17.0739992  92.7024990  52.4499997
  17.2599992  91.7554990  50.5219997  18.3129992  91.3984990  50.5209997
  16.7519992  91.0374990  49.8429997  17.2839992  93.1954990  49.8099997
  17.7649992  93.8864990  50.5339997  17.9709992  93.2474990  48.9389997
  15.9809992  93.6804990  49.2829997  15.2809992  93.9044990  50.1159997
  16.2069992  94.6844990  48.8649997  15.3449992  92.8194990  48.2009997
  15.0819992  91.8424990  48.6599997  14.3999992  93.2434990  47.7999997
  16.3019992  92.3354990  47.0619997  16.9589992  93.1814990  46.7659997
  16.8669992  91.5804990  47.6509997  15.6869992  91.7474990  45.7719997
  15.2119992  92.5284990  45.1409997  16.5739992  91.4314990  45.1829997
  14.6699992  90.7034990  46.0669997  15.1819992  89.7874990  46.4299997
  13.9789992  91.0364990  46.8719997  13.8529992  90.6394990  44.7569997
  13.1239992  91.4714990  44.6519997  14.6099992  90.8184990  43.9639997
  13.0729992  89.3384990  44.7019997  13.8209992  88.5224990  44.7969997
  12.5059992  89.1304990  45.6339997  12.1769992  89.1274990  43.4279997
  12.0599992  88.0244990  43.3629997  11.1979992  89.6244990  43.5969997
  12.6989992  89.7684990  42.1989997  12.6969992  90.8774990  42.2669997
  13.7649992  89.4654990  42.1289997  11.8719992  89.3234990  40.9949997
  10.6689992  89.1734990  41.0689997  12.6349992  89.0984990  39.9209997
  11.8679992  88.6844990  38.7819997  12.6759992  88.1154990  38.2749997
  11.0299992  88.0354990  39.1169997  11.5569992  89.9294990  37.9589997
  11.0549992  89.7304990  36.9879997  12.8359992  90.8264990  37.7299997
  13.6669992  90.1474990  37.4419997  12.5939992  91.5184990  36.8959997
  13.1699992  91.5504990  38.9029997  14.1229992  92.8134990  39.0489997
  14.9929992  92.8894990  37.7059997  16.0209992  92.0294990  37.3419997
  17.0169992  92.3804990  37.6879997  15.7929992  91.0134990  37.7289997
  15.9089992  91.8154990  35.7579997  16.7569992  91.1824990  35.5399997
  15.0289992  91.2254990  35.5459997  15.8709992  93.0094990  34.8669997
  16.1249992  92.4934990  33.4449997  15.3009992  91.8054990  33.3309997
  16.1549992  93.2914990  32.7179997  17.0299992  91.9044990  33.4089997
  14.5199992  93.7154990  34.8909997  13.6459992  93.1114990  34.6929997
  14.4809992  94.1824990  35.8639997  14.5959992  94.4014990  34.0609997
  17.0109992  93.9614990  35.2339997  16.6709992  94.3014990  36.2009997
  17.1509992  94.7804990  34.5449997  17.9229992  93.3844990  35.1809997
  13.1799992  93.9334990  39.0429997  14.9659992  92.6714990  40.2329997
  10.6289992  90.7254990  38.7559997   9.9919992  91.6584990  38.0569997
  10.1439992  91.9934990  36.9019997   8.9079992  92.3114990  39.0129997
   8.4699992  91.4414990  39.5479997   8.0159992  92.7074990  38.4819997
   9.4739992  93.3424990  40.0299997   8.5249992  93.5764990  40.5579997
   9.7469992  94.2764990  39.4929997  10.3939992  92.9314990  41.1269997
  11.2409992  92.4764990  40.5709997   9.8929992  92.1444990  41.7309997
  10.8499992  94.0294990  42.0039997   9.9379992  94.3344990  42.5609997
  11.1659992  94.8024990  41.2709997  12.0729992  93.7344990  42.8599997
  13.0119992  93.6664990  42.2709997  11.9679992  92.8014990  43.4539997
  12.3129992  94.7754990  43.9499997  11.8919992  95.7134990  43.5289997
  13.4179992  94.8194990  44.0659997  11.6789992  94.5064990  45.3779997
  12.1529992  95.2944990  46.0009997  11.9799992  93.5214990  45.7949997
  10.1539992  94.5764990  45.5159997   9.8239992  95.5644990  45.8689997
   9.2569992  93.5224990  45.4159997   8.1689992  93.6444990  45.5249997
   9.5939992  92.0864990  45.1759997  10.5919992  91.9954990  44.6959997
   8.9619992  91.6434990  44.3759997   9.6329992  91.2464990  46.4989997
  10.0829992  90.2554990  46.2809997   8.5659992  91.1214990  46.7839997
  10.5519992  91.7464990  47.6339997  10.3609992  92.7504990  48.0709997
  11.5909992  91.8054990  47.2449997  10.4959992  90.7554990  48.7819997
  10.7459992  89.7224990  48.4589997   9.4379992  90.5654990  49.0619997
  11.1779992  91.2094990  50.0829997  10.9009992  92.2444990  50.3749997
  12.2589992  91.2874990  49.8359997  11.1219992  90.2514990  51.2979997
  11.4229992  89.2074990  51.0629997  10.0839992  90.2734990  51.6929997
  11.9939992  90.6514990  52.5469997  13.0729992  90.5684990  52.2989997
  11.6919992  89.8324990  53.2349997  11.8429992  92.0484990  53.0749997
  10.8029992  92.2354990  53.4199997  11.9539992  92.8044990  52.2689997
  12.5039992  92.2044990  53.9539997 133.2109992  93.8934990  52.8079997
 133.3419992  94.8674990  53.3249997 133.9239992  93.8304990  51.9579997
 133.4979992  93.1804990  53.6099997 131.7919992  93.7374990  52.2529997
 131.5139992  92.7034990  51.9569997 131.1379992  93.8264990  53.1459997
 131.3379992  94.8054990  51.2709997 130.5119992  94.3404990  50.6909997
 130.9849992  95.7044990  51.8199997 132.3499992  95.2734990  50.1459997
 131.7399992  95.9904990  49.5549997 133.2699992  95.8334990  50.4189997
 132.6829992  94.1054990  49.0529997 132.9699992  93.2664990  49.7219997
 131.7869992  93.7874990  48.4779997 133.7049992  94.6784990  47.9759997
 134.6749992  94.7684990  48.5079997 133.8109992  94.0374990  47.0749997
 133.2449992  96.0744990  47.4259997 132.2039992  96.0064990  47.0429997
 133.2779992  96.7954990  48.2719997 134.1079992  96.6764990  46.2829997
 135.1169992  96.3114990  46.5729997 133.9929992  96.0774990  45.3539997
 134.0139992  98.1974990  46.1599997 132.9549992  98.5044990  46.0269997
 134.3629992  98.6334990  47.1209997 134.8109992  98.9124990  45.0529997
 134.5919992  99.9974990  44.9669997 135.8909992  98.7254990  45.2349997
 134.3739992  98.3374990  43.6859997 134.8209992  97.3374990  43.5009997
 133.2649992  98.2794990  43.6499997 134.8669992  99.1854990  42.5499997
 134.6299992 100.2644990  42.6669997 135.9609992  99.0554990  42.4069997
 134.1649992  98.7624990  41.1859997 133.0869992  99.0184990  41.1139997
 134.7119992  99.3834990  40.4439997 134.3189992  97.3524990  40.7599997
 135.0959992  96.7834990  41.3139997 133.4989992  96.6544990  41.0349997
 134.4939992  97.1304990  39.2689997 133.5379992  97.1214990  38.7029997
 135.1659992  97.9324990  38.8949997 135.0609992  95.7054990  38.9429997
 135.6959992  94.9554990  39.6879997 134.7689992  95.5144990  37.6829997
 134.9109992  94.1494990  37.2439997 135.4859992  94.2404990  36.2979997
 135.4699992  93.4514990  37.9019997 133.4799992  93.5674990  36.9219997
 133.6879992  92.5284990  36.5879997 132.7019992  94.3104990  35.8639997
 133.3869992  94.4214990  34.9959997 131.8489992  93.6744990  35.5439997
 132.2229992  95.5714990  36.3569997 132.1319992  96.7944990  35.3129997
 130.9699992  97.7114990  35.8989997 129.7929992  97.2114990  36.5629997
 128.8669992  97.6554990  36.1409997 129.6209992  96.1164990  36.4759997
 129.7479992  97.4504990  38.0479997 128.8039992  97.0824990  38.4219997
 130.4499992  96.9364990  38.6869997 129.9169992  98.8424990  38.5729997
 131.3939992  99.3074990  38.3759997 132.1169992  98.5714990  38.6939997
 131.4859992  99.5754990  37.3339997 131.4709992 100.2224990  38.9439997
 129.0569992  99.8174990  37.8089997 129.5299992 100.1634990  36.9019997
 128.1329992  99.3294990  37.5339997 128.9399992 100.7274990  38.3779997
 129.6249992  98.8624990  40.0599997 129.6429992  99.8374990  40.5239997
 130.2779992  98.1904990  40.5969997 128.5959992  98.6034990  40.2619997
 133.3519992  97.6484990  35.4919997 131.7859992  96.2624990  33.9829997
 132.7929992  93.5474990  38.1249997 131.6779992  92.8994990  38.3399997
 131.0389992  92.3334990  37.4699997 131.3119992  93.0474990  39.7849997
 132.1439992  93.6084990  40.2629997 131.3449992  92.1344990  40.4169997
 129.9969992  93.8414990  39.9249997 129.2139992  93.4014990  39.2709997
 130.2179992  94.8854990  39.6149997 129.4409992  93.9154990  41.3489997
 129.4689992  92.9334990  41.8669997 128.3589992  94.1494990  41.4439997
 130.1969992  94.8514990  42.3149997 131.2739992  94.8554990  42.0419997
 130.1339992  94.2654990  43.2569997 129.6149992  96.2984990  42.4719997
 128.5159992  96.1534990  42.5439997 129.9549992  96.8394990  41.5629997
 130.1129992  97.0814990  43.6949997 129.4949992  97.9614990  43.9719997
 131.1179992  97.5114990  43.4949997 130.3489992  96.2804990  44.9849997
 130.7329992  96.9894990  45.7499997 131.2249992  95.6134990  44.8369997
 129.1169992  95.5534990  45.4219997 128.9669992  94.5114990  45.1049997
 128.2159992  96.2674990  46.0949997 127.2259992  95.8524990  46.3339997
 128.2939992  97.7294990  46.4659997 127.3169992  98.1454990  46.1389997
 129.1989992  98.3014990  46.1679997 128.2369992  98.0054990  47.9409997
 127.4699992  97.3884990  48.4549997 127.8389992  99.0354990  48.0689997
 129.5769992  97.9074990  48.6549997 130.2549992  98.6404990  48.1669997
 130.0639992  96.9104990  48.5899997 129.5219992  98.2604990  50.1699997
 129.4859992  99.3634990  50.3019997 130.5079992  98.0434990  50.6349997
 128.4209992  97.5734990  50.9869997 128.3919992  96.4714990  50.8549997
 127.3739992  97.7734990  50.6709997 128.4619992  97.9534990  52.4599997
 128.4139992  99.0464990  52.6579997 129.4109992  97.6764990  52.9679997
 127.3549992  97.2774990  53.2629997 127.6739992  96.2254990  53.4229997
 126.4269992  97.2444990  52.6529997 127.0289992  97.9354990  54.6319997
 126.5969992  98.9584990  54.6229997 127.8999992  98.0954990  55.3019997
 126.2959992  97.2174990  55.0589997  15.7999992  30.7224990  57.0239997
  16.5219992  30.0984990  57.5919997  15.5269992  30.1624990  56.1039997
  14.8939992  30.9784990  57.6149997  16.4089992  32.0814990  56.5389997
  16.6969992  32.7694990  57.3619997  17.3869992  31.8984990  56.0449997
  15.4329992  32.8334990  55.6289997  14.4259992  32.6944990  56.0779997
  15.5649992  33.9344990  55.6859997  15.4139992  32.3104990  54.1839997
  16.4559992  32.0074990  53.9459997  14.6079992  31.6034990  53.8959997
  15.3159992  33.3294990  53.0069997  14.2719992  33.7024990  53.0869997
  16.1309992  34.0364990  53.2729997  15.6849992  32.8524990  51.5759997
  15.3229992  33.6244990  50.8639997  16.7959992  32.8914990  51.5679997
  15.2139992  31.4714990  51.1709997  15.7549992  30.7574990  51.8279997
  14.1249992  31.3554990  51.3609997  15.4649992  31.0824990  49.6869997
  16.4519992  31.4644990  49.3469997  15.3389992  29.9894990  49.5369997
  14.3729992  31.8314990  48.8339997  13.3699992  31.3794990  48.9919997
  14.3949992  32.9314990  48.9899997  14.7959992  31.7614990  47.3719997
  14.2629992  32.4844990  46.7169997  15.8149992  32.1844990  47.5029997
  14.9699992  30.3154990  46.8239997  15.8669992  29.9504990  47.3679997
  14.1889992  29.6254990  47.2099997  15.2019992  30.2514990  45.3319997
  14.2459992  30.5274990  44.8369997  15.9369992  31.0044990  44.9739997
  15.6149992  28.8854990  44.7619997  16.4959992  28.5174990  45.3299997
  14.7799992  28.1874990  44.9859997  15.9089992  28.7014990  43.2429997
  16.7619992  29.3484990  42.9449997  16.1169992  27.6314990  43.0299997
  14.6799992  29.0064990  42.2729997  14.9489992  28.7704990  41.2219997
  13.8849992  28.2484990  42.4429997  14.0999992  30.3974990  42.2379997
  12.9879992  30.7794990  42.5979997  14.9779992  31.2314990  41.6459997
  14.8099992  32.6174990  41.6459997  13.7669992  32.9444990  41.4499997
  15.2199992  32.9794990  42.6129997  15.6819992  33.1344990  40.4009997
  15.5589992  34.2384990  40.4339997  15.0379992  32.6134990  39.1379997
  15.0339992  31.5044990  39.0629997  13.9899992  32.9534990  38.9979997
  15.8609992  33.1164990  38.0579997  15.5119992  32.7744990  36.5279997
  16.3719992  31.4324990  36.3539997  17.5979992  31.6734990  35.6439997
  17.3809992  31.5744990  34.5589997  18.0729992  32.6704990  35.7679997
  18.6649992  30.5734990  36.0759997  18.2809992  29.6874990  35.5919997
  19.6209992  30.7694990  35.6139997  18.9499992  30.3334990  37.5799997
  17.6879992  29.8454990  38.2919997  16.8769992  30.5374990  38.1179997
  17.2159992  28.9594990  37.8929997  17.8589992  29.7564990  39.3539997
  20.0419992  29.2524990  37.7439997  20.2279992  29.0024990  38.7779997
  19.7019992  28.4424990  37.1149997  20.8529992  29.5664990  37.1039997
  19.4289992  31.6884990  38.0849997  20.3369992  31.8814990  37.5339997
  19.7029992  31.5964990  39.1259997  18.7889992  32.5454990  37.9359997
  14.0819992  32.5574990  36.4599997  15.9749992  33.8394990  35.6509997
  17.0819992  32.7344990  40.5909997  17.8239992  33.5684990  41.2289997
  17.5689992  34.6914990  41.6779997  19.1929992  32.8894990  41.4999997
  19.9409992  33.1094990  40.7089997  18.9679992  31.8044990  41.5799997
  19.8399992  33.5464990  42.7979997  19.7209992  34.6464990  42.6899997
  20.9379992  33.3864990  42.8609997  19.2569992  33.0824990  44.1509997
  18.1509992  33.0044990  44.0859997  19.5459992  33.9504990  44.7809997
  20.0469992  31.7984990  44.5899997  21.1289992  32.0114990  44.4569997
  19.8099992  30.9224990  43.9479997  19.9029992  31.5304990  46.0639997
  18.9469992  31.0224990  46.3119997  20.1029992  32.4674990  46.6259997
  20.9509992  30.5874990  46.5929997  21.9269992  31.0574990  46.3439997
  20.8699992  29.6054990  46.0809997  20.8519992  30.4134990  48.1789997
  19.8099992  30.1284990  48.4369997  20.9879992  31.3584990  48.7469997
  21.7869992  29.3774990  48.6979997  22.6299992  29.2374990  48.0059997
  21.6529992  28.6594990  49.7279997  22.2889992  27.7764990  49.8889997
  20.5219992  28.7154990  50.7069997  20.6169992  27.8884990  51.4419997
  19.5229992  28.5094990  50.2679997  20.3629992  29.9724990  51.5239997
  20.5219992  30.8944990  50.9249997  21.2089992  29.9704990  52.2449997
  19.0509992  30.0964990  52.3469997  18.7939992  29.0284990  52.5129997
  18.3059992  30.5584990  51.6649997  19.3509992  30.8914990  53.6259997
  20.0859992  30.3344990  54.2449997  18.4939992  31.0374990  54.3179997
  19.8559992  32.3204990  53.4439997  19.1889992  32.9114990  52.7809997
  20.8349992  32.2494990  52.9229997  19.9369992  33.1614990  54.8109997
  20.7009992  32.6024990  55.3929997  18.9489992  33.1524990  55.3189997
  20.3839992  34.6074990  54.5699997  19.7189992  35.0624990  53.8049997
  21.4329992  34.6624990  54.2089997  20.1319992  35.3744990  55.9029997
  19.1199992  35.1914990  56.3229997  20.1709992  36.4744990  55.7529997
  20.8549992  34.9654990  56.6399997   8.9789992  60.0924990  58.0799997
   9.2509992  59.0204990  57.9789997   8.6559992  60.3254990  59.1169997
   9.8859992  60.7164990  57.9299997   7.9609992  60.4384990  57.0129997
   6.9869992  60.0234990  57.3509997   7.8419992  61.5284990  56.8319997
   8.0199992  59.6774990  55.7089997   8.9479992  59.9844990  55.1809997
   8.0469992  58.5884990  55.9289997   6.8169992  60.0194990  54.7669997
   5.8689992  59.7204990  55.2629997   6.6499992  61.1114990  54.6479997
   6.9629992  59.3394990  53.3919997   7.1719992  58.2544990  53.5049997
   6.0099992  59.3194990  52.8219997   8.0039992  59.9014990  52.3169997
   7.7129992  60.9144990  51.9659997   8.9839992  59.9304990  52.8389997
   8.1179992  58.9154990  51.0349997   8.6339992  57.9724990  51.3159997
   7.0759992  58.7224990  50.7029997   8.8799992  59.5634990  49.9219997
   8.7749992  60.6644990  50.0239997   9.9589992  59.3044990  49.9819997
   8.3119992  59.1484990  48.5259997   8.2639992  58.0534990  48.3439997
   7.2709992  59.4904990  48.3429997   9.1189992  59.7644990  47.4219997
   8.7069992  59.5274990  46.4169997   9.0939992  60.8684990  47.5469997
  10.5259992  59.1914990  47.3279997  11.0839992  59.3504990  48.2749997
  10.5279992  58.1134990  47.0579997  11.4109992  60.0194990  46.3069997
  11.3969992  61.0774990  46.6459997  12.4459992  59.6164990  46.3379997
  10.9259992  59.9544990  44.8879997   9.8309992  60.1364990  44.9189997
  11.4079992  60.7074990  44.2279997  11.1679992  58.5474990  44.3739997
  12.2579992  58.3374990  44.3429997  10.7009992  57.8154990  45.0669997
  10.5269992  58.2464990  43.0169997  10.8709992  59.0054990  42.2819997
  10.7839992  57.2134990  42.6979997   9.0639992  58.0814990  42.9869997
   8.3559992  57.1894990  43.4139997   8.6059992  59.1994990  42.3719997
   7.1689992  59.3824990  42.3879997   6.6629992  58.5174990  41.9089997
   6.8019992  59.4954990  43.4299997   6.7639992  60.5464990  41.5099997
   5.7179992  60.7534990  41.8229997   6.7919992  60.1264990  40.0419997
   7.7569992  59.6564990  39.7569997   5.9879992  59.3684990  39.9259997
   6.5509992  61.2404990  39.1919997   7.2589992  61.3994990  37.7869997
   8.5769992  60.4964990  37.7559997   9.7879992  61.1014990  38.2799997
   9.6159992  61.7364990  39.1759997  10.3809992  60.2774990  38.7309997
  10.5509992  61.8284990  37.1759997  10.0909992  62.8044990  37.1269997
  11.5399992  61.7814990  37.6069997  10.7709992  61.2564990  35.8169997
  11.1139992  59.8074990  36.0239997  12.1259992  59.6704990  36.3779997
  10.4009992  59.2914990  36.6499997  11.1639992  59.3764990  35.0349997
   9.5559992  61.4794990  34.9359997   9.5999992  61.0684990  33.9379997
   8.8439992  60.8194990  35.4089997   9.1619992  62.4824990  34.8699997
  11.8729992  61.9784990  35.1159997  11.9619992  61.4904990  34.1559997
  12.7999992  61.9114990  35.6659997  11.6069992  62.9784990  34.8049997
   6.3279992  60.7104990  36.7789997   7.6629992  62.8204990  37.6089997
   7.6709992  61.6554990  41.7669997   7.1189992  62.9224990  41.6299997
   5.9669992  63.1234990  41.3519997   8.2169992  64.0224990  41.7449997
   7.5689992  64.9214990  41.8199997   8.8859992  63.9664990  40.8599997
   8.9969992  63.7364990  43.0609997   9.1449992  62.6604990  43.2949997
   8.3299992  64.0094990  43.9059997  10.2569992  64.5354990  43.1039997
  10.0609992  65.6254990  43.1889997  10.8319992  64.5014990  42.1539997
  11.2709992  64.1794990  44.2749997  12.1399992  64.8694990  44.2179997
  11.5669992  63.1284990  44.0669997  10.6119992  64.3394990  45.6679997
  11.4509992  63.9484990  46.2839997   9.7359992  63.6624990  45.7639997
  10.1319992  65.7394990  46.1049997   9.2049992  66.1094990  45.6179997
  10.9239992  66.4384990  45.7589997  10.0669992  66.0064990  47.6569997
   9.7179992  67.0544990  47.7749997  11.1199992  65.9644990  48.0089997
   9.1189992  65.0534990  48.3599997   8.0879992  65.1834990  47.9999997
   9.3119992  64.1674990  49.3899997   8.4029992  63.6264990  49.6919997
  10.6149992  63.8804990  50.0969997  11.4409992  63.9854990  49.3619997
  10.6159992  62.8314990  50.4639997  10.9529992  64.8474990  51.3079997
  10.9419992  65.9014990  50.9549997  11.9529992  64.5774990  51.7099997
   9.8339992  65.0044990  52.3989997   8.8439992  65.3574990  52.0399997
  10.2499992  65.7094990  53.1509997   9.8239992  63.7094990  53.2419997
  10.7979992  63.3984990  53.6749997   9.4109992  62.8424990  52.6839997
   8.7079992  63.7344990  54.3919997   8.5369992  62.7144990  54.7969997
   7.7379992  64.0114990  53.9239997   9.1339992  64.6294990  55.4679997
   9.1149992  65.6864990  55.1249997  10.2059992  64.3994990  55.6499997
   8.4799992  64.4924990  56.8289997   8.9309992  65.2904990  57.4559997
   8.6849992  63.5124990  57.3099997   6.9559992  64.6364990  56.7319997
   6.3959992  64.2304990  57.6019997   6.5519992  63.9944990  55.9199997
   6.7149992  65.7054990  56.5479997  20.0769992 105.6404990  57.0059997
  19.9279992 105.3684990  55.9389997  19.3539992 106.4624990  57.1939997
  19.8789992 104.7024990  57.5659997  21.5429992 105.9824990  57.2779997
  21.7889992 106.9724990  56.8369997  21.6159992 106.0194990  58.3859997
  22.5329992 104.9374990  56.7479997  23.4929992 105.4394990  56.9909997
  22.4729992 104.0774990  57.4479997  22.3559992 104.4184990  55.3339997
  23.1939992 103.7274990  55.0999997  21.4599992 103.7644990  55.2729997
  22.4399992 105.5124990  54.2699997  21.8879992 106.4194990  54.5979997
  23.4789992 105.9004990  54.2159997  22.0009992 105.0514990  52.8619997
  20.9319992 104.7484990  52.8439997  22.2569992 105.8364990  52.1179997
  22.6679992 103.7544990  52.3319997  23.7549992 103.9404990  52.1989997
  22.4259992 102.9464990  53.0559997  22.0179992 103.1464990  51.0109997
  22.7629992 102.4304990  50.6019997  21.0729992 102.6804990  51.3649997
  21.7969992 104.2384990  49.9749997  21.1909992 105.0604990  50.4129997
  22.7359992 104.7064990  49.6089997  21.0819992 103.7524990  48.6379997
  21.7319992 102.9394990  48.2489997  20.0759992 103.3114990  48.8079997
  21.2559992 104.7854990  47.4379997  20.7579992 105.7594990  47.6319997
  22.3439992 104.9724990  47.3209997  20.8019992 104.2764990  45.9799997
  21.4489992 103.4714990  45.5719997  19.7399992 103.9494990  46.0149997
  20.6969992 105.4174990  44.9049997  21.3529992 106.2724990  45.1769997
  21.2069992 105.0744990  43.9799997  19.3879992 105.6844990  44.3559997
  18.7529992 104.8464990  43.9959997  18.6839992 105.8994990  45.1879997
  19.3429992 106.8734990  43.3049997  18.2879992 107.2194990  43.3449997
  20.0169992 107.6234990  43.7719997  19.6519992 106.4424990  41.9279997
  19.9719992 105.3354990  41.5839997  19.6579992 107.5034990  41.1859997
  20.3569992 107.4354990  39.9389997  21.2769992 106.8164990  40.0139997
  19.7209992 107.0134990  39.1309997  20.8439992 108.8324990  39.4009997
  19.9809992 109.4974990  39.1819997  21.7579992 108.5814990  38.1389997
  21.3129992 107.9124990  37.3719997  21.8719992 109.5584990  37.6219997
  22.9759992 108.1424990  38.6049997  23.7999992 106.8074990  38.1519997
  22.5769992 105.9234990  37.7439997  22.5799992 104.4794990  37.9009997
  23.5339992 104.1124990  38.3369997  21.8949992 104.1824990  38.7239997
  22.2319992 103.6364990  36.6469997  23.1069992 103.4064990  36.0569997
  21.7679992 102.7114990  36.9559997  21.3959992 104.2184990  35.5789997
  22.0899992 105.3284990  34.8039997  22.9989992 105.0924990  34.2719997
  21.4439992 105.8024990  34.0799997  22.3149992 106.0924990  35.5339997
  20.9399992 103.1644990  34.6179997  21.7629992 102.7304990  34.0709997
  20.3919992 102.4254990  35.1849997  20.3389992 103.6954990  33.8939997
  20.1779992 104.9064990  36.1209997  19.7579992 104.1724990  36.7929997
  19.5049992 105.1834990  35.3239997  20.4699992 105.7854990  36.6769997
  24.5909992 107.1464990  36.9679997  24.4879992 106.2774990  39.3319997
  21.6329992 109.4284990  40.4269997  21.8599992 110.7344990  40.3499997
  21.4829992 111.4734990  39.4819997  22.7859992 111.1534990  41.5739997
  23.4939992 111.8634990  41.0939997  23.2319992 110.1914990  41.9049997
  21.9859992 111.7514990  42.6459997  20.9819992 111.2774990  42.6779997
  21.5859992 112.7364990  42.3229997  22.6189992 111.7464990  44.0659997
  22.0079992 112.4364990  44.6859997  23.6449992 112.1684990  44.0059997
  22.5099992 110.4564990  44.9499997  23.1979992 109.7334990  44.4599997
  21.4559992 110.1214990  44.8509997  22.9079992 110.6694990  46.4129997
  21.9879992 111.1354990  46.8259997  23.6939992 111.4384990  46.5719997
  23.2339992 109.4394990  47.2529997  24.1629992 108.9954990  46.8339997
  22.4579992 108.6774990  47.0259997  23.2819992 109.6824990  48.8449997
  22.9379992 108.7534990  49.3479997  22.5789992 110.5244990  49.0199997
  24.6729992 110.1564990  49.1679997  24.9279992 111.1364990  48.7379997
  25.6219992 109.5994990  49.9059997  26.6309992 110.0364990  49.9099997
  25.4709992 108.3034990  50.6939997  26.5329992 108.0044990  50.8249997
  24.7599992 107.5624990  50.2699997  24.9049992 108.3904990  52.1209997
  25.6319992 108.8724990  52.8089997  24.8449992 107.3564990  52.5219997
  23.5479992 109.0304990  52.1329997  22.8439992 108.2494990  51.7719997
  23.4669992 109.9024990  51.4489997  23.1419992 109.4834990  53.5589997
  23.8719992 110.1704990  54.0379997  23.1099992 108.5044990  54.0839997
  21.7939992 110.1404990  53.7109997  21.9419992 111.1614990  53.3009997
  21.5989992 110.2214990  54.8019997  20.5929992 109.3004990  53.0999997
  20.7039992 108.3544990  53.6729997  20.8249992 109.0754990  52.0369997
  19.2549992 109.9964990  53.2789997  18.4919992 109.2774990  52.9109997
  19.2599992 110.8854990  52.6119997  18.8669992 110.4044990  54.7419997
  18.7659992 109.4334990  55.2709997  17.8609992 110.8494990  54.8929997
  19.5179992 111.1094990  55.3019997   9.5579992  67.1264990  55.4449997
  10.6649992  67.0394990  55.4519997   9.1739992  66.2444990  54.8899997
   9.1689992  67.0674990  56.4839997   9.0239992  68.3464990  54.6599997
   7.9269992  68.4924990  54.7579997   9.4039992  69.3114990  55.0599997
   9.5919992  68.3644990  53.2669997  10.6689992  68.5974990  53.4049997
   9.5859992  67.3394990  52.8379997   8.9149992  69.3614990  52.2349997
   7.8129992  69.2284990  52.2259997   9.1239992  70.4374990  52.4229997
   9.3089992  68.9164990  50.7809997  10.4119992  68.7904990  50.7549997
   8.8779992  67.9354990  50.4869997   8.9159992  69.9674990  49.7579997
   7.8049992  69.9854990  49.7199997   9.2109992  71.0054990  50.0239997
   9.3809992  69.6934990  48.3249997  10.4789992  69.8434990  48.4009997
   9.0229992  68.7074990  47.9589997   8.7499992  70.7264990  47.3369997
   7.8839992  70.2924990  46.7929997   8.2319992  71.5274990  47.9069997
   9.8689992  71.3944990  46.4559997   9.4609992  72.3124990  45.9809997
  10.6519992  71.6814990  47.1899997  10.6259992  70.5724990  45.4049997
  11.2709992  71.2644990  44.8229997  11.2139992  69.7984990  45.9439997
   9.7159992  69.8714990  44.3289997   9.0619992  69.1594990  44.8769997
   9.1039992  70.6394990  43.8079997  10.5129992  69.1124990  43.2809997
  10.8829992  69.8314990  42.5199997  11.3499992  68.5774990  43.7789997
   9.6469992  68.0484990  42.4799997   8.7799992  68.6584990  42.1479997
  10.3429992  67.7044990  41.6849997   9.0379992  66.8824990  43.3389997
   9.8809992  66.2754990  43.7309997   8.4389992  67.1994990  44.2189997
   8.0549992  65.9134990  42.6749997   8.4549992  65.6084990  41.6849997
   7.8919992  65.0684990  43.3769997   6.7829992  66.7254990  42.4489997
   6.0039992  67.0804990  43.2559997   6.6239992  66.8674990  41.0909997
   5.3349992  67.4134990  40.7219997   4.9879992  66.8724990  39.8159997
   4.5859992  67.2914990  41.5339997   5.5449992  68.8894990  40.3249997
   4.6299992  69.2024990  39.7789997   6.8199992  69.0544990  39.3469997
   7.7339992  69.0684990  39.9789997   6.9969992  68.1424990  38.7359997
   6.7249992  70.2824990  38.6669997   6.4709992  70.5384990  37.2249997
   7.8529992  70.2944990  36.5289997   9.0899992  70.3084990  37.1919997
   9.7809992  70.6774990  36.4049997   9.3079992  71.0214990  38.0159997
   9.5489992  68.8594990  37.6639997  10.3189992  68.9404990  38.4169997
   8.7249992  68.4664990  38.2429997   9.9559992  67.8804990  36.6259997
   8.8149992  67.6394990  35.6009997   9.1539992  66.9024990  34.8879997
   7.9919992  67.2274990  36.1659997   8.5179992  68.6084990  35.2299997
  11.1299992  68.3204990  35.7999997  10.8059992  68.9154990  34.9579997
  11.8069992  68.9164990  36.3939997  11.6599992  67.4444990  35.4559997
  10.2549992  66.5154990  37.3199997  11.0189992  66.6524990  38.0699997
  10.6399992  65.7574990  36.6539997   9.3409992  66.1654990  37.7769997
   5.4419992  69.6604990  36.7289997   6.3279992  72.0124990  37.1179997
   5.7919992  69.6704990  41.4329997   5.0769992  70.6354990  41.9429997
   4.0449992  71.1104990  41.4289997   5.7619992  71.2164990  43.2199997
   6.5599992  71.9114990  42.8819997   6.4099992  70.4254990  43.6549997
   4.7979992  71.7884990  44.2079997   4.0509992  71.0564990  44.5809997
   4.2619992  72.5274990  43.5739997   5.5069992  72.4874990  45.4239997
   6.1539992  73.3164990  45.0649997   6.1149992  71.6124990  45.7369997
   4.6229992  72.8414990  46.6169997   3.9899992  73.6914990  46.2879997
   5.3899992  73.1474990  47.3609997   3.7569992  71.7114990  47.1449997
   4.2409992  70.7134990  47.0799997   2.8089992  71.7014990  46.5649997
   3.4949992  71.9664990  48.6779997   2.6559992  71.2874990  48.9409997
   3.0169992  72.9674990  48.7469997   4.7829992  71.9544990  49.5309997
   5.1259992  72.9614990  49.8489997   5.5869992  71.5764990  48.8629997
   4.5769992  71.0464990  50.7159997   4.5549992  71.5424990  51.6969997
   4.7759992  69.7724990  50.7859997   4.5379992  69.3254990  51.7619997
   5.1919992  68.8634990  49.6469997   6.2679992  68.6034990  49.7429997
   5.0829992  69.4404990  48.7039997   4.3779992  67.5604990  49.4049997
   4.6889992  67.2644990  48.3799997   3.3109992  67.8474990  49.2839997
   4.5349992  66.4724990  50.4979997   5.4609992  66.6244990  51.0919997
   4.6419992  65.5444990  49.8959997   3.3029992  66.3834990  51.4419997
   2.3539992  66.1734990  50.9039997   3.1209992  67.3374990  51.9819997
   3.4059992  65.3114990  52.5319997   3.4919992  64.4184990  51.8759997
   2.4869992  65.0944990  53.1169997   4.5489992  65.3634990  53.5019997
   5.5859992  65.3424990  53.1039997   4.5379992  64.4634990  54.1519997
   4.5889992  66.6154990  54.5019997   3.5899992  66.8574990  54.9249997
   4.8469992  67.4834990  53.8589997   5.6989992  66.5494990  55.5319997
   5.5399992  65.8504990  56.3809997   5.6399992  67.5614990  55.9869997
   6.6389992  66.2364990  55.0299997   8.2699992  52.8474990  57.9949997
   7.1999992  52.5964990  58.1559997   8.3049992  53.2034990  56.9429997
   8.4409992  53.7164990  58.6669997   9.1449992  51.5084990  58.1249997
  10.1629992  51.8534990  57.8429997   9.0379992  51.1084990  59.1549997
   8.7589992  50.4004990  57.0389997   9.3519992  49.4744990  57.1969997
   7.7029992  50.1224990  57.2439997   8.8829992  50.6874990  55.5859997
   8.3989992  49.8644990  55.0169997   8.1169992  51.4814990  55.4509997
  10.2309992  51.0434990  55.0369997  10.3469992  52.1314990  54.8469997
  10.9329992  50.8204990  55.8689997  10.4389992  50.2004990  53.7759997
  11.5149992  50.3314990  53.5319997  10.2789992  49.1324990  54.0389997
   9.5689992  50.7104990  52.5999997   8.5019992  50.6594990  52.9049997
   9.7759992  51.7774990  52.3739997   9.6639992  49.7474990  51.4489997
   9.1219992  48.8184990  51.7259997   9.1869992  50.1004990  50.5099997
  11.0149992  49.2884990  50.8649997  11.5739992  48.7224990  51.6399997
  10.7989992  48.5144990  50.0979997  11.9979992  50.4014990  50.4389997
  12.3539992  50.9784990  51.3189997  12.8639992  49.9174990  49.9389997
  11.5149992  51.3144990  49.3949997  10.7089992  51.9654990  49.7969997
  12.3659992  51.9564990  49.0809997  10.9839992  50.6504990  48.0619997
  10.1259992  49.9614990  48.2179997  10.4859992  51.4694990  47.5009997
  11.9819992  50.2134990  47.1029997  12.6229992  51.0374990  46.7239997
  12.6279992  49.4474990  47.5829997  11.3749992  49.6094990  45.7799997
  12.1659992  49.1164990  45.1749997  10.5129992  48.9474990  46.0069997
  10.8019992  50.7144990  44.7719997  10.0159992  51.3454990  45.2389997
  11.6839992  51.3764990  44.6339997  10.4369992  49.9474990  43.4719997
  10.2569992  48.7644990  43.3909997  10.4719992  50.7964990  42.4939997
  10.0739992  50.2364990  41.1669997  10.7909992  50.5814990  40.3919997
  10.1569992  49.1284990  41.1399997   8.6419992  50.7774990  40.7349997
   8.0349992  50.4584990  41.6089997   8.0699992  50.0984990  39.4379997
   8.0119992  49.0494990  39.7999997   7.0219992  50.4344990  39.2879997
   8.9439992  50.1864990  38.3239997   8.3719992  50.9424990  36.9979997
   8.4389992  52.3824990  37.5269997   7.8419992  53.3814990  36.6639997
   8.0129992  53.2244990  35.5769997   6.7339992  53.3424990  36.7309997
   8.2509992  54.8434990  36.9569997   7.5929992  55.5224990  36.4349997
   7.9859992  54.9814990  37.9949997   9.7019992  55.3464990  36.8369997
  10.5829992  54.1264990  37.0979997  10.4469992  53.4814990  37.9529997
  10.3519992  53.4804990  36.2639997  11.6179992  54.4224990  37.1779997
  10.0629992  55.9034990  35.5159997  11.0269992  56.3654990  35.6749997
  10.3229992  55.2784990  34.6749997   9.3909992  56.7124990  35.2709997
   9.9669992  56.4364990  37.8639997   9.4339992  56.1294990  38.7529997
   9.6239992  57.3814990  37.4679997  11.0079992  56.4554990  38.1489997
   9.3819992  50.8174990  35.9549997   6.9989992  50.6514990  36.7319997
   8.7289992  52.2054990  40.6619997   7.6769992  52.8524990  41.0679997
   6.6409992  52.4404990  41.5569997   7.9779992  54.3724990  41.0029997
   7.1289992  54.7634990  40.4029997   8.8599992  54.7104990  40.4169997
   8.1039992  55.0944990  42.2799997   7.3889992  54.6664990  43.0159997
   7.7779992  56.1514990  42.1779997   9.5449992  55.1164990  42.7829997
   9.8419992  56.1484990  42.4959997  10.3179992  54.3664990  42.5099997
   9.6649992  55.1854990  44.2939997   9.1669992  56.1114990  44.6539997
  10.7349992  55.1744990  44.5939997   9.0509992  53.9794990  45.0419997
   9.2289992  53.0054990  44.5369997   7.9429992  53.9864990  45.1299997
   9.3439992  53.8804990  46.5569997  10.4539992  53.8964990  46.6049997
   9.0999992  52.8754990  46.9619997   8.6059992  54.9474990  47.4189997
   8.7979992  55.9924990  47.0949997   9.1039992  54.9624990  48.4119997
   7.1549992  54.7154990  47.5539997   6.4589992  55.3484990  46.9849997
   6.6029992  53.8624990  48.4249997   5.5109992  53.9144990  48.5399997
   7.3639992  52.9414990  49.4169997   8.4469992  53.0894990  49.2149997
   7.1959992  51.8524990  49.2789997   7.2739992  53.2894990  50.9299997
   7.7889992  52.5314990  51.5579997   6.2179992  53.0494990  51.1759997
   7.8019992  54.7424990  51.3809997   6.9929992  55.3884990  50.9789997
   8.6759992  55.0054990  50.7469997   8.0079992  54.8884990  52.8449997
   8.9199992  54.2754990  53.0069997   7.2589992  54.4934990  53.5649997
   8.3659992  56.3204990  53.3389997   7.4909992  57.0044990  53.3679997
   9.1309992  56.7004990  52.6269997   9.0999992  56.3684990  54.6499997
   9.1859992  57.4284990  54.9729997  10.1529992  56.0354990  54.5309997
   8.4699992  55.6364990  55.7989997   9.2369992  55.6464990  56.6029997
   8.3689992  54.6084990  55.3899997   7.0859992  56.1974990  56.3459997
   7.1679992  57.2834990  56.5629997   6.7939992  55.6444990  57.2649997
   6.2859992  55.9744990  55.6089997  38.2039992  11.7374990  53.6639997
  37.5799992  11.6854990  54.5809997  37.6789992  12.3784990  52.9239997
  39.0909992  12.2894990  54.0419997  38.5259992  10.3754990  53.2319997
  39.0669992  10.4864990  52.2679997  39.2809992   9.9594990  53.9329997
  37.3249992   9.3814990  53.0919997  37.6959992   8.3704990  52.8169997
  36.7819992   9.3194990  54.0589997  36.2919992   9.7144990  51.9539997
  35.7099992   8.7884990  51.7599997  35.6269992  10.4974990  52.3749997
  36.9529992  10.0754990  50.6209997  37.1869992  11.1544990  50.7419997
  37.8909992   9.4984990  50.4769997  36.0069992   9.6994990  49.4459997
  34.9829992  10.0394990  49.7109997  36.3269992  10.2984990  48.5659997
  35.9439992   8.2384990  48.9759997  35.5739992   7.6124990  49.8159997
  35.1699992   8.1664990  48.1819997  37.3919992   7.7714990  48.5599997
  37.9039992   8.6754990  48.1649997  37.8789992   7.3714990  49.4749997
  37.4169992   6.6724990  47.5039997  36.8599992   7.1274990  46.6569997
  38.4809992   6.5744990  47.2009997  36.7879992   5.3374990  47.8489997
  37.2529992   4.9394990  48.7769997  35.6949992   5.3864990  48.0439997
  36.9639992   4.3244990  46.6749997  36.3119992   3.4414990  46.8439997
  36.4969992   4.8404990  45.8089997  38.3799992   3.8474990  46.4429997
  38.8559992   4.6894990  45.8979997  38.9079992   3.5984990  47.3879997
  38.3579992   2.5484990  45.6069997  39.4259992   2.4944990  45.3029997
  38.0409992   1.7784990  46.3429997  37.3909992   2.5574990  44.3529997
  37.3149992   1.6054990  43.7849997  36.3839992   2.9144990  44.6589997
  37.8449992   3.5784990  43.3599997  38.0619992   4.5744990  43.8019997
  38.7589992   3.2604990  42.8139997  36.7819992   3.7414990  42.2539997
  35.7249992   3.1194990  42.2069997  37.1249992   4.7464990  41.3899997
  36.0769992   5.1474990  40.5039997  35.5099992   4.3174990  40.0309997
  35.3509992   5.8264990  40.9979997  36.7419992   5.9374990  39.3979997
  35.9939992   6.2634990  38.6439997  37.8319992   5.1554990  38.6129997
  38.5189992   4.5974990  39.2849997  37.3869992   4.4954990  37.8379997
  38.5229992   6.2384990  37.9089997  39.9899992   6.0534990  37.3449997
  40.1009992   7.2844990  36.3389997  38.9589992   7.7744990  35.6949997
  39.1989992   8.0974990  34.6599997  38.2419992   6.9334990  35.5759997
  38.3919992   9.0524990  36.4369997  37.7059992   9.4254990  35.6909997
  37.6849992   8.6974990  37.1719997  39.3219992  10.2144990  36.7909997
  40.1789992  10.5794990  35.6619997  39.5139992  11.0284990  34.9399997
  40.9779992  11.2384990  35.9679997  40.6489992   9.6774990  35.2989997
  38.4869992  11.3714990  37.2299997  37.7869992  11.5434990  36.4249997
  38.0419992  11.1444990  38.1869997  39.1509992  12.2224990  37.1939997
  40.1999992   9.7534990  37.9929997  40.7889992   8.9044990  37.6789997
  39.5629992   9.4124990  38.7959997  40.8539992  10.5754990  38.2439997
  40.9349992   6.3924990  38.4199997  39.9669992   4.7534990  36.6509997
  37.2659992   7.0604990  40.0469997  36.6789992   8.2594990  40.0689997
  35.7009992   8.5924990  39.3929997  37.3439992   9.1344990  41.1429997
  36.9789992  10.1774990  41.0249997  38.4539992   9.1544990  41.0899997
  36.9839992   8.5054990  42.5279997  36.7319992   7.4434990  42.3219997
  36.0479992   8.9264990  42.9519997  38.1419992   8.3394990  43.5079997
  37.6839992   8.0004990  44.4619997  38.6929992   9.2964990  43.6299997
  39.2039992   7.3194990  43.0459997  39.6999992   7.6524990  42.1079997
  38.7049992   6.3624990  42.7819997  40.3239992   6.9764990  44.0739997
  39.8359992   6.2334990  44.7409997  40.5919992   7.8024990  44.7669997
  41.5499992   6.3514990  43.4229997  42.1589992   7.0934990  42.8639997
  41.2489992   5.5404990  42.7269997  42.5749992   5.8184990  44.3949997
  42.8429992   6.6564990  45.0739997  43.5229992   5.5704990  43.8719997
  42.1789992   4.5354990  45.1759997  41.9319992   3.6824990  44.5279997
  42.2909992   4.3054990  46.5219997  42.0199992   3.3464990  46.9859997
  42.8209992   5.2924990  47.5779997  43.2059992   6.1754990  47.0239997
  43.6619992   4.7784990  48.0909997  41.6529992   5.8844990  48.4929997
  40.9629992   6.4204990  47.8059997  42.1829992   6.6744990  49.0659997
  41.2079992   4.8274990  49.4589997  42.1079992   4.4314990  49.9759997
  40.8289992   3.9784990  48.8509997  40.2319992   5.4484990  50.5079997
  39.7069992   4.7544990  51.1979997  39.4559992   5.9444990  49.8859997
  40.8699992   6.4844990  51.3959997  40.7779992   7.5154990  50.9939997
  41.9779992   6.4494990  51.4679997  40.2849992   6.5194990  52.7879997
  39.2109992   6.7884990  52.6889997  40.7129992   7.3814990  53.3429997
  40.5809992   5.3694990  53.7239997  40.1709992   4.4294990  53.2949997
  40.0209992   5.6334990  54.6469997  42.0929992   5.2304990  54.0529997
  42.5859992   6.0924990  54.5519997  42.7339992   5.0364990  53.1669997
  42.1829992   4.3384990  54.7089997  31.1349992 118.1644990  54.9959997
  30.1209992 118.5864990  54.8329997  31.7399992 118.7024990  54.2349997
  31.3799992 118.5184990  56.0199997  31.2469992 116.6474990  54.7529997
  32.2469992 116.2094990  54.9579997  30.5339992 116.0324990  55.3409997
  30.7849992 116.3934990  53.3049997  29.7489992 116.7884990  53.2249997
  31.5479992 116.9464990  52.7169997  30.8909992 114.9304990  52.8839997
  31.9729992 114.7064990  52.7679997  30.6109992 114.3414990  53.7829997
  30.1179992 114.4844990  51.6359997  30.5099992 113.4544990  51.4999997
  29.0379992 114.4964990  51.8979997  30.3859992 115.4614990  50.5039997
  30.1679992 116.4884990  50.8679997  31.4709992 115.4834990  50.2629997
  29.5429992 115.1664990  49.3339997  29.6839992 114.1394990  48.9369997
  28.4819992 115.2244990  49.6579997  29.8729992 116.0234990  48.1219997
  29.2559992 116.9484990  48.1269997  30.8979992 116.4254990  48.2709997
  29.7969992 115.2854990  46.7279997  30.4699992 114.4084990  46.8379997
  28.7349992 114.9604990  46.6889997  30.1999992 116.2564990  45.6359997
  29.5309992 117.1364990  45.7479997  31.2609992 116.5404990  45.8019997
  30.1249992 115.7194990  44.2229997  30.8819992 114.9054990  44.2189997
  29.1469992 115.2124990  44.0839997  30.5819992 116.7474990  43.0749997
  29.9749992 117.6474990  43.3109997  31.6339992 117.0154990  43.3079997
  30.3179992 116.1494990  41.6829997  29.2099992 116.1274990  41.6029997
  30.8669992 116.7294990  40.9109997  30.8159992 114.6564990  41.5719997
  31.9109992 114.6844990  41.7569997  30.2839992 114.0564990  42.3419997
  30.6029992 114.1184990  40.1409997  31.1529992 114.7114990  39.3779997
  31.0339992 113.0974990  40.2119997  29.0889992 113.9404990  39.9269997
  28.2969992 113.5674990  40.7839997  28.8589992 114.2644990  38.7089997
  27.4939992 114.2474990  38.2319997  27.4349992 113.7294990  37.2509997
  26.8779992 113.5844990  38.8759997  26.8969992 115.6614990  38.2819997
  25.8689992 115.5714990  37.8689997  27.7859992 116.6804990  37.4399997
  28.2669992 116.2824990  36.5199997  27.1159992 117.5054990  37.1169997
  28.8099992 117.2474990  38.2729997  29.3419992 118.7184990  38.0369997
  30.5579992 118.3944990  37.0619997  31.8039992 117.9804990  37.5409997
  32.5239992 118.6284990  36.9969997  31.9569992 118.2534990  38.6069997
  32.0999992 116.5064990  37.1949997  33.0549992 116.3584990  37.6779997
  31.3109992 115.9344990  37.6599997  32.2769992 116.0984990  35.7499997
  31.0669992 116.4374990  34.9219997  31.1979992 116.1534990  33.8879997
  30.1389992 116.0904990  35.3509997  30.9959992 117.5154990  34.9019997
  33.5859992 116.6924990  35.3489997  33.7869992 117.5814990  35.9279997
  34.3439992 115.9664990  35.6049997  33.6079992 116.9424990  34.2989997
  32.4369992 114.6174990  35.6469997  32.2169992 114.3144990  34.6339997
  31.6269992 114.1904990  36.2199997  33.3949992 114.2244990  35.9529997
  28.2749992 119.5584990  37.4289997  29.8769992 119.3254990  39.2689997
  26.8249992 115.9694990  39.6539997  26.2339992 117.0764990  40.0319997
  25.5139992 117.8274990  39.3499997  26.4039992 117.2944990  41.5669997
  26.8179992 116.3694990  42.0219997  25.4049992 117.4444990  42.0299997
  27.3919992 118.4044990  42.0049997  27.1229992 119.3174990  41.4329997
  28.3659992 118.0234990  41.6289997  27.5359992 118.7174990  43.4649997
  28.4069992 119.3894990  43.6199997  27.5759992 117.7474990  44.0059997
  26.3339992 119.4334990  44.0889997  25.5279992 118.6714990  44.0339997
  26.1159992 120.1614990  43.2789997  26.4879992 119.9734990  45.4999997
  25.5289992 120.0364990  46.0589997  26.9839992 120.9664990  45.4609997
  27.3449992 119.1324990  46.3979997  28.4409992 119.2224990  46.2389997
  27.2289992 118.0404990  46.2299997  27.0389992 119.2674990  47.8999997
  27.5539992 118.3754990  48.3149997  25.9339992 119.2554990  48.0099997
  27.4169992 120.6004990  48.6179997  27.2549992 121.5024990  48.0109997
  27.8559992 120.6414990  49.9429997  27.9849992 121.5864990  50.4899997
  28.0569992 119.4054990  50.8169997  28.8179992 119.6154990  51.5979997
  28.5829992 118.6764990  50.1629997  26.7169992 118.9494990  51.5269997
  25.8929992 118.9994990  50.7819997  26.3539992 119.5974990  52.3529997
  26.7139992 117.5694990  52.1199997  27.5809992 117.4304990  52.8009997
  26.8779992 116.9124990  51.2379997  25.4069992 117.2544990  52.8209997
  24.6169992 117.2554990  52.0399997  25.1679992 117.9304990  53.6699997
  25.4149992 115.7824990  53.2269997  25.5689992 115.1174990  52.3509997
  24.3999992 115.4984990  53.5799997  26.3829992 115.5574990  54.4019997
  26.1669992 116.1604990  55.3099997  27.3979992 115.7684990  54.0029997
  26.4809992 114.0594990  54.8359997  26.6879992 113.5084990  53.8949997
  25.6109992 113.6804990  55.4139997  27.6029992 113.7804990  55.8539997
  27.6409992 112.6784990  55.9919997  27.5099992 114.2664990  56.8489997
  28.5309992 114.1724990  55.3869997 140.2099992  80.0894990  54.0189997
 139.2059992  79.8544990  54.4329997 140.7019992  80.7154990  54.7929997
 140.7539992  79.1204990  54.0019997 140.1919992  80.7774990  52.6239997
 139.7309992  80.0104990  51.9649997 139.5039992  81.6494990  52.6549997
 141.5119992  81.1714990  52.0219997 142.0879992  80.2514990  51.7869997
 141.3309992  81.7724990  51.1049997 142.3409992  81.8674990  53.1079997
 142.5299992  81.3484990  54.0719997 143.2269992  82.3924990  52.6899997
 141.5859992  83.1644990  53.7429997 140.5169992  83.0094990  54.0019997
 142.1169992  83.5864990  54.6229997 141.4929992  84.3304990  52.7369997
 140.7969992  83.9934990  51.9399997 141.0599992  85.1414990  53.3609997
 142.8659992  84.8234990  52.3799997 143.3509992  85.0264990  53.3589997
 143.4449992  84.0774990  51.7949997 142.6979992  86.1394990  51.5889997
 142.4019992  86.9594990  52.2769997 143.6759992  86.3244990  51.0959997
 141.6419992  86.0494990  50.4119997 140.6059992  85.8904990  50.7809997
 141.5249992  87.0424990  49.9279997 141.8809992  84.9714990  49.4309997
 142.9859992  84.9104990  49.3399997 141.6199992  83.9394990  49.7499997
 141.3589992  85.3164990  48.0609997 140.2739992  85.3184990  48.2999997
 141.7859992  86.2974990  47.7599997 141.5769992  84.2534990  46.9679997
 141.4999992  83.2854990  47.5089997 140.8149992  84.2654990  46.1589997
 142.9619992  84.3694990  46.2709997 143.0559992  85.2774990  45.6369997
 143.8059992  84.3574990  46.9939997 143.2039992  83.1504990  45.4079997
 144.2539992  83.3494990  45.1059997 143.2739992  82.2964990  46.1159997
 142.2279992  83.1354990  44.2509997 141.2229992  82.8564990  44.6329997
 141.8179992  84.0984990  43.8789997 142.7149992  82.1744990  43.1699997
 143.7859992  81.6724990  43.3189997 141.9529992  81.9524990  42.1299997
 142.5539992  81.1414990  41.1129997 143.5859992  81.5164990  40.9449997
 142.5539992  80.0864990  41.4609997 141.8369992  81.2304990  39.7619997
 142.4599992  80.6124990  39.0809997 141.8379992  82.6024990  39.2129997
 141.5849992  83.2624990  40.0699997 142.8039992  82.9524990  38.7909997
 140.7349992  82.9144990  38.3129997 140.4719992  82.1364990  36.9489997
 139.7319992  83.3374990  36.2319997 140.1339992  84.7604990  36.1939997
 141.2179992  84.8034990  36.4329997 140.1179992  85.1984990  35.1729997
 139.3709992  85.5244990  37.2909997 139.2069992  84.7014990  37.9709997
 139.8879992  86.3544990  37.7499997 137.9349992  86.0664990  37.0469997
 137.0679992  85.0304990  36.3849997 136.0799992  85.4374990  36.2309997
 137.5089992  84.7454990  35.4409997 137.0459992  84.2494990  37.1309997
 137.3109992  86.4034990  38.3259997 136.2749992  86.6544990  38.1499997
 137.1129992  85.4994990  38.8829997 137.8749992  87.1814990  38.8209997
 137.9839992  87.3614990  36.2039997 138.5289992  87.0984990  35.3099997
 138.5139992  88.1204990  36.7609997 137.0029992  87.6604990  35.8649997
 141.7669992  81.8084990  36.3309997 139.4349992  81.1114990  37.1989997
 140.5559992  80.6624990  39.8759997 140.4929992  79.2864990  39.9579997
 141.4109992  78.4914990  40.0569997 138.9609992  78.9404990  40.1989997
 138.7609992  77.8484990  40.2419997 138.3479992  79.4114990  39.4019997
 138.5269992  79.6474990  41.5499997 137.4379992  79.6914990  41.7619997
 138.8339992  80.7144990  41.5909997 139.0029992  78.8684990  42.7869997
 140.0439992  78.5914990  42.5149997 138.3549992  77.9674990  42.8309997
 139.0859992  79.5844990  44.1489997 138.0699992  79.7924990  44.5479997
 139.4779992  80.6054990  43.9549997 139.9399992  78.8624990  45.1929997
 140.8749992  78.6644990  44.6269997 139.4429992  77.8824990  45.3569997
 140.1919992  79.5444990  46.5329997 140.8229992  80.4244990  46.2829997
 140.7169992  78.9364990  47.3009997 139.0209992  80.1104990  47.3239997
 138.3779992  79.2454990  47.5919997 138.4089992  80.7464990  46.6479997
 139.3399992  80.9434990  48.5559997 140.4199992  81.1114990  48.6709997
 138.5239992  81.5784990  49.4329997 139.0339992  81.8594990  50.3669997
 137.0279992  81.6374990  49.4489997 136.6979992  81.5924990  50.5089997
 136.6129992  80.7244990  48.9729997 136.3609992  82.8744990  48.8099997
 135.2719992  82.6984990  48.9449997 136.5959992  82.9034990  47.7239997
 136.7749992  84.1884990  49.5379997 136.2229992  85.0064990  49.0269997
 137.8629992  84.2934990  49.3389997 136.6919992  84.3574990  51.0029997
 137.1369992  83.4984990  51.5499997 135.6189992  84.2604990  51.2739997
 137.3349992  85.6514990  51.5629997 136.8369992  86.5404990  51.1219997
 138.4279992  85.7554990  51.3929997 137.1999992  85.7734990  53.1059997
 136.1239992  85.7504990  53.3819997 137.5359992  86.7744990  53.4529997
 137.9609992  84.8424990  54.0279997 139.0549992  85.0164990  53.9369997
 137.5799992  83.8154990  53.8429997 137.6559992  85.0864990  55.5069997
 138.0499992  84.3444990  56.2339997 136.6199992  85.3364990  55.8219997
 138.1399992  86.0354990  55.8239997  10.9029992  43.7094990  54.4169997
  11.8969992  43.4884990  54.8609997  10.0219992  43.2164990  54.8799997
  10.7499992  44.8094990  54.3639997  10.8629992  43.1994990  52.9149997
  11.8699992  43.4334990  52.5069997  10.8729992  42.0904990  52.8369997
   9.7309992  43.9034990  52.0879997   8.7449992  43.7244990  52.5669997
   9.9409992  44.9944990  52.1049997   9.7669992  43.5294990  50.5799997
   9.7669992  42.4184990  50.5529997   8.9079992  43.8584990  49.9559997
  11.0189992  43.9724990  49.9019997  11.2389992  45.0414990  50.1089997
  11.9389992  43.4224990  50.1939997  10.8189992  43.8844990  48.4009997
   9.8939992  44.4574990  48.1789997  11.6659992  44.3604990  47.8609997
  10.5669992  42.4554990  47.7489997  11.4239992  41.8684990  48.1439997
   9.5799992  42.0804990  48.0939997  10.6849992  42.3844990  46.2139997
  11.5889992  42.9124990  45.8429997  10.7879992  41.2874990  46.0699997
   9.4679992  43.0264990  45.4329997   9.3279992  44.0894990  45.7239997
   9.6719992  42.7594990  44.3739997   8.0789992  42.4084990  45.7709997
   8.1069992  41.3384990  45.4719997   7.7809992  42.4784990  46.8389997
   7.0079992  42.9894990  44.8949997   6.0669992  42.4004990  44.8549997
   6.9169992  44.0354990  45.2579997   7.3459992  43.1314990  43.4269997
   8.1299992  43.9184990  43.4329997   7.8439992  42.1934990  43.0989997
   6.1619992  43.7474990  42.5979997   6.6819992  44.1394990  41.6979997
   5.4699992  42.8934990  42.4399997   5.5329992  44.9414990  43.2839997
   4.8609992  44.5774990  44.0899997   6.3339992  45.5444990  43.7619997
   4.5199992  45.7714990  42.4749997   3.8989992  45.0974990  41.8479997
   3.7149992  46.1304990  43.1509997   5.1209992  46.9834990  41.7169997
   5.2549992  48.0904990  42.1859997   5.5259992  46.5324990  40.5849997
   5.9909992  47.4434990  39.5459997   5.1599992  47.6084990  38.8269997
   6.3489992  48.4104990  39.9589997   7.1819992  46.9064990  38.7099997
   7.5879992  47.6534990  37.9949997   6.6439992  45.6324990  37.9179997
   6.0659992  44.9334990  38.5589997   6.0539992  46.0204990  37.0599997
   7.7259992  44.9614990  37.2709997   8.2199992  43.4124990  37.5529997
   9.7379992  43.3614990  37.2249997  10.6599992  44.1894990  38.0069997
  10.6069992  44.0534990  39.1079997  11.6789992  43.7644990  37.8899997
  10.7519992  45.6814990  37.6309997   9.8369992  46.1914990  37.8949997
  11.4609992  46.1134990  38.3209997  11.1069992  46.0224990  36.2099997
  10.0889992  45.5444990  35.2499997  10.4999992  45.6884990  34.2619997
   9.8259992  44.5104990  35.4199997   9.2309992  46.1744990  35.4299997
  11.1619992  47.5134990  35.9769997  12.0119992  47.9884990  36.4439997
  11.1859992  47.7214990  34.9179997  10.3319992  48.0684990  36.3899997
  12.4709992  45.4374990  35.8749997  12.3509992  44.5004990  35.3509997
  12.9899992  45.3384990  36.8169997  13.0259992  46.1474990  35.2809997
   8.0549992  43.0584990  38.9849997   7.5859992  42.5374990  36.4879997
   8.2329992  46.3974990  39.5009997   9.1149992  47.2634990  40.0809997
   9.2079992  48.4474990  39.7249997  10.1199992  46.5184990  40.8639997
  11.1359992  46.3944990  40.4309997   9.8009992  45.4554990  40.8989997
  10.2779992  47.2064990  42.2839997  10.4909992  48.2794990  42.0939997
  11.0349992  46.6724990  42.8979997   8.9329992  47.0484990  43.0969997
   8.9519992  46.0774990  43.6359997   8.0159992  47.1894990  42.4859997
   8.8419992  48.1654990  44.1749997   8.7899992  49.1614990  43.6849997
   9.7749992  48.2184990  44.7749997   7.5139992  48.1384990  44.9809997
   6.7699992  48.1194990  44.1569997   7.3869992  49.1534990  45.4159997
   7.5119992  47.0154990  46.0589997   7.8939992  46.1034990  45.5509997
   6.4849992  46.8394990  46.4439997   8.3069992  47.2754990  47.2329997
   9.3779992  47.4724990  47.0119997   8.3589992  46.4254990  47.9469997
   7.5569992  48.4064990  47.9629997   7.8539992  49.4344990  47.7079997
   6.6419992  48.2824990  48.9689997   6.2019992  49.2084990  49.3689997
   6.1169992  46.9894990  49.6269997   6.7699992  46.8884990  50.5199997
   6.3029992  46.1044990  48.9819997   4.5789992  47.1094990  49.9839997
   4.1109992  47.2234990  48.9829997   4.3359992  47.9574990  50.6589997
   4.0589992  45.8324990  50.4859997   4.8169992  45.0804990  50.1769997
   3.0519992  45.5694990  50.0969997   4.1819992  45.5904990  52.0129997
   3.8499992  44.5594990  52.2599997   3.3769992  46.2054990  52.4689997
   5.4459992  45.9084990  52.7919997   5.7589992  46.9584990  52.6109997
   6.1829992  45.1784990  52.3939997   5.2609992  45.6094990  54.3169997
   5.7049992  44.6214990  54.5629997   4.1909992  45.4394990  54.5649997
   5.7169992  46.7194990  55.2609997   5.4799992  46.4594990  56.3149997
   5.1889992  47.6754990  55.0549997   7.2229992  47.1104990  55.2289997
   7.5459992  47.4304990  56.2419997   7.6149992  47.7284990  54.3919997
   7.7569992  46.1544990  55.0409997  61.5879992 132.0474990  56.5769997
  62.2499992 131.2034990  56.8649997  60.5139992 131.9654990  56.8509997
  61.8899992 132.8364990  57.2979997  61.8009992 132.5444990  55.1289997
  61.1529992 133.4324990  54.9689997  62.8439992 132.9264990  55.1179997
  61.6199992 131.6034990  53.9209997  61.9869992 130.5944990  54.2069997
  60.5679992 131.5224990  53.5719997  62.4729992 132.1284990  52.6809997
  62.5129992 133.2384990  52.7279997  63.5429992 131.8804990  52.8429997
  62.1389992 131.4094990  51.3799997  62.7239992 131.8944990  50.5689997
  62.3019992 130.3154990  51.4769997  60.6699992 131.3724990  50.8559997
  60.5949992 130.5994990  50.0619997  59.9049992 131.0974990  51.6129997
  60.2869992 132.7644990  50.2579997  60.4839992 133.5444990  51.0239997
  60.9219992 132.9024990  49.3569997  58.7989992 132.9304990  49.8059997
  58.0569992 132.7854990  50.6199997  58.6889992 133.9654990  49.4149997
  58.3869992 132.1464990  48.5829997  58.5079992 131.0434990  48.6279997
  57.2819992 132.2454990  48.5249997  58.8969992 132.5104990  47.1969997
  58.9569992 133.6114990  47.0609997  59.9869992 132.3004990  47.1849997
  58.2399992 131.8084990  45.9749997  58.7819992 132.0394990  45.0329997
  58.3789992 130.7154990  46.1139997  56.6899992 132.0154990  45.7639997
  56.4849992 131.4994990  44.8019997  56.0839992 131.6494990  46.6199997
  56.2979992 133.4694990  45.5309997  55.2139992 133.5794990  45.3129997
  56.4619992 134.0624990  46.4569997  56.9599992 134.4304990  44.5259997
  57.9789992 134.5074990  44.9619997  57.0079992 133.8024990  43.6099997
  56.2979992 135.8364990  44.3229997  55.5639992 135.8154990  43.4889997
  55.7069992 136.1134990  45.2219997  57.3769992 136.8404990  43.9499997
  57.7739992 137.7364990  44.5769997  57.8899992 136.3364990  42.7499997
  58.9459992 137.0524990  42.1269997  58.5649992 137.9894990  41.6649997
  59.6739992 137.3374990  42.9159997  59.6869992 136.2874990  40.9659997
  60.4749992 136.9554990  40.5569997  58.8249992 135.7934990  39.7909997
  57.8849992 135.2884990  40.1019997  58.4459992 136.6244990  39.1579997
  59.4309992 134.7834990  39.0549997  60.5099992 135.1224990  37.9209997
  60.5009992 133.7654990  37.0909997  60.4049992 132.4714990  37.5219997
  60.9919992 132.2904990  38.4479997  59.3619992 132.1744990  37.7619997
  60.8969992 131.4644990  36.4359997  60.7969992 130.4934990  36.8959997
  60.2079992 131.3134990  35.6179997  62.2979992 131.5074990  35.7979997
  63.1749992 131.1564990  36.9699997  64.1469992 130.8514990  36.6109997
  63.2599992 132.0164990  37.6179997  62.6569992 130.3874990  37.5229997
  62.4059992 130.4214990  34.7449997  61.9519992 129.4984990  35.0749997
  62.0209992 130.8854990  33.8489997  63.4379992 130.1884990  34.5249997
  62.6819992 132.8444990  35.2539997  63.7569992 132.8314990  35.1549997
  62.3909992 133.6654990  35.8929997  62.1989992 133.1824990  34.3489997
  60.0029992 136.2594990  37.1309997  61.8069992 135.3364990  38.5499997
  60.2959992 135.1014990  41.5559997  61.4989992 135.3394990  42.1669997
  62.1929992 136.3274990  42.0199997  61.7999992 134.2484990  43.1119997
  62.8809992 134.0184990  43.2199997  61.3009992 133.2984990  42.8239997
  61.0599992 134.5944990  44.3809997  60.6199992 133.6814990  44.8369997
  60.2469992 135.2934990  44.0909997  61.9149992 135.2974990  45.4829997
  62.3869992 136.1894990  45.0199997  62.6959992 134.5664990  45.7819997
  61.2509992 135.6734990  46.7749997  61.9489992 136.0854990  47.5349997
  61.0019992 134.7064990  47.2639997  60.1049992 136.7124990  46.6339997
  59.3429992 136.1934990  46.0149997  60.3999992 137.7214990  46.2739997
  59.4679992 137.0044990  47.9989997  60.2169992 137.4924990  48.6579997
  59.2079992 136.0744990  48.5479997  58.1919992 137.9174990  47.9119997
  57.3299992 137.3344990  47.5229997  58.2929992 138.6894990  47.1199997
  57.9549992 138.6614990  49.2299997  58.6299992 139.5154990  49.3859997
  57.1919992 138.2134990  50.3139997  57.2669992 138.8184990  51.2299997
  56.4249992 136.9774990  50.5049997  56.5029992 136.2894990  49.6349997
  55.3779992 137.2574990  50.7519997  56.9549992 135.9894990  51.5879997
  57.9839992 135.6434990  51.3519997  56.2819992 135.1134990  51.7059997
  57.0519992 136.7364990  52.9409997  56.0929992 137.2524990  53.1609997
  57.8079992 137.5504990  52.9699997  57.3309992 135.7774990  54.1669997
  56.3599992 135.2574990  54.3109997  57.5059992 136.3304990  55.1139997
  58.3949992 134.6844990  53.9159997  58.0709992 134.1754990  52.9819997
  58.3439992 134.0074990  54.7949997  59.7019992 135.3274990  53.5739997
  59.6739992 136.0084990  52.6969997  60.4039992 134.4944990  53.3549997
  60.3689992 136.0894990  54.7279997  60.1929992 135.5484990  55.6819997
  59.9159992 137.1014990  54.7949997  61.9099992 136.3134990  54.6379997
  62.2539992 136.8754990  53.7439997  62.4179992 135.3264990  54.6969997
  62.2039992 136.8764990  55.5499997  72.4409992   7.1334990  57.0059997
  72.3069992   7.4134990  55.9389997  73.5309992   7.2434990  57.1939997
  71.7939992   7.8414990  57.5659997  71.8649992   5.7424990  57.2779997
  72.5259992   4.9664990  56.8369997  71.8529992   5.6624990  58.3859997
  70.4389992   5.5474990  56.7479997  70.2879992   4.4734990  56.9909997
  69.7749992   6.0974990  57.4479997  70.1199992   5.9924990  55.3339997
  69.0699992   5.7144990  55.0999997  70.1099992   7.1024990  55.2729997
  70.9609992   5.2874990  54.2699997  72.0199992   5.2084990  54.5979997
  70.6709992   4.2164990  54.2159997  70.8419992   5.9134990  52.8619997
  71.2179992   6.9584990  52.8439997  71.3309992   5.2484990  52.1179997
  69.3989992   6.1264990  52.3319997  68.9169992   5.1344990  52.1989997
  68.8829992   6.7934990  53.0559997  69.2829992   7.0084990  51.0109997
  68.2669992   6.8204990  50.6019997  69.4539992   8.0484990  51.3649997
  70.2999992   6.5524990  49.9749997  71.3209992   6.5664990  50.4129997
  70.1329992   5.5164990  49.6089997  70.3209992   7.4164990  48.6379997
  69.2819992   7.3614990  48.2489997  70.5479992   8.4904990  48.8079997
  71.0599992   6.6734990  47.4379997  72.1409992   6.5114990  47.6319997
  70.5769992   5.6804990  47.3209997  70.9099992   7.3394990  45.9799997
  69.8789992   7.2814990  45.5719997  71.2629992   8.3924990  46.0149997
  71.8989992   6.7594990  44.9049997  72.2119992   5.7284990  45.1769997
  71.3229992   6.5454990  43.9799997  72.8779992   7.6684990  44.3559997
  72.5669992   8.6724990  43.9959997  73.4629992   8.1154990  45.1879997
  73.8709992   7.0124990  43.3049997  74.7659992   7.6684990  43.3449997
  74.0879992   6.0284990  43.7719997  73.3399992   7.0124990  41.9279997
  72.2539992   7.3974990  41.5839997  74.1999992   6.3894990  41.1859997
  73.7369992   5.8614990  39.9389997  72.6989992   5.4734990  40.0139997
  73.7639992   6.6234990  39.1309997  74.5889992   4.6514990  39.4009997
  75.6319992   4.9654990  39.1819997  73.8529992   4.0544990  38.1389997
  73.5679992   4.8064990  37.3719997  74.5799992   3.3924990  37.6219997
  72.7869992   3.3204990  38.6049997  71.2209992   3.4274990  38.1519997
  71.2149992   4.9364990  37.7439997  70.0399992   5.7754990  37.9009997
  69.1859992   5.2134990  38.3369997  70.1969992   6.5054990  38.7239997
  69.5569992   6.5494990  36.6469997  68.8599992   5.9714990  36.0569997
  69.0749992   7.4644990  36.9559997  70.5169992   6.8894990  35.5789997
  71.0149992   5.6794990  34.8039997  70.2929992   5.0774990  34.2719997
  71.7769992   5.9284990  34.0799997  71.5049992   5.0524990  35.5339997
  69.9259992   7.8744990  34.6179997  69.0929992   7.4584990  34.0709997
  69.6439992   8.7504990  35.1849997  70.7069992   8.0544990  33.8939997
  71.7849992   7.4794990  36.1209997  71.4329992   8.2484990  36.7929997
  72.4029992   7.8654990  35.3239997  72.3289992   6.7304990  36.6769997
  71.0359992   2.5874990  36.9679997  70.3889992   3.1774990  39.3319997
  74.6139992   3.6624990  40.4269997  75.5439992   2.7174990  40.3499997
  76.3639992   2.5934990  39.4819997  75.3449992   1.7204990  41.5739997
  75.5099992   0.7324990  41.0939997  74.3029992   1.9184990  41.9049997
  76.2969992   2.0224990  42.6459997  76.4959992   3.1154990  42.6779997
  77.3309992   1.7744990  42.3229997  75.9239992   1.5114990  44.0659997
  76.8409992   1.6064990  44.6859997  75.6699992   0.4314990  44.0059997
  74.9389992   2.3514990  44.9499997  73.9509992   2.2134990  44.4599997
  75.2809992   3.4034990  44.8509997  74.8799992   1.9034990  46.4129997
  75.7949992   2.3804990  46.8259997  75.0479992   0.8174990  46.5719997
  73.6899992   2.3554990  47.2529997  72.7889992   1.8584990  46.8339997
  73.5229992   3.4294990  47.0259997  73.8599992   2.1744990  48.8449997
  73.3059992   2.9954990  49.3479997  74.9539992   2.2564990  49.0199997
  73.4359992   0.7674990  49.1679997  74.0829992  -0.0105010  48.7379997
  72.4299992   0.3204990  49.9059997  72.1969992  -0.7545010  49.9099997
  71.4649992   1.1984990  50.6939997  70.6029992   0.5094990  50.8249997
  71.2759992   2.2074990  50.2699997  71.8649992   1.6074990  52.1209997
  71.8339992   0.7364990  52.8089997  71.0589992   2.2584990  52.5219997
  73.1749992   2.3384990  52.1329997  72.9509992   3.3654990  51.7719997
  73.9309992   1.8954990  51.4489997  73.7799992   2.4044990  53.5589997
  73.9139992   1.4104990  54.0379997  73.0029992   3.0004990  54.0839997
  75.0989992   3.1174990  53.7109997  75.8429992   2.4024990  53.3009997
  75.2789992   3.2284990  54.8019997  75.1159992   4.5834990  53.0999997
  74.2819992   5.0434990  53.6729997  74.7969992   4.5254990  52.0369997
  76.4609992   5.2644990  53.2789997  76.3209992   6.3044990  52.9109997
  77.1799992   4.7424990  52.6119997  77.0179992   5.3424990  54.7419997
  76.2869992   5.9904990  55.2709997  77.9659992   5.9024990  54.8929997
  77.2129992   4.4034990  55.3019997  72.7629992 129.9114990  53.6149997
  73.5229992 129.6094990  54.3679997  72.2629992 128.9834990  53.2629997
  72.0279992 130.6434990  54.0129997  73.5079992 130.4894990  52.4409997
  72.8359992 130.6474990  51.5709997  73.9339992 131.4654990  52.7589997
  74.5379992 129.5464990  51.9779997  74.1299992 128.5494990  51.7079997
  74.8599992 129.9694990  51.0029997  75.7289992 129.3204990  52.9699997
  76.0759992 130.3104990  53.3369997  75.2039992 128.8874990  53.8479997
  76.8839992 128.5724990  52.2679997  77.5749992 128.3044990  53.0949997
  76.4289992 127.6964990  51.7599997  77.6379992 129.3624990  51.1849997
  78.4169992 128.7604990  50.6699997  76.8279992 129.3904990  50.4259997
  78.0729992 130.7834990  51.6249997  77.2219992 131.3614990  52.0449997
  78.7859992 130.6924990  52.4719997  78.7879992 131.5084990  50.4579997
  79.6509992 130.8674990  50.1789997  77.9789992 131.5304990  49.6969997
  79.3599992 132.8274990  50.8569997  78.5529992 133.5394990  51.1359997
  80.0429992 132.6754990  51.7189997  80.2449992 133.4564990  49.6939997
  80.5829992 134.4664990  50.0099997  81.1119992 132.7684990  49.5959997
  79.5859992 133.6624990  48.3959997  79.1479992 132.7164990  48.0129997
  78.6339992 134.2094990  48.5659997  80.3349992 134.2734990  47.1829997
  79.5599992 134.8044990  46.5899997  81.0899992 135.0214990  47.5069997
  81.0859992 133.2854990  46.2749997  81.5169992 133.9244990  45.4749997
  81.8359992 132.6354990  46.7759997  80.2009992 132.2414990  45.6069997
  80.0179992 131.4844990  46.3999997  79.2699992 132.7504990  45.2779997
  80.7649992 131.7084990  44.2819997  80.8789992 132.4704990  43.4809997
  81.7539992 131.2384990  44.4709997  79.8319992 130.6034990  43.6789997
  79.9409992 129.4184990  43.9809997  78.9139992 131.1994990  42.9999997
  78.1499992 130.2474990  42.1839997  78.6749992 129.5664990  41.4809997
  77.6419992 129.5504990  42.8839997  77.1549992 130.9084990  41.2949997
  76.4749992 130.1014990  40.9489997  77.8089992 131.6084990  40.0639997
  78.5139992 132.3204990  40.5429997  78.4029992 130.9444990  39.3999997
  76.9099992 132.3424990  39.3319997  76.0129992 131.7024990  38.2199997
  76.8149992 130.4184990  37.7159997  76.3749992 129.8564990  36.5029997
  75.4649992 129.2234990  36.5639997  76.1809992 130.5974990  35.6969997
  77.4879992 128.9434990  35.9489997  77.6789992 128.1994990  36.7079997
  77.1269992 128.5634990  35.0039997  78.8629992 129.5724990  35.7289997
  78.6899992 130.8934990  35.0239997  78.1089992 131.6554990  35.5219997
  79.6919992 131.2894990  34.9449997  78.3959992 130.7144990  33.9999997
  79.5599992 129.8514990  37.0719997  79.0609992 130.6924990  37.5309997
  79.5339992 128.9694990  37.6939997  80.5599992 130.1824990  36.8319997
  79.6979992 128.6274990  34.9019997  80.6179992 129.1384990  34.6579997
  79.2399992 128.1234990  34.0639997  79.8139992 127.7844990  35.5679997
  74.7299992 131.3124990  38.8709997  75.9669992 132.7144990  37.1549997
  76.3909992 131.8104990  41.9919997  75.6509992 131.4554990  43.0209997
  75.2799992 130.2674990  43.2249997  75.0999992 132.5854990  43.8849997
  73.9959992 132.6394990  43.9999997  75.6079992 133.4934990  43.4969997
  75.6409992 132.3534990  45.2999997  75.4979992 133.3504990  45.7669997
  76.7179992 132.0804990  45.3319997  74.9449992 131.2974990  46.2179997
  75.1549992 130.2104990  46.1339997  73.8749992 131.3834990  45.9289997
  75.1509992 131.7254990  47.7049997  76.2079992 132.0354990  47.8509997
  74.9639992 130.7824990  48.2619997  74.2629992 132.8204990  48.3059997
  73.1819992 132.6774990  48.0939997  74.4899992 133.7654990  47.7679997
  74.4619992 133.0894990  49.8299997  75.4689992 132.6494990  49.9939997
  73.6039992 132.6314990  50.3679997  74.5479992 134.6064990  50.1239997
  73.8979992 135.2004990  49.4469997  75.5749992 134.9044990  49.8219997
  74.1799992 134.8954990  51.6089997  73.1479992 135.2744990  51.6529997
  74.8599992 134.6844990  52.7309997  74.4169992 135.0454990  53.6709997
  76.2719992 134.1364990  52.8879997  76.5919992 133.7094990  51.9139997
  76.3889992 133.3454990  53.6599997  77.2189992 135.2644990  53.5159997
  76.7379992 135.5494990  54.4749997  77.2699992 136.1324990  52.8239997
  78.5849992 134.8684990  53.7159997  79.0529992 135.6734990  54.3219997
  79.1009992 134.9194990  52.7339997  78.8419992 133.5414990  54.3819997
  78.7179992 132.6344990  53.7529997  78.1599992 133.4334990  55.2519997
  80.1809992 133.5014990  55.1609997  80.3709992 134.5464990  55.4869997
  80.9779992 133.1194990  54.4879997  80.1579992 132.5944990  56.4339997
  81.2149992 132.2554990  56.4809997  79.6429992 131.6694990  56.0959997
  79.8899992 133.2374990  57.7669997  78.8039992 133.4174990  57.6189997
  80.4299992 134.1994990  57.8989997  80.0059992 132.3124990  59.0259997
  81.1039992 132.2034990  59.1589997  79.3989992 131.3824990  59.0469997
  79.6759992 132.9094990  59.9019997  31.7129992  11.8924990  54.7199997
  31.3699992  10.8654990  54.9679997  32.4879992  12.1284990  55.4799997
  32.2529992  11.8814990  53.7489997  30.5359992  12.9364990  54.7829997
  29.7829992  12.7594990  53.9859997  30.0029992  12.7914990  55.7469997
  30.8899992  14.4184990  54.7039997  31.5769992  14.4874990  55.5739997
  31.4479992  14.5194990  53.7489997  29.7069992  15.4044990  54.8289997
  29.1139992  15.2314990  53.9059997  29.0459992  15.2034990  55.6979997
  30.1129992  16.8334990  55.0769997  29.3049992  17.5874990  55.1889997
  30.6409992  16.8484990  56.0539997  31.0019992  17.4354990  53.9109997
  31.0189992  18.5424990  54.0049997  31.9919992  16.9304990  53.8839997
  30.4879992  17.1034990  52.4799997  30.6029992  16.0514990  52.1399997
  29.4099992  17.3724990  52.4869997  31.1929992  17.9664990  51.4309997
  30.7449992  18.9814990  51.4829997  32.2079992  18.0124990  51.8799997
  31.2899992  17.3224990  50.0779997  31.5119992  18.2204990  49.4619997
  32.1799992  16.6584990  50.0669997  30.0749992  16.5834990  49.5219997
  29.9239992  15.6254990  50.0629997  29.2809992  17.3604990  49.4989997
  30.2959992  16.0614990  48.0759997  31.1749992  15.3814990  48.0909997
  29.3779992  15.4954990  47.8089997  30.4159992  17.1954990  47.0039997
  29.4639992  17.7514990  46.8669997  31.2959992  17.7624990  47.3749997
  30.8819992  16.6294990  45.6619997  31.6539992  15.8344990  45.7379997
  29.9799992  16.0484990  45.3729997  31.1019992  17.6464990  44.5169997
  30.1679992  18.1424990  44.1769997  31.5599992  18.5624990  44.9469997
  32.0049992  17.0234990  43.4939997  33.0429992  16.9904990  43.8889997
  31.6529992  16.0974990  42.9909997  32.1659992  18.0254990  42.2809997
  32.1529992  19.2314990  42.4269997  32.4759992  17.3924990  41.1369997
  32.8629992  18.2844990  40.0339997  32.0519992  18.9994990  39.7779997
  33.8179992  18.7634990  40.3389997  32.9759992  17.3024990  38.8289997
  33.2859992  17.9824990  38.0069997  31.6289992  16.6854990  38.3679997
  31.0539992  16.3884990  39.2719997  31.0459992  17.3744990  37.7209997
  32.0419992  15.5224990  37.6029997  30.9619992  14.8074990  36.6769997
  31.7199992  13.6744990  35.9529997  33.1349992  13.6824990  35.8689997
  33.4489992  13.0394990  35.0189997  33.5209992  14.7234990  35.8869997
  33.8999992  12.7924990  36.9429997  34.8219992  12.5354990  36.4429997
  34.1489992  13.3614990  37.8269997  33.2629992  11.5294990  37.4709997
  32.7789992  10.7774990  36.2089997  33.6439992  10.5084990  35.6219997
  32.2679992   9.9064990  36.5929997  32.0999992  11.2964990  35.5489997
  34.2729992  10.7064990  38.1709997  34.6819992  11.4084990  38.8819997
  33.7489992   9.8464990  38.5619997  34.9799992  10.4604990  37.3929997
  32.0109992  11.7994990  38.3019997  31.1509992  12.1664990  37.7609997
  32.4099992  12.5714990  38.9429997  31.7279992  11.0334990  39.0089997
  29.9029992  14.2964990  37.5659997  30.4429992  15.7454990  35.7079997
  33.9779992  16.2894990  39.1129997  35.2779992  16.7074990  39.1619997
  35.7319992  17.7704990  38.8209997  36.0839992  15.5444990  39.8359997
  37.0529992  15.6934990  39.3119997  35.6419992  14.5504990  39.6069997
  36.1559992  15.6574990  41.3479997  35.8079992  16.6524990  41.6999997
  37.1589992  15.4374990  41.7709997  35.2359992  14.7084990  42.1189997
  35.3999992  13.7124990  41.6549997  34.2069992  15.0094990  41.8269997
  35.4189992  14.7564990  43.6359997  34.8799992  15.6374990  44.0449997
  36.5039992  14.9024990  43.8279997  34.9789992  13.5674990  44.3789997
  35.6529992  12.7634990  44.0129997  33.9029992  13.3864990  44.1669997
  35.3159992  13.7844990  45.8449997  34.7799992  14.6284990  46.3289997
  36.3869992  14.0384990  45.9999997  35.1349992  12.5464990  46.7259997
  35.9679992  12.4684990  47.4569997  35.3369992  11.7414990  45.9879997
  33.7349992  12.2584990  47.1899997  33.0509992  11.6674990  46.5629997
  33.1789992  12.8494990  48.3079997  32.1009992  12.7114990  48.4799997
  33.8929992  13.8514990  49.2399997  33.7159992  14.8994990  48.9159997
  34.9919992  13.6894990  49.2609997  33.5739992  13.5374990  50.7119997
  33.8779992  12.4914990  50.9299997  32.4639992  13.5824990  50.7329997
  34.2969992  14.5364990  51.6399997  33.7339992  15.4874990  51.5299997
  35.3559992  14.6304990  51.3159997  34.5589992  14.1484990  53.1179997
  33.6709992  13.6174990  53.5219997  34.7959992  14.9594990  53.8409997
  35.8049992  13.1554990  53.1449997  36.8049992  13.6004990  52.9559997
  35.6559992  12.5634990  52.2169997  35.7719992  12.2854990  54.4749997
  34.7169992  12.0014990  54.6759997  35.9509992  13.0084990  55.2979997
  36.7059992  11.1334990  54.4789997  37.6909992  11.5004990  54.1199997
  36.2929992  10.4354990  53.7199997  36.9469992  10.5674990  55.8879997
  37.2849992   9.5384990  55.6399997  36.0229992  10.4684990  56.4959997
  37.7849992  11.1524990  56.3239997  49.8789992   6.9114990  58.2889997
  49.0389992   7.6384990  58.2959997  50.4689992   7.1434990  57.3759997
  50.5089992   7.2334990  59.1449997  49.3509992   5.4434990  58.3319997
  50.2359992   4.7754990  58.3909997  48.7249992   5.1694990  59.2079997
  48.6399992   4.9294990  57.1399997  48.5509992   3.8224990  57.1769997
  47.6529992   5.4384990  57.1669997  49.4549992   4.9364990  55.7859997
  49.6499992   5.9644990  55.4119997  50.4899992   4.6074990  56.0209997
  48.8549992   4.1534990  54.6779997  48.8789992   3.0814990  54.9699997
  47.7859992   4.4454990  54.5969997  49.5929992   4.2314990  53.2949997
  49.4369992   5.2994990  53.0309997  50.6929992   4.1024990  53.3799997
  49.0059992   3.3324990  52.2159997  47.8989992   3.2784990  52.2899997
  49.2319992   3.7154990  51.1969997  49.6789992   1.9724990  52.2909997
  50.7819992   2.1034990  52.2699997  49.4509992   1.7924990  53.3629997
  49.0989992   0.7644990  51.4629997  49.7739992  -0.1135010  51.5609997
  48.0679992   0.5494990  51.8139997  48.9579992   0.9964990  49.9249997
  48.7229992  -0.0035010  49.5019997  48.1369992   1.7404990  49.8379997
  50.1939992   1.5864990  49.1789997  50.3089992   2.6584990  49.4489997
  51.0039992   0.8934990  49.4909997  50.0569992   1.6884990  47.6819997
  49.7829992   0.6984990  47.2579997  49.3059992   2.4764990  47.4579997
  51.2329992   2.2914990  46.9959997  51.6759992   3.0754990  47.6459997
  52.0599992   1.5714990  46.8189997  50.8059992   2.8534990  45.6629997
  49.8679992   2.3614990  45.3279997  50.5259992   3.9104990  45.8589997
  51.8549992   2.8994990  44.5279997  52.6839992   3.5654990  44.8499997
  52.3209992   1.8934990  44.4529997  51.3359992   3.3734990  43.1759997
  50.9059992   4.5104990  43.0549997  51.4489992   2.4574990  42.1599997
  50.8049992   2.7814990  40.9429997  50.8579992   3.8674990  40.7169997
  51.5419992   2.3894990  40.2089997  49.4139992   2.1274990  40.6899997
  49.5919992   1.0334990  40.7549997  48.8779992   2.5854990  39.2839997
  49.4909992   2.2484990  38.4199997  47.9449992   2.0544990  38.9939997
  48.5709992   3.9944990  39.3959997  47.1209992   4.5144990  38.9539997
  46.9439992   4.0304990  37.4499997  47.8879992   4.5854990  36.5439997
  47.6199992   5.6454990  36.3469997  48.9089992   4.5414990  36.9799997
  47.8189992   3.7694990  35.1869997  46.8199992   3.7994990  34.7759997
  48.4379992   4.3214990  34.4949997  48.3329992   2.3264990  35.1189997
  47.7859992   1.3764990  36.1379997  46.8279992   0.9134990  35.9519997
  48.4419992   0.5474990  36.3569997  47.7029992   1.8644990  37.0979997
  48.1289992   1.7154990  33.7099997  47.0709992   1.5234990  33.6159997
  48.3429992   2.5014990  33.0009997  48.6809992   0.7934990  33.6009997
  49.8179992   2.4264990  35.2539997  50.3449992   3.1974990  34.7119997
  50.3649992   1.5224990  35.0289997  49.9439992   2.8684990  36.2319997
  46.0279992   3.8914990  39.7869997  47.2279992   5.9564990  38.9329997
  48.4839992   2.6124990  41.6379997  47.5369992   1.7734990  42.0689997
  47.2879992   0.7284990  41.5009997  46.7729992   2.2944990  43.2249997
  47.2379992   1.8234990  44.1179997  45.7049992   2.0184990  43.0899997
  46.8299992   3.8224990  43.2379997  46.5899992   4.2864990  42.2569997
  47.8619992   4.1334990  43.5049997  46.0229992   4.4994990  44.4249997
  44.9759992   4.1474990  44.5369997  46.1049992   5.6014990  44.3099997
  46.7979992   4.1924990  45.7259997  47.8749992   4.2094990  45.4529997
  46.6849992   3.1754990  46.1579997  46.5329992   5.2464990  46.7869997
  46.6779992   6.2604990  46.3569997  47.2509992   5.0014990  47.5979997
  45.1029992   5.1124990  47.3309997  45.0719992   4.1654990  47.9119997
  44.4049992   5.0884990  46.4669997  44.7799992   6.1864990  48.3699997
  43.7479992   6.1604990  48.7799997  44.8219992   7.2294990  47.9889997
  45.6199992   6.0694990  49.6119997  46.6959992   6.2704990  49.5019997
  45.3469992   5.6204990  50.8829997  46.2299992   5.5714990  51.5379997
  43.9409992   5.1224990  51.4489997  43.1829992   5.1064990  50.6359997
  43.5839992   5.7894990  52.2629997  43.8399992   3.6894990  52.0219997
  44.0869992   3.0614990  51.1389997  42.8349992   3.4404990  52.4249997
  44.8329992   3.4884990  53.2449997  44.3609992   4.0234990  54.0969997
  45.8559992   3.8654990  53.0339997  44.8659992   2.0384990  53.7219997
  45.4779992   1.4624990  52.9949997  43.8479992   1.6144990  53.5869997
  45.5359992   1.8594990  55.1229997  45.0219992   2.4494990  55.9119997
  46.5409992   2.3314990  55.1679997  45.6999992   0.3894990  55.6549997
  45.5569992  -0.4015010  54.8879997  44.9389992   0.2774990  56.4559997
  47.0169992   0.0494990  56.4559997  47.0889992   0.6694990  57.3749997
  47.8419992   0.2954990  55.7539997  47.2039992  -1.3135010  57.0029997
  48.2829992  -1.5535010  57.1119997  46.6839992  -2.1325010  56.4609997
  46.6939992  -1.3005010  57.9899997 136.2979992  34.2324990  57.0919997
 137.3019992  34.2314990  56.6149997 135.6349992  33.5524990  56.5159997
 136.3889992  33.8444990  58.1279997 135.8929992  35.7054990  57.0499997
 134.8279992  35.7164990  57.3659997 136.6179992  36.1894990  57.7389997
 135.9839992  36.2934990  55.6329997 135.9069992  37.4004990  55.6709997
 137.0379992  36.0104990  55.4249997 135.0399992  35.5244990  54.6809997
 135.3749992  34.4684990  54.5959997 133.9689992  35.3274990  54.9009997
 134.9729992  36.1634990  53.2249997 134.7699992  37.2534990  53.2939997
 136.0529992  36.0764990  52.9779997 134.1129992  35.3224990  52.2099997
 134.3019992  34.2354990  52.3419997 133.0529992  35.5264990  52.4749997
 134.3249992  35.7024990  50.6979997 133.5229992  35.1624990  50.1509997
 133.9639992  36.7434990  50.5519997 135.7259992  35.4894990  50.0849997
 136.5099992  36.0944990  50.5889997 135.7879992  34.3924990  50.2479997
 135.8009992  35.8174990  48.6599997 134.8919992  35.5464990  48.0819997
 135.8019992  36.9274990  48.6249997 137.0499992  35.3834990  47.9189997
 137.9499992  35.6764990  48.5009997 137.1219992  34.2864990  47.7589997
 137.2849992  36.0194990  46.5289997 137.2779992  37.1284990  46.5959997
 138.2269992  35.6454990  46.0749997 136.2329992  35.5804990  45.4949997
 136.3339992  34.4744990  45.4949997 135.2189992  35.9934990  45.6839997
 136.6049992  36.0214990  44.0459997 136.5679992  37.1314990  44.0879997
 137.6529992  35.7744990  43.7749997 135.5699992  35.4664990  43.0749997
 135.4319992  34.3994990  43.3509997 134.6109992  36.0184990  43.1769997
 136.0869992  35.4244990  41.5969997 136.1119992  36.3914990  41.0509997
 137.1169992  35.0084990  41.5819997 135.0829992  34.4774990  40.8139997
 135.3519992  33.4974990  40.1679997 133.8259992  35.0624990  40.9479997
 132.6419992  34.4484990  40.4209997 132.7449992  33.3574990  40.2399997
 131.8609992  34.6054990  41.1959997 132.3689992  35.0884990  39.0349997
 131.4159992  34.6344990  38.6869997 133.4229992  34.8054990  38.0159997
 134.4029992  35.2574990  38.2819997 133.4969992  33.7204990  37.7919997
 133.0569992  35.4204990  36.7599997 134.1709992  35.8184990  35.6779997
 134.8069992  37.1124990  36.1909997 133.9329992  38.1914990  36.4219997
 134.1929992  39.0094990  35.7169997 132.8549992  37.9354990  36.5119997
 134.1279992  38.7534990  37.8759997 133.3909992  39.5354990  37.9839997
 133.8569992  37.9154990  38.5009997 135.4879992  39.3174990  38.2309997
 135.9579992  40.3604990  37.2269997 136.1529992  39.8894990  36.2739997
 135.2049992  41.1334990  37.1959997 136.8239992  40.8644990  37.6289997
 135.3919992  39.9504990  39.6289997 135.0009992  39.2744990  40.3739997
 136.2399992  40.5494990  39.9249997 134.6049992  40.6834990  39.5259997
 136.4919992  38.1954990  38.3259997 136.9899992  38.1404990  37.3689997
 136.2079992  37.1804990  38.5609997 137.2459992  38.2944990  39.0929997
 135.2209992  34.8194990  35.7399997 133.4249992  35.9994990  34.3929997
 132.3039992  36.5374990  39.1169997 131.6379992  37.0614990  40.0299997
 130.6049992  36.6444990  40.5499997 132.2159992  38.4074990  40.3319997
 132.0579992  39.1644990  39.5339997 133.3129992  38.3114990  40.4789997
 131.6679992  38.9774990  41.6269997 130.5949992  39.2514990  41.5379997
 132.1399992  39.9764990  41.7449997 132.0439992  37.9814990  42.7969997
 133.1539992  37.9604990  42.8049997 131.3889992  37.0834990  42.8039997
 131.5769992  38.5254990  44.1759997 130.5559992  38.9404990  44.0379997
 132.2179992  39.4254990  44.2869997 131.8829992  37.5924990  45.3389997
 132.8789992  37.1154990  45.2169997 131.1009992  36.8274990  45.1489997
 131.9069992  38.4034990  46.6859997 130.8759992  38.7594990  46.8959997
 132.6749992  39.2044990  46.6309997 132.2609992  37.4754990  47.8999997
 132.1009992  38.1034990  48.8029997 133.3509992  37.2674990  47.9449997
 131.6629992  36.0994990  48.1469997 132.0859992  35.2534990  47.5839997
 130.6419992  35.7854990  49.0119997 130.5089992  34.7064990  49.1809997
 129.9559992  36.7634990  49.8709997 128.9629992  36.8564990  49.3819997
 130.3659992  37.7964990  49.8679997 129.8479992  36.2824990  51.3589997
 130.7779992  35.7224990  51.5919997 128.9159992  35.6794990  51.3939997
 129.7759992  37.4014990  52.4499997 129.5669992  36.7714990  53.3399997
 128.9169992  38.0994990  52.3529997 131.0799992  38.1234990  52.6329997
 131.3689992  38.7024990  51.7299997 131.9449992  37.4334990  52.7399997
 131.0639992  39.1514990  53.8619997 130.2689992  38.8264990  54.5659997
 130.6119992  40.0794990  53.4499997 132.5079992  39.3864990  54.4319997
 132.6109992  40.3974990  54.8809997 133.3009992  39.3154990  53.6569997
 132.7819992  38.3724990  55.5209997 133.8419992  38.1564990  55.7769997
 132.3839992  37.4154990  55.1199997 132.1139992  38.5034990  56.9159997
 132.6569992  39.3134990  57.4479997 132.2709992  37.5464990  57.4579997
 131.0109992  38.6304990  56.8769997  81.3299992  10.9234990  58.1019997
  80.5129992  11.6554990  57.9249997  82.3069992  11.4454990  58.0139997
  81.3209992  10.5454990  59.1459997  81.2329992   9.7844990  57.0899997
  81.4609992  10.2604990  56.1119997  81.9689992   8.9614990  57.2159997
  79.8359992   9.0794990  56.9959997  79.6229992   8.6614990  58.0019997
  79.0339992   9.7724990  56.6609997  79.7779992   7.9754990  55.8469997
  80.1279992   8.4624990  54.9119997  80.4359992   7.1374990  56.1629997
  78.3619992   7.4654990  55.5079997  78.0089992   7.0504990  56.4769997
  77.7169992   8.3264990  55.2319997  78.3919992   6.3284990  54.4639997
  78.8689992   5.4244990  54.8999997  77.3299992   6.1324990  54.2039997
  79.2099992   6.6424990  53.1489997  80.1819992   7.1144990  53.4099997
  79.4269992   5.6914990  52.6169997  78.3729992   7.5534990  52.1929997
  77.6619992   8.2434990  52.6939997  79.1749992   8.1874990  51.7569997
  77.8699992   6.7884990  50.9669997  78.7859992   6.3644990  50.5039997
  77.2609992   5.9574990  51.3799997  77.0599992   7.6524990  50.0349997
  76.1239992   8.0024990  50.5209997  77.6039992   8.5644990  49.7079997
  76.6339992   6.7944990  48.8419997  76.1629992   5.8124990  49.0629997
  75.8999992   7.3194990  48.1949997  77.7809992   6.5414990  47.8799997
  78.3179992   7.5084990  47.9789997  78.4629992   5.7624990  48.2819997
  77.3889992   6.2554990  46.4279997  76.9019992   5.2634990  46.5389997
  76.5069992   6.9184990  46.2989997  78.5679992   6.4414990  45.4379997
  78.8629992   7.5104990  45.5089997  79.4029992   5.8534990  45.8759997
  78.1229992   6.1004990  43.9819997  79.0979992   6.0654990  43.4499997
  77.4699992   5.2024990  43.9549997  77.2909992   7.2014990  43.3569997
  76.8109992   8.1064990  43.9659997  77.2019992   6.9154990  42.1359997
  76.6819992   8.0574990  41.3309997  76.1699992   7.6394990  40.4379997
  76.0469992   8.7314990  41.9439997  77.8179992   8.9254990  40.8109997
  77.4839992   9.6624990  40.0489997  78.8539992   8.0774990  39.9699997
  79.1549992   7.2614990  40.6619997  78.4309992   7.6024990  39.0599997
  79.9479992   8.8754990  39.5779997  79.9639992   9.8534990  38.4079997
  78.6539992   9.6014990  37.4289997  78.6739992   9.6404990  36.0529997
  79.4029992  10.4134990  35.7269997  78.8739992   8.6364990  35.6209997
  77.2419992  10.0264990  35.4269997  76.9149992  10.9334990  35.9139997
  77.3429992  10.0824990  34.3539997  76.0889992   9.0104990  35.6799997
  74.8929992   9.6284990  35.0459997  74.0609992   9.0984990  35.4849997
  74.7029992  10.6404990  35.3699997  74.9959992   9.4864990  33.9799997
  76.4069992   7.6714990  35.1439997  75.5529992   7.0454990  35.3539997
  76.6789992   7.6894990  34.0989997  77.2739992   7.2924990  35.6649997
  75.8789992   8.8564990  37.1729997  76.8459992   8.6184990  37.5909997
  75.2069992   8.0214990  37.3009997  75.3599992   9.7644990  37.4439997
  79.9109992  11.2324990  38.9779997  81.1519992   9.5164990  37.5549997
  78.5459992   9.5404990  41.8859997  78.3039992  10.7754990  42.1249997
  77.4429992  11.4394990  41.5899997  79.1719992  11.3544990  43.2069997
  79.0029992  12.4524990  43.2319997  80.2419992  11.1994990  42.9499997
  78.7919992  10.6044990  44.5009997  79.0689992   9.5394990  44.3479997
  77.7069992  10.7254990  44.7069997  79.5599992  10.9754990  45.8199997
  79.1379992  11.9734990  46.0629997  80.6429992  11.1624990  45.6609997
  79.4269992   9.9864990  47.0539997  80.1429992   9.1534990  46.8869997
  78.3719992   9.6714990  46.9069997  79.5009992  10.6484990  48.4189997
  79.3889992   9.7684990  49.0869997  78.6439992  11.3424990  48.5539997
  80.8559992  11.4644990  48.6409997  80.9009992  12.2574990  47.8639997
  81.7329992  10.8074990  48.4579997  80.9439992  11.9814990  50.0899997
  81.9269992  12.4184990  50.3649997  80.6949992  11.1284990  50.7569997
  79.9049992  13.0344990  50.4349997  80.0229992  13.9354990  49.8149997
  78.8299992  12.9204990  51.2209997  78.2159992  13.8324990  51.2529997
  78.3879992  11.6914990  51.9809997  78.4609992  11.7634990  53.0869997
  78.9719992  10.7874990  51.7069997  77.0079992  11.2424990  51.6059997
  76.9549992  10.3504990  52.2659997  76.9809992  10.9784990  50.5269997
  75.7819992  12.1764990  51.9509997  75.8759992  13.0304990  51.2459997
  75.8779992  12.5034990  53.0079997  74.4159992  11.5534990  51.5949997
  74.2999992  11.5474990  50.4899997  73.6079992  12.2724990  51.8469997
  73.9609992  10.2164990  52.1459997  74.6479992   9.5134990  51.6289997
  72.8819992  10.1274990  51.8949997  74.1129992   9.9384990  53.6749997
  75.1449992  10.1384990  54.0339997  74.0849992   8.8414990  53.8539997
  73.1289992  10.5884990  54.6159997  72.1469992  10.3934990  54.1339997
  73.3889992  11.6674990  54.6559997  73.0519992  10.0554990  56.0719997
  73.9349992  10.3804990  56.6609997  72.9019992   8.9544990  56.0399997
  72.1019992  10.5044990  56.4329997  60.2079992   0.5814990  54.5309997
  60.2089992   0.6594990  55.6399997  59.8389992  -0.3935010  54.1469997
  59.5069992   1.3964990  54.2509997  61.6059992   0.8074990  54.0039997
  61.8889992   1.8174990  54.3679997  62.2399992   0.0554990  54.5219997
  61.6439992   0.6634990  52.4499997  61.5069992   1.6604990  51.9789997
  62.6959992   0.3744990  52.2409997  60.7149992  -0.4055010  51.6769997
  60.8749992  -1.4305010  52.0749997  59.6389992  -0.1675010  51.8219997
  61.1189992  -0.5685010  50.1969997  62.2089992  -0.6775010  50.0079997
  60.6349992  -1.4385010  49.7049997  60.6899992   0.6384990  49.2549997
  59.6029992   0.8144990  49.4009997  61.3459992   1.4904990  49.5339997
  60.8879992   0.3264990  47.8279997  61.1099992  -0.7455010  47.6429997
  60.0079992   0.6094990  47.2129997  62.0389992   1.1984990  47.1079997
  61.6989992   2.2564990  47.1039997  62.8989992   1.0914990  47.8039997
  62.3269992   0.6254990  45.7019997  63.2839992   0.9744990  45.2599997
  62.4279992  -0.4805010  45.6979997  61.2349992   0.9524990  44.6129997
  60.2019992   0.5834990  44.7929997  61.1949992   2.0354990  44.3689997
  61.5729992   0.3854990  43.1779997  61.0159992   1.1044990  42.5389997
  62.6019992   0.6504990  42.8519997  61.1749992  -1.0815010  43.0119997
  61.8349992  -1.7105010  43.6469997  60.1749992  -1.1305010  43.4939997
  61.1469992  -1.8015010  41.6139997  62.1719992  -1.9135010  41.1989997
  60.7969992  -2.8355010  41.8229997  60.1529992  -1.0835010  40.6659997
  59.0989992  -1.2415010  40.9779997  60.4559992  -0.0385010  40.4449997
  60.2409992  -1.9545010  39.3559997  61.2749992  -1.9335010  38.9529997
  59.8999992  -2.9995010  39.5189997  59.2669992  -1.4005010  38.3429997
  58.8339992  -2.0135010  37.4439997  59.0389992  -0.0495010  38.4969997
  58.2349992   0.4564990  37.4459997  58.7719992   0.3264990  36.4819997
  57.2119992   0.0334990  37.3519997  57.9949992   1.9754990  37.4989997
  57.4669992   2.2864990  36.5719997  59.2729992   2.7344990  37.4909997
  59.8979992   2.3834990  36.6429997  59.0889992   3.8284990  37.4269997
  59.9169992   2.4704990  38.7539997  61.5289992   2.6974990  38.8299997
  61.9539992   1.6554990  37.7249997  63.2959992   1.1204990  37.5869997
  64.0789992   1.9084990  37.5999997  63.4409992   0.4644990  38.4719997
  63.4929992   0.1764990  36.3879997  64.5159992  -0.1545010  36.4939997
  62.7819992  -0.6345010  36.4489997  63.3279992   0.7594990  35.0519997
  62.0059992   1.4964990  34.7969997  61.9679992   1.7924990  33.7589997
  61.1529992   0.8614990  34.9849997  61.9109992   2.4014990  35.3799997
  64.4609992   1.6984990  34.7479997  65.4079992   1.1814990  34.7889997
  64.2969992   2.0084990  33.7269997  64.4859992   2.5164990  35.4519997
  63.4589992  -0.4575010  34.1399997  63.1679992  -0.1855010  33.1359997
  62.6919992  -1.1385010  34.4779997  64.4689992  -0.8195010  34.2669997
  61.8039992   4.0774990  38.3279997  62.0819992   2.2894990  40.1239997
  57.1719992   2.2604990  38.6139997  57.0069992   3.5094990  39.1939997
  57.5639992   4.5384990  38.9549997  56.0059992   3.4634990  40.3679997
  55.1919992   2.7104990  40.4219997  55.5009992   4.4384990  40.1939997
  56.7899992   3.2414990  41.6469997  56.2939992   3.6624990  42.5469997
  57.7979992   3.6984990  41.7429997  57.0139992   1.7134990  41.8219997
  57.7409992   1.4464990  41.0259997  56.1989992   0.9584990  41.8199997
  57.6439992   1.3794990  43.1249997  58.5969992   1.9454990  43.1829997
  58.1009992   0.3794990  42.9629997  56.7299992   1.4454990  44.3399997
  56.0299992   0.5884990  44.2379997  56.2179992   2.4304990  44.3249997
  57.6599992   1.2744990  45.6219997  58.4529992   2.0494990  45.5389997
  58.1349992   0.2724990  45.5529997  56.8849992   1.2614990  46.9699997
  57.5539992   1.1594990  47.8499997  56.1119992   0.4644990  47.0259997
  56.3149992   2.6444990  47.1859997  55.8489992   3.1774990  46.3439997
  56.1159992   3.0524990  48.3849997  55.6589992   4.0414990  48.5399997
  56.4349992   2.3454990  49.6709997  57.5399992   2.2554990  49.7419997
  56.2529992   1.2514990  49.7259997  55.7389992   3.0814990  50.8859997
  55.5209992   2.3064990  51.6519997  54.7319992   3.4594990  50.6059997
  56.5609992   4.2604990  51.3279997  55.9509992   4.8604990  52.0349997
  56.6139992   4.9614990  50.4679997  57.9159992   3.8804990  51.9679997
  58.6789992   3.6664990  51.1889997  57.9589992   2.9674990  52.6009997
  58.6629992   5.0594990  52.7329997  58.1269992   5.2614990  53.6849997
  58.5619992   5.9274990  52.0459997  60.1829992   4.7334990  52.9119997
  60.7179992   4.5654990  51.9529997  60.2589992   3.8074990  53.5219997
  60.9309992   5.8974990  53.5659997  60.9169992   6.6824990  52.7799997
  61.9849992   5.5454990  53.6009997  60.3999992   6.5094990  54.8169997
  61.0839992   7.3744990  54.9509997  60.3409992   5.8634990  55.7189997
  59.4509992   7.0304990  54.5679997  25.1409992  15.0934990  56.9739997
  25.3729992  15.6574990  57.9019997  25.3739992  14.0224990  57.1579997
  24.0739992  15.1934990  56.6839997  26.0419992  15.5264990  55.8839997
  25.8279992  16.5994990  55.6909997  27.0469992  15.4834990  56.3549997
  25.9659992  14.7694990  54.5849997  25.9939992  13.6654990  54.6979997
  24.9219992  15.0704990  54.3529997  27.0019992  15.1894990  53.4599997
  27.8659992  14.6774990  53.9369997  26.7299992  14.6304990  52.5389997
  27.1459992  16.6174990  53.3249997  27.2419992  17.0564990  54.3409997
  28.1799992  16.8064990  52.9649997  26.1759992  17.2494990  52.3329997
  25.2489992  17.5624990  52.8589997  26.4919992  18.2684990  52.0239997
  25.8809992  16.5914990  51.0279997  26.8629992  16.6224990  50.5089997
  25.6589992  15.5054990  51.1029997  24.8439992  17.2784990  50.0809997
  25.0499992  18.3684990  50.0119997  24.9229992  16.7734990  49.0949997
  23.3729992  17.1064990  50.5529997  23.3029992  17.4824990  51.5959997
  22.7509992  17.7714990  49.9159997  22.6809992  15.7204990  50.5009997
  23.2479992  15.1924990  51.2979997  21.6209992  15.6674990  50.8309997
  22.8329992  14.9354990  49.1799997  23.8949992  14.6084990  49.1619997
  22.2839992  13.9734990  49.2579997  22.3809992  15.5784990  47.8859997
  21.2899992  15.6404990  47.6839997  22.8589992  16.5814990  47.8869997
  22.8259992  14.8694990  46.6179997  23.9359992  14.8554990  46.5809997
  22.3769992  13.8554990  46.5549997  22.3229992  15.5594990  45.4179997
  21.2259992  15.6434990  45.5709997  22.7949992  16.5614990  45.3239997
  22.4319992  14.6704990  44.1269997  23.4699992  14.4124990  43.8259997
  21.9849992  13.6934990  44.4109997  21.7809992  15.4384990  42.9359997
  20.6209992  15.6914990  42.8049997  22.7119992  15.8964990  42.2099997
  22.4469992  16.5954990  40.9669997  22.2819992  15.8844990  40.1299997
  21.6279992  17.3344990  41.0989997  23.8799992  17.2714990  40.5849997
  23.7919992  17.9744990  39.7289997  24.9919992  16.2344990  40.3029997
  25.1949992  15.6674990  41.2359997  24.4839992  15.5494990  39.5919997
  26.1269992  16.8714990  39.7699997  26.4779992  16.7814990  38.2499997
  25.3559992  17.6474990  37.5619997  25.0129992  17.2924990  36.1869997
  25.9709992  17.1764990  35.6369997  24.3419992  16.4154990  36.0689997
  24.3299992  18.3984990  35.4509997  24.7849992  19.3634990  35.6159997
  24.2939992  18.1844990  34.3929997  22.9169992  18.6094990  35.7629997
  22.4389992  19.8444990  35.0249997  23.0509992  20.6574990  35.3889997
  22.7209992  19.6324990  34.0039997  21.3749992  19.9254990  35.1899997
  22.0869992  17.4184990  35.2989997  22.0659992  17.2364990  34.2349997
  22.4719992  16.5144990  35.7489997  21.0559992  17.4584990  35.6159997
  22.6119992  18.8714990  37.2499997  21.5519992  18.9124990  37.4529997
  23.0869992  19.8104990  37.4949997  23.1799992  18.1224990  37.7819997
  27.7659992  17.5104990  38.0589997  26.4059992  15.3334990  37.8549997
  24.4349992  18.0104990  41.7389997  23.9779992  19.2824990  41.8129997
  23.4489992  19.9084990  40.9199997  24.2189992  19.9444990  43.1969997
  25.1759992  20.4804990  43.0219997  24.3289992  19.0884990  43.8969997
  23.1209992  20.9214990  43.5659997  22.8459992  21.5594990  42.6979997
  23.5689992  21.6674990  44.2569997  21.9069992  20.3324990  44.2089997
  21.6479992  19.3664990  43.7249997  21.0589992  21.0364990  44.0629997
  22.0789992  20.2684990  45.7379997  22.5929992  21.1784990  46.1169997
  22.7449992  19.4234990  46.0129997  20.7849992  20.0564990  46.5859997
  20.2209992  19.1414990  46.3069997  20.1069992  20.8904990  46.3049997
  21.0289992  19.9764990  48.1039997  21.8459992  20.6994990  48.3159997
  21.5819992  19.0864990  48.4719997  19.7969992  20.1844990  48.9869997
  19.0699992  19.4344990  48.6079997  19.3979992  21.1694990  48.6639997
  19.6829992  20.0354990  50.4669997  18.9659992  19.2954990  50.8519997
  20.3369992  20.7524990  51.3919997  20.0869992  20.6794990  52.4599997
  21.3229992  21.8494990  51.1149997  20.9409992  22.7504990  51.6399997
  21.4759992  22.1784990  50.0649997  22.7649992  21.7794990  51.5569997
  23.2299992  22.7584990  51.3119997  23.2059992  20.8884990  51.0619997
  22.8829992  21.3684990  53.0549997  22.2969992  20.4314990  53.1669997
  22.3889992  22.1044990  53.7249997  24.3289992  21.2084990  53.6739997
  24.8689992  22.1754990  53.5859997  24.9019992  20.4514990  53.0989997
  24.3299992  20.7804990  55.1689997  24.3879992  19.6704990  55.1659997
  23.5399992  21.2154990  55.8169997  25.5919992  21.2264990  55.9319997
  25.5569992  22.3254990  56.0909997  26.4289992  20.8484990  55.3059997
  25.8669992  20.6704990  57.2949997  25.1209992  21.1364990  57.9739997
  26.8249992  21.1414990  57.5999997  25.8389992  19.1424990  57.3559997
  26.5449992  18.7024990  58.0929997  26.2349992  18.7444990  56.3979997
  24.8199992  18.7064990  57.2809997  10.5449992  82.8704990  53.9309997
  11.1919992  83.6114990  54.4469997  11.2079992  82.2014990  53.3429997
   9.9269992  82.2344990  54.6009997   9.5849992  83.6504990  52.9889997
   9.1059992  84.4034990  53.6509997  10.2479992  84.2484990  52.3279997
   8.6189992  82.9604990  52.0339997   8.2149992  83.6724990  51.2829997
   9.1669992  82.1664990  51.4819997   7.3939992  82.3864990  52.7209997
   7.7519992  81.6654990  53.4869997   6.9859992  83.2674990  53.2609997
   6.5419992  81.6654990  51.7679997   5.5169992  82.0844990  51.6779997
   7.0219992  81.6134990  50.7669997   6.3419992  80.1784990  52.2349997
   7.2929992  79.6054990  52.2169997   6.1029992  80.3324990  53.3079997
   5.1629992  79.5264990  51.5379997   4.9669992  78.5074990  51.9359997
   4.2189992  80.1014990  51.6549997   5.2539992  79.4414990  49.9299997
   5.4669992  80.4914990  49.6339997   6.1749992  78.9184990  49.5959997
   4.0209992  78.9774990  49.1289997   3.7839992  77.9224990  49.3839997
   3.1719992  79.5914990  49.4979997   4.1659992  78.9704990  47.5579997
   5.0129992  78.2774990  47.3669997   3.2599992  78.4934990  47.1269997
   4.4439992  80.3674990  46.8769997   3.6289992  80.9994990  47.2889997
   5.4429992  80.6994990  47.2339997   4.4819992  80.2974990  45.3479997
   3.7409992  79.5734990  44.9449997   4.0439992  81.2794990  45.0699997
   5.7929992  80.2564990  44.5639997   6.4539992  81.1124990  44.8169997
   6.3339992  79.3654990  44.9479997   5.5389992  80.2154990  42.9819997
   6.4819992  79.8084990  42.5579997   4.6879992  79.5304990  42.7829997
   5.2649992  81.5464990  42.2859997   4.2239992  81.8884990  42.4709997
   5.8989992  82.3544990  42.7099997   5.4599992  81.4864990  40.8029997
   5.5599992  80.4714990  40.0919997   5.5269992  82.7164990  40.3269997
   6.1309992  82.8434990  39.0899997   5.7429992  82.1684990  38.2979997
   5.6739992  83.7984990  38.7529997   7.7509992  82.9064990  39.2119997
   7.9869992  83.9264990  39.5839997   8.3369992  82.8654990  37.8529997
   7.6709992  83.4194990  37.1569997   9.2929992  83.4304990  37.8689997
   8.4209992  81.4554990  37.5029997   8.3149992  81.1274990  35.9969997
   8.2159992  79.5544990  35.8909997   8.7279992  78.7494990  36.9249997
   8.9709992  77.7474990  36.5089997   9.7389992  79.1244990  37.1949997
   7.7959992  78.6264990  38.1609997   8.3369992  78.2004990  38.9939997
   7.5699992  79.6514990  38.4159997   6.4769992  77.9044990  37.9319997
   6.7629992  76.6264990  37.0769997   7.1739992  75.8514990  37.7069997
   5.7649992  76.3164990  36.8069997   7.3799992  76.8524990  36.2199997
   5.7299992  77.5554990  39.2029997   4.9079992  76.9094990  38.9309997
   6.4559992  76.9834990  39.7609997   5.5379992  78.5014990  39.6879997
   5.6299992  78.7624990  37.0479997   5.2809992  79.6204990  37.6029997
   4.8009992  78.2764990  36.5559997   6.1499992  79.0904990  36.1599997
   7.0459992  81.7604990  35.5009997   9.5099992  81.5494990  35.2329997
   8.2609992  81.8074990  40.0339997   9.3019992  82.0954990  40.8269997
   9.8079992  83.1454990  41.0359997   9.8369992  80.7884990  41.5449997
  10.9389992  80.7364990  41.4089997   9.2909992  79.8994990  41.1629997
   9.6649992  80.7424990  43.0659997   8.5859992  80.6084990  43.2939997
  10.0519992  81.6864990  43.5059997  10.3619992  79.5254990  43.7669997
  11.4519992  79.7184990  43.6719997  10.0539992  78.6134990  43.2109997
  10.1609992  79.3274990  45.2889997  10.9179992  78.5954990  45.6419997
   9.0749992  79.0974990  45.3319997  10.3599992  80.5644990  46.1349997
   9.8749992  81.4774990  45.7299997  11.4579992  80.7054990  46.2259997
   9.8879992  80.4524990  47.5939997   8.8199992  80.1514990  47.6459997
   9.9459992  81.5394990  47.8189997  10.7639992  79.5394990  48.5019997
  11.8029992  79.8344990  48.2439997  10.6749992  78.4894990  48.1489997
  10.3349992  79.7804990  50.0019997  10.8339992  80.6854990  50.3789997
   9.5939992  79.0234990  50.7749997   9.4019992  79.3034990  51.8219997
   9.0029992  77.7074990  50.4229997   9.1919992  77.5404990  49.3409997
   7.9099992  77.7834990  50.6029997   9.4679992  76.4264990  51.1169997
  10.4719992  76.2524990  50.6739997   8.8909992  75.5504990  50.7539997
   9.4049992  76.6014990  52.6599997  10.1659992  77.2484990  53.1469997
   9.6249992  75.5364990  52.8849997   8.0019992  76.8144990  53.2829997
   7.2619992  76.0934990  52.8739997   7.6089992  77.8214990  53.0259997
   8.0259992  76.5454990  54.8019997   8.5509992  75.5814990  54.9699997
   6.9979992  76.3184990  55.1569997   8.5169992  77.6314990  55.7769997
   8.6589992  77.2034990  56.7929997   7.8769992  78.5354990  55.6939997
   9.8999992  78.1974990  55.5599997  10.0919992  78.7304990  54.6039997
  10.5309992  77.2974990  55.3979997  10.4229992  79.0454990  56.7169997
  11.1689992  78.5184990  57.3489997   9.5549992  79.3884990  57.3189997
  10.9279992  79.9364990  56.2869997  91.3289992 130.0744990  57.2669997
  91.6769992 131.0684990  56.9129997  91.5479992 130.1794990  58.3509997
  90.2359992 129.9374990  57.1219997  92.1239992 128.9924990  56.4529997
  93.1439992 129.4164990  56.3379997  92.0699992 127.9914990  56.9319997
  91.5659992 128.8994990  55.0309997  92.0329992 128.1084990  54.4059997
  90.4709992 128.7644990  55.1629997  91.7749992 130.1244990  54.1849997
  91.3169992 131.0344990  54.6279997  92.8449992 130.4244990  54.1839997
  91.2969992 129.8784990  52.7529997  91.6489992 128.8964990  52.3709997
  90.1949992 129.7724990  52.6559997  91.7929992 131.0574990  51.8989997
  91.5009992 131.9264990  52.5269997  92.8499992 131.2734990  51.6349997
  90.9189992 131.3004990  50.5869997  89.8849992 130.9934990  50.8529997
  91.0239992 132.3774990  50.3339997  91.3679992 130.4424990  49.3459997
  92.2519992 130.9834990  48.9459997  91.8199992 129.4454990  49.5399997
  90.3759992 130.2284990  48.2369997  90.5899992 129.4424990  47.4809997
  89.4029992 129.9104990  48.6709997  90.1129992 131.4074990  47.4219997
  89.2119992 131.2394990  46.7929997  89.8459992 132.3364990  47.9699997
  91.2839992 131.7594990  46.4679997  92.2189992 131.7524990  47.0679997
  91.4059992 131.0064990  45.6609997  91.1299992 133.2134990  45.8949997
  90.2009992 133.2924990  45.2919997  91.0929992 134.0074990  46.6709997
  92.3359992 133.6344990  45.0149997  92.2759992 134.7294990  44.8349997
  93.2159992 133.4804990  45.6749997  92.6239992 132.9384990  43.6789997
  93.6879992 133.1254990  43.4199997  92.4699992 131.8434990  43.7899997
  91.6519992 133.5074990  42.6219997  90.5829992 133.3704990  42.8929997
  91.8219992 134.5994990  42.5069997  91.8519992 132.6624990  41.4019997
  92.6959992 131.7374990  41.3999997  91.0929992 133.0274990  40.4749997
  90.9449992 132.3544990  39.2329997  90.9729992 131.2514990  39.3589997
  90.0299992 132.7654990  38.7549997  92.0159992 132.9654990  38.3029997
  92.0959992 134.0644990  38.4399997  91.6119992 132.5344990  36.8499997
  90.5189992 132.7124990  36.7669997  92.2209992 133.0924990  36.1069997
  92.0369992 131.1134990  36.7019997  91.1569992 129.9744990  36.0439997
  92.0139992 128.6484990  36.1649997  93.3339992 128.5024990  35.6989997
  93.4719992 127.5184990  35.2009997  93.6259992 129.1124990  34.8179997
  94.3719992 128.7424990  36.8349997  95.3639992 128.6384990  36.4219997
  94.3289992 129.7824990  37.1229997  94.3299992 127.8824990  38.1089997
  93.2719992 128.4544990  39.0909997  93.5789992 129.4294990  39.4399997
  92.2719992 128.5924990  38.7069997  93.2139992 127.8144990  39.9589997
  93.8879992 126.5214990  37.7469997  93.9869992 125.8184990  38.5609997
  92.8769992 126.6394990  37.3859997  94.6079992 126.1684990  37.0249997
  95.7309992 127.8434990  38.6919997  95.6769992 127.4754990  39.7059997
  95.9469992 128.9004990  38.7389997  96.4299992 127.3004990  38.0729997
  89.9269992 129.8434990  36.8239997  91.1129992 130.3334990  34.5629997
  93.3369992 132.4164990  38.5979997  94.3869992 132.8494990  38.0059997
  94.4979992 133.7804990  37.2489997  95.5359992 131.9314990  38.4279997
  96.4389992 132.5384990  38.2039997  95.5389992 130.9044990  38.0039997
  95.5949992 131.6744990  39.8829997  94.8789992 130.8624990  40.1299997
  95.3169992 132.5844990  40.4569997  97.0589992 131.5744990  40.4509997
  97.5999992 132.4934990  40.1389997  97.4819992 130.6384990  40.0269997
  97.1269992 131.3774990  41.9429997  96.6709992 132.1964990  42.5399997
  98.1789992 131.3374990  42.2989997  96.3979992 130.0414990  42.3459997
  96.4689992 129.4044990  41.4379997  95.2899992 130.0994990  42.3959997
  96.8769992 129.6544990  43.6939997  96.8909992 130.4964990  44.4189997
  97.9199992 129.2814990  43.6119997  96.0819992 128.3954990  44.2489997
  96.7139992 128.2114990  45.1439997  96.1549992 127.5684990  43.5109997
  94.5939992 128.5274990  44.6579997  93.7479992 128.0644990  44.1299997
  94.1749992 129.2204990  45.7279997  93.0859992 129.3144990  45.8509997
  94.9279992 130.0654990  46.7319997  94.4919992 131.0844990  46.6549997
  96.0059992 130.0554990  46.4639997  94.8379992 129.4884990  48.1689997
  95.3379992 128.4974990  48.2189997  93.7599992 129.2884990  48.3519997
  95.4449992 130.3974990  49.2559997  94.6949992 131.2154990  49.3019997
  96.4259992 130.8684990  49.0289997  95.6659992 129.7404990  50.6559997
  96.3879992 128.8964990  50.6269997  94.7569992 129.2144990  51.0199997
  96.1379992 130.6144990  51.8359997  95.3859992 131.4264990  51.9329997
  97.1559992 130.8994990  51.4939997  96.2579992 129.9174990  53.2069997
  97.2859992 129.5044990  53.2889997  95.6609992 128.9814990  53.2459997
  95.9569992 130.8004990  54.5049997  94.9279992 131.1614990  54.2939997
  96.6509992 131.6554990  54.3509997  96.2499992 130.1154990  55.8259997
  95.9779992 130.7414990  56.7029997  97.3549992 130.0004990  55.8089997
  95.7639992 129.1164990  55.8019997  14.6079992 101.0424990  55.1059997
  14.6689992  99.9444990  54.9449997  14.3349992 101.3984990  56.1229997
  15.6029992 101.4154990  54.7809997  13.6009992 101.7564990  54.2009997
  12.5879992 101.3744990  54.4519997  13.7229992 102.8484990  54.3689997
  13.8279992 101.4774990  52.6649997  13.8199992 100.3874990  52.4489997
  13.1359992 102.1214990  52.0819997  15.2499992 102.0924990  52.1469997
  15.4229992 102.9474990  52.8359997  16.0539992 101.3884990  52.4509997
  15.3439992 102.4134990  50.6809997  15.3799992 101.4014990  50.2229997
  14.3739992 102.8734990  50.3969997  16.5439992 103.2454990  50.2379997
  16.5959992 104.1734990  50.8469997  17.3939992 102.5504990  50.4089997
  16.3729992 103.4434990  48.7849997  16.2679992 102.4574990  48.2849997
  15.3779992 103.9074990  48.6159997  17.5929992 104.0974990  48.0729997
  17.9819992 104.9174990  48.7119997  18.4129992 103.3604990  47.9279997
  17.2459992 104.6594990  46.6469997  16.4479992 105.4314990  46.6839997
  18.2189992 105.0514990  46.2799997  16.7729992 103.6764990  45.5649997
  17.6109992 102.9474990  45.5519997  15.9149992 103.1274990  46.0079997
  16.3809992 104.1784990  44.1789997  15.6409992 104.9864990  44.3659997
  17.2049992 104.6754990  43.6249997  15.5589992 103.0974990  43.3759997
  14.7989992 102.7774990  44.1189997  14.9639992 103.4754990  42.5169997
  16.4909992 101.9894990  42.7649997  17.0589992 102.5004990  41.9579997
  17.1189992 101.5214990  43.5529997  15.7499992 100.8164990  42.1819997
  14.9419992 100.4424990  42.8459997  15.1809992 101.1224990  41.2789997
  16.7559992  99.6484990  41.7619997  17.3369992  99.8214990  40.8309997
  17.5659992  99.4834990  42.5039997  15.9979992  98.3284990  41.5499997
  16.2259992  97.2824990  42.1629997  15.1879992  98.5514990  40.5589997
  14.7869992  97.4094990  39.8149997  15.7019992  96.9474990  39.3879997
  14.2119992  96.5984990  40.3139997  14.0179992  97.9244990  38.4889997
  13.2929992  97.1954990  38.0659997  15.0589992  98.2614990  37.4619997
  15.7149992  97.3934990  37.2409997  14.5499992  98.6524990  36.5549997
  15.9589992  99.2284990  37.9949997  17.0259992 100.1294990  37.2149997
  16.1179992 101.4004990  36.7889997  15.4329992 102.0494990  37.8709997
  15.5799992 101.6244990  38.8869997  15.7619992 103.1054990  37.9709997
  13.8809992 101.9554990  37.6469997  13.6679992 100.8974990  37.6279997
  13.4719992 102.3534990  38.5629997  13.0569992 102.4954990  36.5199997
  13.1339992 103.9454990  36.4989997  14.1529992 104.2754990  36.3609997
  12.4709992 104.3674990  35.7579997  12.9409992 104.3854990  37.4659997
  13.5369992 101.9704990  35.1889997  14.5409992 102.3184990  34.9989997
  13.3649992 100.9154990  35.3469997  12.8379992 102.3144990  34.4409997
  11.6119992 102.1074990  36.6009997  11.1319992 102.6814990  37.3799997
  11.6329992 101.0484990  36.8119997  11.0489992 102.3104990  35.7019997
  18.1009992 100.5754990  38.1719997  17.3949992  99.4144990  35.9739997
  13.3039992  99.1104990  38.7379997  12.1369992  99.0584990  39.3289997
  11.5739992  98.0234990  39.5849997  11.7329992 100.4794990  39.8259997
  10.9709992 100.8814990  39.1239997  12.6829992 101.0454990  39.9269997
  11.0489992 100.4144990  41.1599997  11.6419992  99.7584990  41.8329997
  10.1079992  99.8244990  41.1269997  10.6559992 101.8224990  41.6249997
   9.8559992 102.1914990  40.9479997  11.5699992 102.4084990  41.3909997
  10.2009992 101.9114990  43.1389997   9.3269992 101.2544990  43.3329997
   9.8149992 102.9124990  43.4269997  11.3599992 101.5264990  44.1829997
  12.2849992 102.1414990  44.1519997  11.7859992 100.5154990  44.0119997
  10.9729992 101.5414990  45.6999997  10.1169992 100.8354990  45.7539997
  10.5539992 102.5524990  45.8909997  12.0549992 101.1724990  46.7419997
  11.7359992 101.3724990  47.7869997  12.9579992 101.7584990  46.4649997
  12.3349992  99.7114990  46.5879997  11.4969992  99.0464990  46.8409997
  13.4849992  99.0584990  46.3809997  13.4179992  97.9724990  46.2209997
  14.8549992  99.7074990  46.2289997  14.7169992 100.6414990  45.6439997
  15.4119992  99.1104990  45.4749997  15.6469992  99.9714990  47.4729997
  15.1749992 100.8104990  48.0269997  16.7059992 100.2044990  47.2279997
  15.7689992  98.6984990  48.2739997  16.2989992  98.0564990  47.5379997
  14.7629992  98.2854990  48.5029997  16.6019992  98.7104990  49.5389997
  16.0739992  99.4004990  50.2309997  17.5579992  99.1754990  49.2149997
  16.8409992  97.4324990  50.3219997  17.6479992  97.5474990  51.0779997
  17.2829992  96.8134990  49.5129997  15.6739992  96.7744990  51.0049997
  15.9949992  95.8154990  51.4629997  14.9609992  96.4204990  50.2299997
  14.9589992  97.7164990  51.9539997  14.6569992  98.6324990  51.4029997
  15.5429992  98.1894990  52.7729997  13.7109992  97.1194990  52.5649997
  13.2629992  97.8354990  53.2869997  13.9039992  96.1234990  53.0159997
  12.9019992  97.0284990  51.8089997  98.2959992 123.2354990  56.8509997
  97.6389992 122.3404990  56.8089997  98.2389992 123.4444990  57.9409997
  99.3579992 123.1024990  56.5549997  97.7599992 124.4434990  55.9899997
  97.6469992 123.9224990  55.0159997  96.6969992 124.5774990  56.2819997
  98.6099992 125.6854990  55.9339997  98.2479992 126.4614990  55.2269997
  98.4559992 126.1534990  56.9299997 100.1389992 125.4224990  55.6159997
 100.6079992 126.4264990  55.5349997 100.4799992 124.8224990  56.4859997
 100.5079992 124.6774990  54.3789997 101.5519992 124.9994990  54.1819997
 100.5069992 123.5944990  54.6299997  99.7399992 124.9754990  53.0479997
  99.9889992 124.2984990  52.2029997  98.6869992 124.6524990  53.1959997
  99.7709992 126.4904990  52.5679997  99.2219992 126.9364990  53.4239997
 100.7989992 126.9094990  52.5309997  98.7069992 126.9184990  51.5789997
  97.7149992 126.5144990  51.8739997  98.7819992 128.0194990  51.7069997
  98.9419992 126.5624990  50.1079997  99.7849992 127.2304990  49.8279997
  99.1589992 125.4744990  50.0379997  97.8219992 127.0664990  49.1049997
  96.8919992 127.1454990  49.7079997  97.9589992 128.1234990  48.7929997
  97.5969992 126.2274990  47.9199997  98.5849992 126.2594990  47.4119997
  97.4599992 125.1684990  48.2269997  96.5219992 126.6744990  46.9179997
  95.5209992 126.6114990  47.3949997  96.8119992 127.7454990  46.9729997
  96.6189992 125.8054990  45.6839997  96.5339992 124.7384990  45.9839997
  95.7799992 126.0864990  45.0119997  97.8869992 126.0044990  44.7449997
  98.7519992 125.7024990  45.3729997  98.0519992 125.2064990  43.9889997
  98.0339992 127.3954990  44.1589997  97.2259992 127.6554990  43.4419997
  97.9669992 128.1604990  44.9619997  99.4409992 127.3954990  43.5419997
 100.3579992 128.1714990  43.8529997  99.5619992 126.4654990  42.6649997
 100.6999992 126.5714990  41.7339997 100.5619992 127.3824990  40.9879997
 101.6429992 126.7524990  42.2919997 100.9939992 125.1814990  41.0829997
 101.9639992 125.1964990  40.5419997  99.7879992 124.7854990  40.2009997
  98.8369992 124.7584990  40.7749997  99.6759992 125.4434990  39.3129997
  99.8379992 123.4334990  39.7609997 100.7739992 122.9224990  38.5069997
 101.0139992 124.3714990  37.9119997 101.4789992 124.4004990  36.5789997
 102.0019992 125.3654990  36.4059997 102.2449992 123.6414990  36.3089997
 100.4119992 124.2634990  35.4419997 101.0559992 124.2884990  34.5749997
  99.9939992 123.2674990  35.4629997  99.2529992 125.2074990  35.4069997
  98.7149992 125.3844990  34.0239997  99.5679992 125.4264990  33.3639997
  98.1419992 124.5154990  33.7369997  98.2319992 126.3504990  33.9979997
  98.1179992 124.5824990  36.2579997  98.6169992 124.1044990  37.0879997
  97.4189992 125.3204990  36.6219997  97.5749992 123.7934990  35.7579997
  99.6879992 126.6144990  35.9409997  98.9679992 127.4034990  36.0999997
 100.3799992 127.0544990  35.2389997 100.2319992 126.5474990  36.8719997
 102.0799992 122.3824990  39.1049997  99.8909992 122.1294990  37.5349997
 101.1189992 124.1944990  42.1459997 102.3839992 123.8214990  42.6019997
 103.4179992 124.3434990  42.2829997 102.3219992 122.7144990  43.6109997
 103.1719992 122.9104990  44.2999997 102.7609992 121.7474990  43.2839997
 101.0969992 122.6594990  44.4959997 100.2989992 122.1124990  43.9499997
 100.6189992 123.6584990  44.5889997 101.2649992 122.0404990  45.8819997
 100.2699992 121.9144990  46.3609997 101.7419992 122.8154990  46.5199997
 101.9049992 120.6304990  45.8669997 102.8799992 120.7324990  45.3459997
 101.2949992 119.9474990  45.2379997 102.1499992 119.8974990  47.1909997
 102.6169992 118.9314990  46.9019997 101.1999992 119.6844990  47.7269997
 103.1559992 120.6374990  48.1369997 103.8269992 121.3254990  47.5789997
 103.7979992 119.8694990  48.6189997 102.4639992 121.5254990  49.2039997
 101.9599992 122.3914990  48.7249997 103.2879992 122.0304990  49.7509997
 101.5009992 120.9874990  50.2069997 100.5339992 120.6614990  49.7959997
 101.6879992 120.7994990  51.5419997 100.9789992 120.1994990  52.1319997
 102.9349992 121.1234990  52.2439997 103.8269992 121.3124990  51.6079997
 103.1129992 120.2694990  52.9309997 102.7489992 122.4204990  53.0199997
 102.0409992 122.2914990  53.8659997 102.3159992 123.2254990  52.3879997
 104.0979992 123.0034990  53.5749997 103.7749992 123.9304990  54.0949997
 104.7609992 123.1824990  52.7019997 104.7599992 122.1314990  54.6159997
 105.6229992 122.7604990  54.9219997 105.2129992 121.2904990  54.0499997
 103.9509992 121.5984990  55.8119997 104.5329992 120.9124990  56.4629997
 103.0559992 121.1254990  55.3529997 103.6089992 122.8034990  56.7159997
 102.8529992 123.4974990  56.2909997 104.5639992 123.3574990  56.8409997
 103.1709992 122.3844990  58.1599997 103.0729992 123.3454990  58.7089997
 103.9229992 121.7304990  58.6519997 101.9099992 121.5924990  58.1279997
 101.1139992 122.2434990  57.7079997 101.5889992 121.2944990  59.1489997
 102.0299992 120.6544990  57.5459997   8.4959992  38.6834990  53.3239997
   7.9069992  38.3924990  52.4289997   8.8649992  39.7094990  53.1119997
   7.9389992  38.6654990  54.2849997   9.7049992  37.7574990  53.3759997
  10.2939992  37.9864990  54.2899997   9.2389992  36.7804990  53.6269997
  10.5709992  37.8304990  52.1479997   9.9199992  38.0384990  51.2719997
  11.1819992  38.7384990  52.3409997  11.3799992  36.5434990  51.8639997
  12.0279992  36.2344990  52.7119997  10.6849992  35.7184990  51.5959997
  12.4119992  36.7394990  50.7229997  13.3439992  37.1194990  51.1939997
  12.6119992  35.7164990  50.3399997  11.9009992  37.7034990  49.5499997
  11.6339992  38.7444990  49.8329997  12.8319992  37.7634990  48.9459997
  10.6109992  37.1304990  48.8299997  10.8719992  36.0514990  48.8729997
   9.7299992  37.3324990  49.4749997  10.4349992  37.2864990  47.3269997
  10.0169992  38.2714990  47.0289997  11.4179992  37.0414990  46.8699997
   9.5359992  36.1754990  46.7559997   9.4109992  36.5444990  45.7149997
  10.1029992  35.2474990  46.9829997   8.0969992  36.1094990  47.4589997
   8.2119992  35.8514990  48.5329997   7.7929992  37.1774990  47.4499997
   7.0949992  35.1944990  46.8579997   6.0599992  35.3924990  47.2089997
   7.1229992  35.3204990  45.7539997   7.3469992  33.7244990  47.1599997
   8.3759992  33.5214990  46.7909997   7.3139992  33.6564990  48.2679997
   6.3819992  32.6614990  46.6119997   6.8049992  31.7564990  47.0989997
   5.3789992  32.6754990  47.0919997   6.3459992  32.5344990  45.0509997
   5.5489992  31.8634990  44.6649997   6.1019992  33.5494990  44.6699997
   7.7939992  32.1704990  44.4099997   8.5189992  33.0124990  44.4419997
   8.2479992  31.4434990  45.1169997   7.7289992  31.5474990  43.0289997
   6.8819992  30.6624990  42.7569997   8.6289992  32.0804990  42.2429997
   8.6269992  31.7194990  40.8499997   9.2949992  30.8384990  40.7419997
   7.5959992  31.4344990  40.5519997   9.0539992  32.9304990  39.9799997
   8.3699992  33.7804990  40.1869997   8.8869992  32.6744990  38.4569997
   9.4339992  31.7584990  38.1449997   7.7929992  32.5064990  38.3529997
   9.3119992  33.7234990  37.6209997   8.3539992  34.7204990  36.8409997
   9.4369992  35.6724990  36.0769997  10.8219992  35.5244990  36.0339997
  11.1329992  34.4614990  36.1229997  11.1249992  36.0504990  35.1039997
  11.4969992  36.3584990  37.1199997  11.1119992  35.9084990  38.0239997
  12.5489992  36.1404990  37.0179997  11.3869992  37.8754990  37.2629997
  10.0479992  38.2114990  37.7939997   9.3639992  37.7624990  37.0889997
   9.8269992  37.6104990  38.6639997   9.9669992  39.2544990  38.0639997
  12.4289992  38.2934990  38.1979997  13.3629992  37.8394990  37.9009997
  12.3629992  39.3674990  38.2839997  12.1969992  37.9384990  39.1919997
  11.7419992  38.5264990  35.8959997  10.9869992  38.2714990  35.1669997
  12.7559992  38.2484990  35.6479997  11.7699992  39.5804990  36.1319997
   7.4969992  33.9404990  35.8339997   7.6649992  35.6184990  37.7919997
  10.3759992  33.2834990  40.3429997  10.6609992  34.3494990  41.0979997
   9.8179992  35.0934990  41.5649997  12.1629992  34.4334990  41.1429997
  12.4119992  34.8204990  40.1319997  12.5909992  33.4104990  41.2029997
  12.7249992  35.4304990  42.1719997  12.3219992  36.4604990  42.0669997
  13.8069992  35.4994990  41.9299997  12.4819992  34.9534990  43.6039997
  11.4759992  35.1984990  44.0069997  13.1169992  35.5784990  44.2669997
  12.5889992  33.4344990  43.8249997  13.6309992  33.1444990  43.5709997
  11.7799992  32.9604990  43.2289997  12.2429992  32.9494990  45.2119997
  11.2999992  33.4844990  45.4549997  12.9859992  33.3804990  45.9169997
  12.1249992  31.4224990  45.4309997  13.1219992  31.0184990  45.1559997
  11.4759992  30.9764990  44.6469997  11.7099992  30.9374990  46.7839997
  12.5879992  31.0964990  47.4449997  11.5129992  29.8444990  46.7539997
  10.5439992  31.7274990  47.3349997   9.5949992  31.4514990  46.8519997
  10.5729992  32.5474990  48.3719997   9.6399992  32.8734990  48.8549997
  11.7569992  32.8914990  49.1909997  12.0849992  33.9434990  49.0469997
  12.6819992  32.3054990  49.0059997  11.4079992  32.7914990  50.6679997
  10.4459992  33.2744990  50.9409997  12.1949992  33.3234990  51.2429997
  11.5279992  31.4064990  51.1889997  12.5469992  31.0464990  50.9329997
  10.8139992  30.7454990  50.6509997  11.3029992  31.2454990  52.6909997
  12.1269992  31.7554990  53.2329997  11.3329992  30.1464990  52.8509997
   9.8479992  31.6784990  53.1309997   9.1309992  31.3944990  52.3309997
   9.8659992  32.7784990  53.2809997   9.4629992  31.1104990  54.4939997
  10.0729992  31.5884990  55.2899997   9.6919992  30.0334990  54.6389997
   7.9559992  31.3284990  54.8099997   7.8519992  32.4354990  54.8109997
   7.6979992  31.0924990  55.8639997   6.8449992  30.7424990  53.9579997
   7.1399992  31.0724990  52.9389997   5.8289992  31.1304990  54.1889997
   6.8539992  29.6434990  54.1139997 136.4349992  94.2274990  53.6409997
 135.3259992  94.2054990  53.5729997 136.6389992  95.0344990  54.3769997
 136.7669992  93.3044990  54.1619997 137.1179992  94.4904990  52.3569997
 136.6939992  95.4614990  52.0239997 138.1839992  94.7634990  52.5109997
 136.9649992  93.4454990  51.1739997 137.6439992  93.8744990  50.4069997
 137.3159992  92.4444990  51.5039997 135.6019992  93.3924990  50.6279997
 135.3859992  92.3784990  50.2279997 134.9109992  93.6254990  51.4649997
 135.2679992  94.3924990  49.5239997 134.1759992  94.5384990  49.3759997
 135.8789992  95.2494990  49.8809997 135.8759992  94.0344990  48.2009997
 136.0849992  94.9394990  47.5909997 136.8489992  93.5664990  48.4609997
 135.0979992  93.0584990  47.2559997 134.8059992  92.0884990  47.7129997
 134.3029992  93.7324990  46.8709997 136.0639992  92.8434990  46.0369997
 135.3649992  92.6264990  45.2009997 136.6729992  93.7234990  45.7409997
 137.1999992  91.7514990  46.2349997 137.6309992  92.1534990  47.1769997
 136.6639992  90.8374990  46.5669997 138.2619992  91.5864990  45.1539997
 138.8429992  92.5324990  45.1629997 138.9489992  90.7574990  45.4269997
 137.7259992  91.3204990  43.7229997 137.0189992  92.1534990  43.5199997
 138.6229992  91.3644990  43.0689997 136.9469992  89.9524990  43.7299997
 137.7309992  89.1654990  43.7099997 136.3919992  89.7034990  44.6599997
 135.9379992  89.8254990  42.5169997 135.4029992  88.8704990  42.7099997
 135.2749992  90.6904990  42.7319997 136.6549992  89.9644990  41.1489997
 137.3159992  90.8564990  41.0969997 137.1999992  89.0044990  41.0249997
 135.7119992  90.1604990  39.9589997 136.3419992  90.2134990  39.0449997
 135.0389992  89.2764990  39.9499997 134.7959992  91.3674990  40.0219997
 133.9429992  91.5914990  40.8709997 135.1689992  92.1534990  39.0459997
 134.5309992  93.4434990  38.8609997 134.1889992  93.4954990  37.8049997
 133.6329992  93.6164990  39.4909997 135.4689992  94.6534990  39.0179997
 134.9489992  95.6014990  38.7629997 136.6319992  94.4514990  38.0159997
 136.7959992  93.3534990  37.9689997 136.4039992  94.8124990  36.9899997
 137.7739992  95.1454990  38.5069997 139.2349992  94.6964990  38.2129997
 139.1939992  93.0924990  38.2099997 139.9919992  92.3444990  37.2929997
 141.0409992  92.7004990  37.2219997 140.1889992  91.3094990  37.6459997
 139.3279992  92.1564990  35.8799997 138.8119992  93.0644990  35.6039997
 140.1589992  92.0554990  35.1979997 138.3479992  91.0374990  35.6229997
 137.1279992  91.1024990  36.5969997 136.5579992  90.1994990  36.4359997
 137.5539992  91.0304990  37.5869997 136.5559992  91.9704990  36.3059997
 137.9279992  91.2724990  34.2189997 137.3209992  90.5254990  33.7309997
 137.3299992  92.1674990  34.1249997 138.8069992  91.3454990  33.5959997
 138.9699992  89.7414990  35.7209997 139.9129992  89.6124990  35.2119997
 138.3539992  88.8634990  35.5889997 139.1779992  89.5834990  36.7689997
 139.7049992  95.1074990  36.8859997 140.0199992  95.1964990  39.3229997
 135.9879992  94.7184990  40.3439997 135.2769992  95.3014990  41.2549997
 134.2439992  95.9194990  41.0559997 135.9139992  95.2594990  42.5729997
 137.0249992  95.2304990  42.5629997 135.5939992  94.2724990  42.9709997
 135.4179992  96.3554990  43.5689997 134.3219992  96.2274990  43.6999997
 135.5399992  97.3354990  43.0609997 136.0829992  96.4994990  44.9669997
 135.8839992  95.4814990  45.3649997 135.5879992  97.3564990  45.4709997
 137.5899992  96.6184990  45.0629997 138.0529992  97.2484990  44.2719997
 138.0479992  95.6194990  44.9039997 138.1199992  97.0424990  46.4219997
 139.2219992  96.9634990  46.3049997 137.7629992  96.4314990  47.2779997
 137.7009992  98.4564990  46.9109997 136.6099992  98.5954990  47.0699997
 137.9849992  99.0884990  46.0429997 138.3789992  98.8804990  48.2879997
 138.2629992  99.9724990  48.4539997 139.4759992  98.7754990  48.1429997
 137.7919992  98.1184990  49.4459997 136.7359992  98.3254990  49.6749997
 138.4739992  97.2274990  50.1139997 137.9059992  96.7374990  50.9189997
 139.8619992  96.7504990  49.8919997 140.4199992  96.8314990  50.8489997
 140.4269992  97.3474990  49.1449997 139.8749992  95.2794990  49.5989997
 139.3379992  95.0304990  48.6589997 139.5529992  94.8614990  50.5769997
 141.1709992  94.5984990  49.2479997 141.6199992  94.9044990  48.2779997
 140.9739992  93.5254990  49.0379997 142.2909992  94.7254990  50.3139997
 142.4219992  95.8144990  50.4929997 143.2589992  94.3434990  49.9229997
 141.8479992  94.0844990  51.6299997 140.9769992  94.6514990  52.0209997
 142.6659992  94.3304990  52.3409997 141.4899992  92.5934990  51.7529997
 142.3129992  92.1124990  51.1819997 140.5799992  92.1634990  51.2819997
 141.6269992  92.1054990  53.2679997 142.5159992  92.6874990  53.5919997
 141.8409992  91.0224990  53.3979997 140.4859992  92.4574990  54.2219997
 140.7289992  93.4124990  54.7349997 140.3719992  91.6634990  54.9909997
 139.4929992  92.6254990  53.7509997 117.7769992 116.6084990  57.8769997
 117.4419992 115.5574990  57.7419997 116.9769992 117.0394990  58.5159997
 118.6939992 116.6014990  58.5039997 117.8919992 117.4954990  56.6149997
 118.4049992 118.4364990  56.9059997 118.4749992 116.9384990  55.8509997
 116.4389992 117.7684990  55.8859997 115.7509992 118.3444990  56.5409997
 116.6299992 118.2694990  54.9129997 115.6829992 116.4464990  55.4639997
 116.2749992 115.6454990  54.9709997 115.3469992 116.0824990  56.4589997
 114.5199992 116.8314990  54.5999997 114.0779992 117.5274990  55.3429997
 114.7459992 117.2834990  53.6099997 113.4699992 115.7434990  54.3579997
 113.6419992 115.0104990  53.5399997 113.4629992 115.2024990  55.3279997
 112.0299992 116.1544990  54.0399997 111.4489992 115.2134990  53.9299997
 111.7469992 116.7004990  54.9659997 111.9519992 117.0264990  52.7839997
 110.8719992 117.2554990  52.6509997 112.5559992 117.9524990  52.6749997
 112.2099992 116.3434990  51.4389997 112.9999992 115.5634990  51.4739997
 111.2999992 115.7494990  51.2089997 112.5059992 117.3274990  50.3039997
 111.7819992 118.1704990  50.2929997 113.5429992 117.6784990  50.4909997
 112.5039992 116.6384990  48.9439997 113.0629992 115.6824990  49.0349997
 111.5099992 116.1914990  48.7259997 113.0499992 117.4194990  47.7209997
 112.2939992 118.1484990  47.3599997 113.8689992 118.1054990  48.0259997
 113.5739992 116.4844990  46.6389997 114.2799992 117.0614990  46.0039997
 114.1229992 115.6994990  47.2009997 112.4929992 115.9274990  45.7439997
 111.8879992 115.1954990  46.3199997 111.8229992 116.6894990  45.2899997
 113.0529992 115.0854990  44.5189997 113.9209992 114.5394990  44.9479997
 112.2799992 114.3184990  44.3029997 113.3629992 115.9934990  43.2689997
 113.8169992 117.1154990  43.3719997 113.1069992 115.4094990  42.1249997
 113.5709992 116.1384990  40.9579997 112.7089992 116.1804990  40.2579997
 113.7069992 117.2314990  41.0999997 114.8759992 115.5304990  40.3839997
 115.2669992 116.1274990  39.5319997 114.5559992 114.2484990  39.7129997
 113.8369992 113.7504990  40.3979997 113.8929992 114.4654990  38.8479997
 115.5879992 113.3004990  39.4379997 116.4469992 113.4024990  38.1139997
 115.8779992 114.7124990  37.4289997 116.6809992 115.4994990  36.5879997
 117.3009992 116.1634990  37.2279997 117.2419992 114.7714990  35.9649997
 115.8249992 116.2264990  35.4949997 116.4569992 117.0344990  35.1589997
 115.6779992 115.6094990  34.6209997 114.5279992 116.9314990  35.8169997
 113.4869992 115.9554990  36.3969997 113.2259992 115.3584990  35.5359997
 113.8639992 115.3914990  37.2359997 112.5749992 116.4454990  36.7059997
 114.7869992 117.9834990  36.8639997 114.9019992 117.4604990  37.8019997
 115.4869992 118.7324990  36.5239997 113.9029992 118.5564990  37.0989997
 113.9099992 117.6194990  34.6079997 113.2999992 118.4544990  34.9169997
 113.4489992 116.9144990  33.9319997 114.7729992 117.9574990  34.0529997
 117.8659992 113.7214990  38.4589997 116.1469992 112.2384990  37.2639997
 115.8399992 115.3604990  41.3989997 116.7419992 116.2224990  41.6969997
 116.6849992 117.4274990  41.4909997 117.9629992 115.5024990  42.3299997
 118.8399992 116.1264990  42.0519997 118.0219992 114.4444990  41.9979997
 117.8469992 115.4024990  43.8989997 118.5139992 114.6254990  44.3279997
 116.8039992 115.0794990  44.1079997 118.2159992 116.7004990  44.7149997
 117.8339992 117.5994990  44.1859997 119.3219992 116.7834990  44.7809997
 117.7409992 116.5804990  46.1139997 118.5169992 116.0594990  46.7149997
 116.8089992 115.9804990  46.1759997 117.4029992 117.9544990  46.7709997
 116.4939992 118.4134990  46.3269997 118.2409992 118.6714990  46.6429997
 117.0589992 117.8764990  48.2669997 116.1729992 117.2464990  48.4939997
 116.9419992 118.8954990  48.6949997 118.2819992 117.3314990  49.1439997
 119.2029992 117.9394990  49.0189997 118.5509992 116.3254990  48.7579997
 117.9299992 117.2364990  50.6259997 118.4719992 117.9144990  51.3019997
 117.2229992 116.2504990  51.2149997 117.2339992 116.2094990  52.3139997
 116.6299992 115.0114990  50.6049997 116.6949992 114.9404990  49.4979997
 115.5499992 115.1524990  50.8209997 117.1749992 113.6734990  51.2209997
 118.2749992 113.5544990  51.3269997 116.8399992 112.8164990  50.5989997
 116.6069992 113.3944990  52.6389997 115.5129992 113.3924990  52.4439997
 116.9209992 114.1844990  53.3539997 117.0599992 112.0084990  53.1909997
 118.0459992 111.6824990  52.7969997 116.4039992 111.2794990  52.6699997
 117.0979992 111.8354990  54.7229997 117.7679992 112.5724990  55.2129997
 117.4469992 110.7884990  54.8459997 115.6639992 111.9004990  55.3149997
 115.0069992 111.2414990  54.7079997 115.3749992 112.9644990  55.1799997
 115.4819992 111.5464990  56.7969997 115.8419992 110.5014990  56.9019997
 114.4039992 111.5654990  57.0649997 116.2269992 112.4194990  57.7189997
 117.2869992 112.4674990  57.3899997 116.1709992 112.1264990  58.7899997
 115.8929992 113.4784990  57.7269997 105.0109992  11.7854990  56.1659997
 105.7019992  11.1804990  56.7919997 104.3939992  12.4714990  56.7859997
 105.6019992  12.4184990  55.4699997 104.1459992  10.7974990  55.3379997
 104.7839992   9.9984990  54.9049997 103.4989992  10.2584990  56.0629997
 103.3519992  11.4374990  54.1789997 102.7089992  12.2914990  54.4799997
 104.1359992  11.7824990  53.4709997 102.4129992  10.4944990  53.5039997
 101.8929992  11.1094990  52.7379997 102.9629992   9.6404990  53.0549997
 101.3019992   9.7964990  54.3489997 101.8449992   9.4164990  55.2409997
 100.5449992  10.5374990  54.6839997 100.7279992   8.5984990  53.6129997
 101.3959992   7.7164990  53.7189997  99.7469992   8.3134990  54.0489997
 100.5449992   8.7644990  52.0319997  99.9239992   9.6854990  52.0109997
 101.4499992   8.9154990  51.4049997  99.7329992   7.5934990  51.3499997
 100.3569992   6.6764990  51.4149997  98.7809992   7.4964990  51.9149997
  99.3319992   7.8394990  49.9309997  98.8089992   6.8824990  49.7189997
  98.5559992   8.6354990  49.9449997 100.4009992   8.1314990  48.8959997
 100.8889992   9.1124990  49.0799997 101.2389992   7.4044990  48.8389997
  99.7139992   8.0974990  47.5329997 100.4579992   8.0634990  46.7079997
  99.1029992   7.1784990  47.4099997  98.8259992   9.3474990  47.2669997
  98.2129992   9.5784990  48.1649997  99.4929992  10.2344990  47.2309997
  98.0169992   9.3504990  46.0499997  97.2809992   8.5224990  45.9599997
  97.3249992  10.2124990  45.9469997  98.6849992   9.4404990  44.7019997
  99.4649992   8.6554990  44.6059997  97.8939992   9.4884990  43.9239997
  99.5649992  10.7404990  44.5389997  99.0089992  11.6944990  44.6589997
 100.3369992  10.7054990  45.3369997 100.2469992  10.6774990  43.1629997
  99.9559992   9.9274990  42.2729997 101.2649992  11.5884990  43.1389997
 102.0429992  11.6214990  41.9399997 101.4629992  11.6694990  40.9939997
 102.5369992  12.6154990  41.9779997 103.3219992  10.6634990  41.9539997
 104.2219992  11.1604990  42.3749997 103.5369992  10.4004990  40.4019997
 103.8359992  11.3454990  39.9019997 104.3279992   9.6234990  40.3249997
 102.3679992   9.9164990  39.7159997 102.1699992  10.0144990  38.0849997
 102.7299992  11.4814990  37.8569997 101.9039992  12.6444990  38.0419997
 101.4459992  12.5884990  39.0529997 102.6009992  13.5074990  37.9809997
 100.7759992  12.7484990  36.9699997 100.1469992  11.8724990  36.9079997
 100.2049992  13.6364990  37.1989997 101.2399992  13.0074990  35.4979997
 101.9489992  11.8204990  34.9819997 102.0339992  11.9024990  33.9079997
 102.9619992  11.7494990  35.3509997 101.3419992  10.9354990  35.0949997
 100.0019992  13.1624990  34.6699997 100.3349992  13.2764990  33.6489997
  99.4359992  12.2444990  34.7229997  99.4639992  14.0024990  35.0839997
 102.0549992  14.2684990  35.4819997 101.3709992  15.0464990  35.7909997
 102.3849992  14.3464990  34.4559997 102.9189992  14.1334990  36.1149997
 103.0609992   8.9934990  37.5049997 100.7659992   9.9684990  37.6659997
 103.1209992   9.4834990  42.7149997 103.1559992   9.5114990  44.0279997
 103.0679992  10.5394990  44.7479997 103.4169992   8.1644990  44.6759997
 103.7939992   7.4724990  43.8929997 102.3779992   7.8544990  44.9189997
 104.5559992   8.1954990  45.8119997 105.4289992   8.7734990  45.4409997
 104.8169992   7.1244990  45.9469997 103.9529992   8.6534990  47.1699997
 103.0579992   8.0254990  47.3659997 103.6099992   9.7024990  47.0389997
 104.9529992   8.7264990  48.3069997 105.8649992   9.2354990  47.9299997
 105.1449992   7.6724990  48.5989997 104.5979992   9.6104990  49.4989997
 105.3489992   9.2554990  50.2369997 103.6029992   9.3484990  49.9179997
 104.7359992  11.1294990  49.3619997 103.9419992  11.4134990  48.6399997
 105.7289992  11.3704990  48.9259997 104.6889992  12.0094990  50.6049997
 105.4099992  11.5934990  51.3409997 103.6979992  11.8474990  51.0809997
 105.0029992  13.4834990  50.4179997 105.6689992  13.6094990  49.5519997
 104.4549992  14.5204990  51.0319997 104.7739992  15.5454990  50.7929997
 103.3859992  14.4434990  52.0399997 103.9069992  13.9184990  52.8689997
 102.5869992  13.7684990  51.6629997 102.7929992  15.8244990  52.5899997
 102.8419992  16.5944990  51.7909997 103.4379992  16.2484990  53.3899997
 101.3789992  15.6574990  53.0809997 100.8139992  14.8614990  52.5509997
 100.8649992  16.6384990  52.9899997 101.3429992  15.3844990  54.6389997
 101.5199992  16.3984990  55.0579997 102.1359992  14.7384990  55.0719997
  99.9079992  14.9084990  55.0319997  99.5839992  14.2114990  54.2299997
  99.1799992  15.7404990  54.9169997  99.8849992  14.2934990  56.4529997
 100.1599992  13.2184990  56.4129997  98.8329992  14.2744990  56.8069997
 100.7789992  15.0454990  57.4449997 101.8629992  14.9224990  57.2389997
 100.6339992  14.4954990  58.3989997 100.4679992  16.4944990  57.8409997
 100.5239992  17.1254990  56.9279997 101.1049992  16.8474990  58.6809997
  99.4439992  16.5274990  58.2699997 115.1289992  17.8034990  53.3679997
 115.5749992  17.9754990  54.3709997 114.0539992  17.5324990  53.4389997
 115.1139992  18.8234990  52.9259997 116.0869992  16.8354990  52.5879997
 116.3849992  15.9814990  53.2339997 115.5209992  16.5804990  51.6659997
 117.4019992  17.4394990  52.1569997 117.2699992  18.2474990  51.4059997
 117.8879992  17.7574990  53.1039997 118.4749992  16.4594990  51.6279997
 119.4359992  17.0114990  51.5619997 118.6039992  15.7514990  52.4749997
 118.0549992  15.7344990  50.3839997 118.6119992  14.7774990  50.4779997
 116.9769992  15.4674990  50.3989997 118.3089992  16.3074990  49.0539997
 118.1349992  15.6304990  48.1909997 117.5579992  17.1194990  48.9439997
 119.6869992  16.9464990  48.7159997 119.8019992  17.8364990  49.3699997
 120.5559992  16.2574990  48.7839997 119.5269992  17.6164990  47.2759997
 119.4779992  16.8024990  46.5219997 118.5969992  18.2244990  47.2609997
 120.6989992  18.5344990  46.9309997 120.6369992  19.3234990  47.7109997
 121.5989992  17.8864990  46.9959997 120.5879992  19.3494990  45.7149997
 119.6049992  19.8554990  45.8219997 121.4779992  20.0114990  45.7789997
 120.4959992  18.6074990  44.3629997 121.2799992  17.8244990  44.4469997
 119.5639992  18.0334990  44.1779997 120.9999992  19.4644990  43.2229997
 120.4029992  20.3994990  43.2859997 122.0279992  19.8054990  43.4709997
 121.0109992  18.9904990  41.8389997 120.1699992  18.3224990  41.5529997
 120.9889992  19.8524990  41.1389997 122.3819992  18.1234990  41.7259997
 123.2629992  18.5964990  42.2089997 122.1139992  17.2734990  42.3899997
 122.6869992  17.6044990  40.2839997 122.5039992  18.4074990  39.5379997
 123.7459992  17.2714990  40.3269997 121.9009992  16.3064990  39.8999997
 121.5549992  15.4764990  40.6749997 121.5689992  16.3834990  38.6149997
 120.7109992  15.3064990  38.2219997 120.7399992  15.1534990  37.1219997
 121.0239992  14.3544990  38.7029997 119.1839992  15.6794990  38.4519997
 118.5219992  14.8954990  38.0259997 118.9069992  16.8024990  37.3999997
 119.4159992  16.5604990  36.4419997 117.8189992  16.6454990  37.2339997
 119.1759992  18.0944990  37.9609997 119.9919992  19.1544990  37.1059997
 118.9069992  20.2564990  36.8759997 118.0869992  20.7844990  37.9229997
 118.4239992  20.4444990  38.9249997 118.2389992  21.8844990  37.9689997
 116.5809992  20.4554990  37.8199997 116.4439992  19.3844990  37.8269997
 116.1669992  20.8794990  38.7219997 115.8459992  20.9004990  36.5869997
 116.0139992  19.9024990  35.4509997 115.6419992  18.9444990  35.7819997
 115.4589992  20.2194990  34.5799997 116.9939992  19.7954990  35.0109997
 114.3299992  20.9304990  36.9109997 114.1449992  21.8684990  37.4149997
 113.7969992  21.0474990  35.9789997 113.9529992  20.1264990  37.5259997
 116.3879992  22.2474990  36.0669997 116.5949992  22.8454990  36.9419997
 115.6299992  22.6244990  35.3969997 117.3309992  21.9374990  35.6409997
 121.1129992  19.7954990  37.9069997 120.4479992  18.6224990  35.8629997
 118.8839992  16.0674990  39.8719997 117.6589992  16.2604990  40.2129997
 116.6639992  16.0584990  39.5229997 117.6559992  16.8274990  41.6329997
 118.2649992  17.7454990  41.4899997 118.1519992  16.1464990  42.3569997
 116.2219992  17.1444990  42.1519997 116.2199992  17.3454990  43.2449997
 115.5099992  16.2914990  42.1129997 115.5289992  18.3624990  41.4399997
 114.6159992  18.4864990  42.0609997 115.2389992  18.0974990  40.4009997
 116.2329992  19.6964990  41.7019997 116.9689992  19.8114990  40.8779997
 116.7419992  19.7184990  42.6899997 115.3789992  20.9154990  41.3979997
 114.5299992  21.1284990  42.0829997 114.8939992  20.6494990  40.4349997
 116.3089992  22.1184990  41.3619997 115.6229992  22.9554990  41.1109997
 116.9809992  21.7994990  40.5369997 117.1279992  22.4634990  42.5949997
 117.8039992  23.3044990  42.3289997 117.8479992  21.6534990  42.8389997
 116.2649992  22.9724990  43.7609997 115.9179992  23.9914990  43.5379997
 116.2009992  22.3394990  44.9639997 115.4439992  22.8094990  45.6079997
 116.8709992  21.1064990  45.5129997 117.9069992  21.2204990  45.1269997
 116.4189992  20.1754990  45.1099997 116.9849992  20.9204990  47.0769997
 117.4299992  19.9314990  47.3159997 116.0159992  20.9984990  47.6149997
 117.9309992  21.9554990  47.6869997 117.5079992  22.9814990  47.7439997
 118.7789992  21.9344990  46.9699997 118.3959992  21.6904990  49.0929997
 119.1509992  22.4134990  49.4699997 118.9579992  20.7324990  49.1139997
 117.3349992  21.8264990  50.2079997 116.5399992  21.0754990  50.0119997
 116.8719992  22.8364990  50.1979997 117.8719992  21.7334990  51.6219997
 118.6519992  22.5124990  51.7599997 118.5249992  20.8344990  51.6029997
 116.8559992  21.8014990  52.7089997 116.2559992  20.8664990  52.7279997
 116.1499992  22.6304990  52.4899997 117.3319992  21.9334990  54.1289997
 117.6919992  22.9624990  54.3409997 118.1299992  21.1934990  54.3499997
 116.4389992  21.8614990  54.7849997 122.3099992 113.1624990  56.7909997
 122.5079992 113.4204990  55.7279997 122.6799992 113.9634990  57.4659997
 121.2359992 112.9344990  56.9569997 123.1029992 111.9314990  57.1529997
 124.1459992 112.0334990  56.7849997 123.0659992 111.5984990  58.2119997
 122.5229992 110.6424990  56.5509997 122.9129992 109.6964990  56.9829997
 121.4719992 110.5934990  56.9089997 122.5779992 110.5354990  55.0359997
 122.7389992 111.5414990  54.5929997 123.5029992 109.9774990  54.7749997
 121.3099992 109.9254990  54.5809997 121.1309992 108.9944990  55.1609997
 120.4179992 110.5484990  54.8049997 121.2629992 109.5064990  53.0999997
 121.1759992 110.3984990  52.4449997 122.1539992 108.9104990  52.8069997
 120.2229992 108.3934990  52.8389997 120.2889992 107.4674990  53.4489997
 119.1819992 108.7774990  52.8859997 120.3099992 108.0244990  51.2909997
 119.3089992 107.6864990  50.9479997 120.5529992 108.9274990  50.6899997
 121.2069992 106.8714990  50.9109997 122.1599992 107.0394990  51.4569997
 120.5839992 106.0314990  51.2859997 121.5339992 106.7974990  49.4369997
 121.6029992 105.7554990  49.0559997 120.7359992 107.3044990  48.8529997
 122.9339992 107.3614990  49.1279997 123.0339992 108.4344990  49.3969997
 123.7109992 106.8274990  49.7169997 123.3659992 107.0914990  47.7289997
 123.3799992 105.9904990  47.5809997 122.5899992 107.3164990  46.9649997
 124.7659992 107.6334990  47.3819997 124.8799992 108.7344990  47.4739997
 125.4539992 107.1414990  48.1019997 125.3949992 107.2254990  45.9549997
 126.3779992 107.7264990  46.0829997 125.6099992 106.1374990  46.0229997
 124.6189992 107.6314990  44.8329997 123.9279992 106.8264990  44.5039997
 124.0969992 108.5844990  45.0669997 125.6539992 107.8114990  43.5899997
 126.8619992 107.9704990  43.7489997 124.9309992 107.9274990  42.5079997
 125.5149992 108.5234990  41.4229997 125.7799992 109.5434990  41.7749997
 126.5209992 108.1274990  41.1659997 124.5559992 108.6004990  40.2609997
 124.3699992 107.5424990  39.9749997 125.1559992 109.3624990  39.1089997
 126.1609992 108.9364990  38.9039997 124.5689992 109.0954990  38.2039997
 124.9179992 110.8164990  39.1549997 125.2119992 111.7084990  37.9019997
 123.8619992 111.5344990  37.0639997 122.5749992 111.6634990  37.5419997
 122.6459992 111.8584990  38.6329997 122.0919992 112.5284990  37.0389997
 121.6659992 110.4054990  37.3219997 122.0489992 109.5644990  37.8809997
 120.6389992 110.6034990  37.5889997 121.4519992 109.9704990  35.8939997
 122.6709992 109.2944990  35.3849997 123.5489992 109.8874990  35.5939997
 122.8549992 108.3454990  35.8669997 122.6369992 108.9034990  34.3789997
 120.3349992 108.8954990  35.7779997 120.3769992 108.4874990  34.7789997
 120.5659992 108.1344990  36.5089997 119.3679992 109.3544990  35.9219997
 121.1729992 111.1434990  34.9789997 120.2829992 111.5434990  35.4419997
 121.1159992 110.7834990  33.9619997 122.0089992 111.8244990  35.0459997
 125.4429992 113.1284990  38.2949997 126.2799992 111.0154990  37.1569997
 123.3379992 109.2154990  40.8149997 122.1489992 108.8274990  40.4689997
 121.7639992 107.8974990  39.7639997 121.1789992 109.8244990  41.0519997
 120.2149992 109.6784990  40.5189997 121.5999992 110.8514990  41.0179997
 120.9679992 109.5584990  42.5849997 121.9209992 109.8274990  43.0899997
 120.6549992 108.5094990  42.7749997 119.8239992 110.4574990  43.1019997
 118.9959992 110.3864990  42.3649997 120.1629992 111.5084990  43.2249997
 119.3359992 109.8634990  44.5049997 118.9469992 108.8354990  44.3409997
 118.5549992 110.5244990  44.9369997 120.4289992 109.7564990  45.6089997
 121.3579992 109.3674990  45.1379997 119.9739992 109.0614990  46.3459997
 120.5519992 111.0884990  46.3209997 119.5349992 111.3284990  46.6989997
 120.7649992 111.9184990  45.6139997 121.5189992 110.9944990  47.4949997
 122.4819992 110.7324990  47.0049997 121.2709992 110.1774990  48.2069997
 121.5459992 112.3284990  48.2219997 120.9699992 113.0954990  47.6829997
 122.1629992 112.6734990  49.4129997 121.9049992 113.6704990  49.7989997
 123.0049992 111.8424990  50.3219997 123.1339992 110.7754990  50.0409997
 122.5889992 111.6994990  51.3419997 124.3509992 112.5754990  50.6269997
 124.3179992 113.5404990  51.1769997 124.8949992 112.7794990  49.6799997
 125.2859992 111.7664990  51.5539997 124.7339992 111.5734990  52.4989997
 126.0629992 112.4854990  51.8919997 125.9129992 110.4474990  50.9679997
 126.7899992 110.6624990  50.3219997 125.1719992 109.9814990  50.2839997
 126.1109992 109.3814990  52.0969997 126.3559992 108.4104990  51.6159997
 125.1639992 109.3094990  52.6739997 127.2159992 109.8334990  53.1149997
 127.0989992 110.9384990  53.1279997 128.1909992 109.6914990  52.6019997
 127.4229992 109.1784990  54.4009997 128.4669992 109.2924990  54.7649997
 127.1799992 108.0994990  54.2879997 126.5499992 109.7054990  55.5509997
 126.6089992 110.7974990  55.7449997 126.7659992 109.1364990  56.4809997
 125.4899992 109.4104990  55.3949997  23.1189992 111.3144990  55.5329997
  22.4279992 112.0274990  56.0309997  24.0669992 111.1044990  56.0729997
  22.6799992 110.2964990  55.6049997  23.3449992 111.7464990  54.0629997
  24.0789992 111.1344990  53.4959997  22.4379992 111.6554990  53.4289997
  23.8479992 113.2084990  53.8819997  23.3999992 113.8664990  54.6559997
  24.9139992 113.2334990  54.1909997  23.8049992 113.7384990  52.4669997
  22.8099992 113.5514990  52.0089997  24.0769992 114.8144990  52.5189997
  24.9499992 113.0824990  51.5669997  25.8819992 113.2224990  52.1549997
  24.8269992 111.9934990  51.3819997  25.2109992 113.7424990  50.1859997
  25.6239992 114.7714990  50.2459997  26.0899992 113.1844990  49.7969997
  24.0659992 113.8514990  49.1479997  23.1549992 114.4464990  49.3739997
  24.4999992 114.2854990  48.2209997  23.4379992 112.5044990  48.7789997
  24.2609992 111.8994990  48.3429997  23.1349992 112.0244990  49.7339997
  22.1239992 112.6624990  47.9489997  21.8079992 111.6184990  47.7359997
  21.3219992 113.1084990  48.5759997  22.2799992 113.3474990  46.6229997
  21.2499992 113.6414990  46.3279997  22.8969992 114.2684990  46.5529997
  22.8129992 112.3484990  45.5939997  23.8999992 112.2874990  45.8149997
  22.3729992 111.3404990  45.7489997  22.6149992 112.7514990  44.1039997
  21.5259992 112.9044990  43.9509997  23.1519992 113.7084990  43.9249997
  23.3409992 111.7954990  42.9709997  22.9709992 110.7484990  43.0019997
  23.2119992 112.2584990  41.9689997  24.9029992 111.6934990  43.1169997
  25.3009992 112.7244990  43.2329997  25.1669992 111.1414990  44.0429997
  25.7709992 111.1074990  42.0149997  25.5499992 111.8154990  41.1879997
  26.8649992 111.1674990  42.1949997  25.2019992 109.7154990  41.8149997
  24.9779992 108.9134990  42.6829997  24.8339992 109.7344990  40.5849997
  24.1369992 108.6934990  39.9259997  24.8229992 108.5024990  39.0739997
  23.8359992 107.9064990  40.6499997  22.7639992 109.2904990  39.4169997
  22.2719992 108.4974990  38.8139997  23.0309992 110.5144990  38.4569997
  23.9409992 110.2694990  37.8689997  22.1899992 110.6714990  37.7479997
  23.4369992 111.6634990  39.2119997  22.9429992 113.0914990  38.6959997
  22.7289992 112.9384990  37.1259997  21.4239992 113.1194990  36.5809997
  21.3849992 112.6754990  35.5639997  20.6079992 112.6044990  37.1319997
  21.1409992 114.6374990  36.2829997  20.1319992 114.6984990  35.9029997
  21.0309992 115.2844990  37.1409997  22.0789992 115.3464990  35.2779997
  23.3839992 115.6444990  35.9619997  23.2099992 116.2724990  36.8229997
  23.8029992 114.7554990  36.4099997  24.1369992 115.9904990  35.2689997
  22.1339992 114.5994990  34.0459997  22.5939992 113.6294990  34.1579997
  21.1379992 114.2874990  33.7659997  22.5329992 115.1964990  33.2399997
  21.3869992 116.7474990  35.0449997  22.0889992 117.4154990  34.5669997
  21.1279992 117.1524990  36.0119997  20.5349992 116.5894990  34.4009997
  21.6659992 113.4124990  39.3419997  24.0379992 114.0734990  38.9009997
  21.9829992 109.5544990  40.6149997  20.6549992 109.9984990  40.3649997
  20.1329992 109.9194990  39.2399997  19.9619992 110.5194990  41.6489997
  20.3779992 111.4394990  42.1119997  19.9269992 109.7164990  42.4159997
  18.5339992 110.8274990  41.1579997  18.1819992 109.9144990  40.6319997
  18.5639992 111.6044990  40.3649997  17.6749992 111.1574990  42.3799997
  17.9469992 110.5054990  43.2379997  16.7289992 110.7914990  41.9259997
  17.7579992 112.6294990  42.8249997  17.7989992 113.2634990  41.9139997
  18.6979992 112.8484990  43.3759997  16.7639992 113.0554990  43.8929997
  15.7279992 112.7084990  43.6929997  16.8169992 114.1504990  44.0749997
  16.9009992 112.4914990  45.3559997  17.0329992 111.4004990  45.1949997
  15.9949992 112.7364990  45.9519997  18.2379992 112.8494990  45.9939997
  19.0289992 112.7174990  45.2239997  18.3439992 112.2514990  46.9239997
  18.4009992 114.2964990  46.2259997  18.5039992 114.8064990  45.2569997
  18.4859992 114.8854990  47.4429997  18.6949992 115.9614990  47.5419997
  18.4239992 114.2014990  48.7789997  19.1279992 113.3414990  48.7619997
  17.4099992 113.7644990  48.9009997  18.7299992 115.1304990  49.8899997
  18.1719992 116.0904990  49.8419997  19.8139992 115.1154990  50.1329997
  18.2389992 114.7064990  51.3249997  17.1789992 114.3734990  51.3329997
  18.2869992 115.5374990  52.0619997  19.1859992 113.6594990  51.9969997
  20.1559992 114.2004990  52.0389997  19.3199992 112.7654990  51.3529997
  18.9059992 113.3154990  53.4109997  18.6449992 112.2364990  53.4649997
  17.9529992 113.8294990  53.6599997  20.0989992 113.6114990  54.3599997
  20.4499992 114.6334990  54.1009997  20.9429992 112.9084990  54.1949997
  19.8859992 113.4734990  55.9119997  20.8869992 113.7884990  56.2749997
  19.8319992 112.3704990  56.0389997  18.7389992 114.1414990  56.6849997
  17.7639992 113.7704990  56.3029997  18.6359992 115.2374990  56.5359997
  18.7559992 114.0654990  57.7929997 112.8779992  12.0334990  57.6789997
 112.1459992  12.5784990  58.3129997 113.7869992  12.0244990  58.3169997
 112.4849992  11.0004990  57.5629997 113.0219992  12.7274990  56.3139997
 113.3519992  13.7594990  56.5579997 113.7279992  12.2784990  55.5839997
 111.6399992  12.7234990  55.4559997 111.2699992  11.6774990  55.5159997
 110.9189992  13.2944990  56.0789997 111.8189992  13.1474990  53.9769997
 110.8549992  13.2254990  53.4309997 112.2619992  14.1664990  53.9819997
 112.5419992  12.1044990  53.0929997 113.5299992  11.8534990  53.5339997
 111.9159992  11.1864990  53.0849997 112.8189992  12.6254990  51.6429997
 113.4859992  11.8584990  51.1959997 111.8389992  12.6534990  51.1199997
 113.4589992  13.9854990  51.5969997 112.7919992  14.7874990  51.9799997
 114.4169992  13.9464990  52.1579997 113.6959992  14.3514990  50.1329997
 114.4539992  15.1624990  50.0709997 114.1849992  13.4744990  49.6579997
 112.3729992  14.6384990  49.3519997 111.6849992  13.7664990  49.3509997
 111.9239992  15.5514990  49.7979997 112.6189992  15.0624990  47.8769997
 113.1819992  16.0144990  47.9829997 113.3299992  14.2694990  47.5599997
 111.3979992  15.3194990  46.9829997 111.1579992  14.4814990  46.2929997
 110.5589992  15.4494990  47.6999997 111.6289992  16.4704990  45.9809997
 111.8789992  17.4354990  46.4709997 112.4939992  16.2654990  45.3149997
 110.3509992  16.6574990  45.0789997 110.0809992  15.6684990  44.6519997
 109.4499992  16.9374990  45.6649997 110.5169992  17.6454990  43.9529997
 109.5579992  18.1914990  43.8279997 111.3879992  18.3184990  44.1049997
 110.7109992  17.0214990  42.5219997 109.9069992  16.3304990  42.1909997
 110.6849992  17.9064990  41.8509997 112.0409992  16.3584990  42.2559997
 113.0259992  17.0264990  42.0089997 111.8939992  14.9844990  42.1909997
 112.7269992  14.1454990  41.3509997 113.5449992  14.6884990  40.8299997
 113.3689992  13.3124990  41.7089997 111.8129992  13.3384990  40.3819997
 112.3799992  12.5814990  39.7989997 111.1279992  14.2854990  39.3319997
 111.9719992  14.8654990  38.8989997 110.6219992  13.6654990  38.5609997
 110.1119992  15.1094990  39.9419997 109.4739992  16.2614990  39.0469997
 108.8479992  15.4824990  37.8579997 108.3569992  16.1774990  36.7079997
 107.6199992  15.6204990  36.0909997 107.7679992  17.0624990  37.0299997
 109.4659992  16.6314990  35.7739997 109.0199992  17.3394990  35.0909997
 110.1679992  17.2334990  36.3309997 110.1449992  15.5924990  34.9009997
 111.3339992  15.1074990  35.6599997 111.0439992  14.5474990  36.5369997
 111.9839992  14.4834990  35.0639997 111.8429992  16.0184990  35.9369997
 109.2059992  14.4564990  34.5709997 108.6049992  14.1204990  35.4029997
 108.5619992  14.8954990  33.8239997 109.7579992  13.6114990  34.1869997
 110.6699992  16.2704990  33.5339997 111.0919992  17.2394990  33.7559997
 109.7839992  16.3294990  32.9189997 111.4489992  15.6364990  33.1369997
 108.4969992  17.0194990  39.8669997 110.6559992  16.9864990  38.6099997
 110.8649992  12.6804990  41.1669997 109.7919992  11.9734990  40.6089997
 109.6519992  11.6014990  39.4589997 108.8339992  11.6034990  41.7389997
 108.8929992  12.3744990  42.5369997 109.1209992  10.6524990  42.2359997
 107.4409992  11.4784990  41.0819997 106.7069992  11.0984990  41.8249997
 107.3119992  10.6764990  40.3239997 106.8539992  12.8864990  40.5799997
 105.8469992  12.6954990  40.1509997 107.4819992  13.2034990  39.7199997
 106.6679992  13.9724990  41.6459997 107.6429992  14.4024990  41.9599997
 106.3189992  13.4374990  42.5559997 105.6539992  15.1204990  41.3399997
 104.8439992  14.6444990  40.7479997 106.1369992  15.8284990  40.6339997
 105.2049992  15.9394990  42.5809997 104.5659992  15.3484990  43.2709997
 104.5689992  16.6964990  42.0739997 106.3609992  16.5284990  43.2959997
 107.1389992  16.8364990  42.5649997 106.7439992  15.7564990  43.9979997
 105.9229992  17.7204990  44.1789997 105.7189992  18.6454990  43.6199997
 105.5259992  17.7254990  45.4519997 105.0879992  18.7154990  45.6439997
 105.3929992  16.5554990  46.4079997 105.4209992  15.5514990  45.9339997
 104.3639992  16.5634990  46.8269997 106.4039992  16.4904990  47.5669997
 107.4569992  16.3754990  47.2309997 106.0159992  15.6364990  48.1619997
 106.3429992  17.8144990  48.4309997 105.2409992  17.9604990  48.4379997
 106.8439992  18.6134990  47.8439997 106.9049992  17.8004990  49.8769997
 106.6299992  18.8174990  50.2309997 108.0079992  17.6834990  49.8099997
 106.4689992  16.6184990  50.7549997 106.8029992  15.7414990  50.1609997
 105.3579992  16.6324990  50.7579997 106.9789992  16.6224990  52.2339997
 108.0889992  16.5964990  52.2769997 106.5089992  15.7124990  52.6629997
 106.4589992  17.8994990  52.9599997 105.3499992  17.9184990  53.0269997
 106.7559992  18.6854990  52.2329997 106.9619992  18.2404990  54.3789997
 106.5059992  17.5454990  55.1159997 106.8169992  19.3184990  54.6049997
 108.0569992  18.0624990  54.4529997  66.8709992 136.2794990  54.2809997
  67.2319992 135.5104990  54.9969997  66.3079992 135.7444990  53.4859997
  66.1619992 136.8644990  54.9049997  67.9509992 137.0464990  53.6899997
  67.6889992 137.6444990  52.7909997  68.3289992 137.8074990  54.4059997
  69.0779992 136.0834990  53.4039997  69.5339992 135.7834990  54.3709997
  68.7499992 135.1304990  52.9349997  70.2049992 136.6024990  52.5199997
  70.5159992 137.5154990  53.0709997  71.0189992 135.8474990  52.4729997
  69.9019992 136.9394990  51.0739997  69.2429992 136.1894990  50.5879997
  69.5439992 137.9844990  50.9509997  71.1249992 136.8874990  50.1189997
  71.9239992 137.5124990  50.5709997  71.5229992 135.8524990  50.0549997
  70.7069992 137.3594990  48.7389997  69.9519992 136.6454990  48.3459997
  70.3639992 138.4144990  48.6709997  71.8109992 137.2824990  47.6619997
  72.7209992 137.8014990  48.0299997  72.0029992 136.2294990  47.3649997
  71.5029992 137.9104990  46.2449997  70.5409992 137.6964990  45.7319997
  71.5269992 139.0064990  46.4309997  72.7189992 137.6794990  45.2329997
  72.7489992 138.4984990  44.4829997  73.5539992 137.6364990  45.9639997
  72.5389992 136.3544990  44.4549997  72.9049992 135.6204990  45.2039997
  71.5609992 136.0424990  44.0309997  73.4769992 136.1714990  43.2869997
  73.3629992 137.0894990  42.6719997  74.5269992 136.1474990  43.6509997
  73.2099992 134.9524990  42.4249997  72.2549992 135.0754990  41.8709997
  74.0359992 134.8864990  41.6849997  73.1379992 133.5784990  43.0739997
  74.1689992 133.4414990  43.4629997  72.3729992 133.4434990  43.8679997
  72.7859992 132.5694990  41.9279997  73.0189992 132.9244990  40.9009997
  73.4729992 131.7394990  42.1979997  71.3279992 132.1024990  42.0619997
  70.8739992 131.5824990  43.0719997  70.6909992 132.1154990  40.8619997
  69.2169992 131.8064990  40.8969997  68.9209992 131.1614990  40.0419997
  68.8979992 131.2844990  41.8239997  68.4659992 133.1844990  40.8309997
  67.3799992 132.9854990  40.7049997  68.7019992 134.0754990  39.5309997
  68.8019992 133.3514990  38.6939997  67.9119992 134.8454990  39.3949997
  69.9609992 134.7464990  39.7419997  70.9459992 135.2214990  38.7099997
  70.0379992 136.3874990  38.0779997  70.5289992 137.0004990  36.8869997
  70.1899992 138.0474990  36.7289997  71.6259992 137.1724990  36.9449997
  70.2309992 136.1474990  35.5579997  70.4239992 136.8854990  34.7939997
  70.9119992 135.3094990  35.5459997  68.8139992 135.7114990  35.2429997
  68.3269992 134.4734990  35.8929997  68.9979992 133.6924990  35.5689997
  68.2669992 134.5664990  36.9679997  67.3719992 134.2274990  35.4539997
  67.8289992 136.8784990  35.5869997  67.9969992 137.2134990  36.5999997
  68.0629992 137.6744990  34.8949997  66.8369992 136.5034990  35.3819997
  68.9659992 135.4704990  33.7259997  69.7809992 134.7774990  33.5729997
  69.1239992 136.4114990  33.2209997  68.0329992 135.0444990  33.3879997
  72.0629992 135.8494990  39.3319997  71.2179992 134.1794990  37.7149997
  68.8539992 133.8424990  42.1039997  68.4939992 135.0954990  42.4019997
  67.9669992 135.9404990  41.7459997  68.8419992 135.2024990  43.9559997
  68.8979992 136.2624990  44.2819997  69.8749992 134.8004990  44.0309997
  67.8919992 134.3474990  44.8299997  67.1119992 133.8754990  44.1949997
  67.4969992 135.2364990  45.3659997  68.6259992 133.2524990  45.6179997
  69.3519992 132.7454990  44.9459997  67.9139992 132.4664990  45.9479997
  69.2209992 133.7994990  46.8659997  68.3199992 134.0854990  47.4499997
  69.8479992 134.6714990  46.5799997  70.0089992 132.8144990  47.6569997
  69.2799992 132.0394990  47.9769997  70.2229992 133.3474990  48.6079997
  71.1169992 132.1044990  46.8729997  71.8029992 132.8594990  46.4329997
  70.6269992 131.5384990  46.0509997  71.9579992 131.1644990  47.7709997
  72.7419992 130.5764990  47.2489997  71.2699992 130.4614990  48.2879997
  72.5049992 132.0874990  48.8349997  73.0449992 132.9234990  48.3659997
  72.2999992 132.0114990  50.1669997  72.7949992 132.8034990  50.7489997
  71.5359992 130.9204990  50.9339997  72.2009992 130.1184990  51.3209997
  70.8639992 130.3174990  50.2869997  70.5969992 131.5464990  52.0109997
  69.8619992 130.7544990  52.2719997  69.8999992 132.2954990  51.5769997
  71.2589992 132.1364990  53.2619997  70.4799992 132.4064990  54.0069997
  71.7639992 133.1034990  53.0489997  72.2879992 131.2544990  53.9799997
  73.1989992 131.1334990  53.3559997  71.7749992 130.2684990  53.9909997
  72.6639992 131.5464990  55.4409997  71.8339992 131.4374990  56.1719997
  72.9829992 132.6084990  55.5039997  73.9219992 130.6974990  55.9509997
  74.7349992 130.7954990  55.1999997  73.7489992 129.6044990  55.8469997
  74.3129992 131.0264990  57.3299997  75.1929992 130.4454990  57.6799997
  73.4519992 130.6864990  57.9459997  74.5409992 132.4944990  57.6259997
  75.0969992 132.7174990  58.5619997  73.5949992 133.0764990  57.6179997
  75.2729992 132.8394990  56.8629997  38.6039992 127.1624990  55.3589997
  38.8629992 127.2204990  54.2799997  37.8189992 126.3814990  55.4499997
  39.5139992 127.0054990  55.9759997  38.0629992 128.5474990  55.7029997
  37.7499992 128.5294990  56.7689997  38.9979992 129.1314990  55.5619997
  36.9489992 129.1224990  54.8659997  37.2089992 128.5484990  53.9509997
  35.9339992 128.7584990  55.1349997  37.0529992 130.6124990  54.5539997
  36.1369992 130.7954990  53.9519997  36.9379992 131.1644990  55.5109997
  38.3639992 131.1444990  53.8569997  38.2259992 132.2464990  53.8279997
  39.3139992 130.9934990  54.4129997  38.5869992 130.6074990  52.4009997
  38.8879992 129.5504990  52.5639997  37.5319992 130.6234990  52.0529997
  39.6449992 131.4594990  51.7169997  39.4799992 132.5544990  51.8119997
  40.6619992 131.2224990  52.0969997  39.7089992 131.2544990  50.2229997
  38.8489992 131.8394990  49.8319997  40.6279992 131.7694990  49.8689997
  39.5959992 129.8204990  49.6779997  40.0879992 129.0754990  50.3389997
  38.5169992 129.5584990  49.7039997  40.1769992 129.6004990  48.2609997
  39.4559992 129.9314990  47.4829997  41.1329992 130.1394990  48.0889997
  40.2829992 128.0664990  47.9019997  41.0299992 127.7214990  48.6489997
  39.3219992 127.5604990  48.1349997  40.6389992 127.6194990  46.4719997
  41.7389992 127.6164990  46.3189997  40.3319992 126.5524990  46.4249997
  39.9149992 128.3914990  45.3759997  39.8779992 127.7094990  44.4999997
  38.8539992 128.6134990  45.6179997  40.4659992 129.7894990  44.9719997
  40.0799992 130.0204990  43.9559997  39.9619992 130.6474990  45.4669997
  41.9329992 130.0494990  44.8659997  42.1559992 131.1204990  44.6739997
  42.4919992 129.7784990  45.7879997  42.5389992 129.1644990  43.7369997
  43.3869992 128.2894990  43.9449997  41.9549992 129.5284990  42.6079997
  42.2209992 128.7654990  41.4009997  42.2339992 129.4914990  40.5599997
  43.2579992 128.3664990  41.4119997  41.0509992 127.8314990  41.0069997
  41.3569992 127.3714990  40.0439997  39.7389992 128.6214990  40.7669997
  39.3239992 128.9394990  41.7479997  39.9409992 129.6144990  40.3119997
  38.7099992 127.9424990  40.0799997  38.9239992 127.8394990  38.4479997
  39.0319992 129.3924990  38.2009997  38.0809992 129.8814990  37.2729997
  37.0279992 129.5804990  37.4589997  38.1689992 130.9814990  37.4069997
  38.5119992 129.5894990  35.7569997  38.5559992 128.5264990  35.5709997
  37.8239992 130.0934990  35.0949997  39.9559992 130.0274990  35.3339997
  40.0839992 129.8794990  33.8479997  40.1749992 128.8554990  33.5199997
  39.1909992 130.1874990  33.3239997  40.9109992 130.4194990  33.4109997
  40.0789992 131.5504990  35.6309997  39.4459992 132.1004990  34.9499997
  39.7269992 131.7024990  36.6409997  41.0749992 131.9354990  35.4669997
  41.0519992 129.3424990  35.9859997  41.9699992 129.5794990  35.4679997
  40.8739992 128.2854990  36.1179997  41.1109992 129.7724990  36.9739997
  40.2099992 127.2284990  38.0689997  37.6779992 127.3164990  37.8449997
  40.8689992 126.7864990  41.9939997  41.3279992 125.5444990  41.7169997
  41.9409992 125.1454990  40.7739997  40.9539992 124.6534990  42.8899997
  40.0509992 124.0264990  42.7309997  40.7609992 125.3064990  43.7679997
  42.1979992 123.8724990  43.1509997  42.6449992 123.3754990  42.2639997
  41.9699992 123.0574990  43.8709997  43.2839992 124.6594990  43.9089997
  43.3039992 125.6824990  43.4769997  44.3399992 124.3764990  43.7099997
  43.1009992 124.6714990  45.4419997  43.1279992 123.6554990  45.8909997
  42.0729992 125.0664990  45.5889997  44.1239992 125.6064990  46.0999997
  43.8979992 126.6774990  45.9089997  45.0529992 125.4694990  45.5059997
  44.2239992 125.3124990  47.6569997  44.6419992 124.2944990  47.8109997
  43.2069992 125.4044990  48.0939997  45.0829992 126.3124990  48.3609997
  45.9259992 126.4844990  47.6569997  45.6249992 125.8774990  49.2269997
  44.5999992 127.6974990  48.7079997  44.6849992 128.4584990  47.9179997
  44.0429992 127.9634990  49.8809997  43.7119992 128.9844990  50.1229997
  43.8149992 126.9894990  51.0819997  44.2209992 127.3134990  52.0649997
  44.3469992 126.0224990  50.9509997  42.3289992 126.5444990  51.2999997
  42.3049992 125.4904990  51.6479997  41.7859992 126.4254990  50.3379997
  41.6769992 127.4754990  52.2689997  40.6439992 127.0664990  52.2849997
  41.6509992 128.4314990  51.7039997  42.2409992 127.5814990  53.6419997
  41.4679992 127.9784990  54.3339997  42.9149992 128.4484990  53.8079997
  42.8779992 126.2634990  54.1889997  43.6849992 125.8944990  53.5199997
  42.1869992 125.4044990  54.3319997  43.6179992 126.5734990  55.4919997
  43.5769992 125.6834990  56.1549997  43.1329992 127.4234990  56.0179997
  45.1739992 126.8444990  55.2149997  45.2839992 127.4504990  54.2899997
  45.6529992 125.9144990  54.8409997  46.0519992 127.2994990  56.3959997
  47.0669992 126.8604990  56.2859997  45.6959992 127.0164990  57.4099997
  46.0969992 128.4004990  56.2559997  84.8769992 134.2124990  54.9969997
  85.7019992 134.2074990  54.2529997  84.5949992 133.2094990  55.3829997
  85.2829992 134.7674990  55.8699997  83.8149992 135.0624990  54.3569997
  82.9169992 135.1464990  55.0049997  84.1899992 136.0924990  54.1749997
  83.3519992 134.3104990  53.0439997  82.9339992 133.3464990  53.4059997
  82.4879992 134.8534990  52.6039997  84.3589992 133.9144990  51.9739997
  85.0879992 133.1314990  52.2759997  83.7109992 133.5154990  51.1649997
  85.1949992 135.0754990  51.3459997  85.9859992 135.4414990  52.0359997
  85.7169992 134.5944990  50.4909997  84.4099992 136.3244990  50.8799997
  83.4029992 136.0144990  50.5279997  84.1459992 136.7604990  51.8669997
  85.3189992 137.2934990  50.0469997  84.5789992 138.1144990  49.9399997
  86.1619992 137.6744990  50.6619997  85.8099992 136.7474990  48.6629997
  86.0579992 137.6224990  48.0249997  86.7259992 136.1374990  48.8149997
  84.7929992 135.9504990  47.8879997  85.4319992 135.6364990  47.0359997
  84.6079992 135.0814990  48.5549997  83.4889992 136.5984990  47.6129997
  83.2629992 137.3704990  48.3799997  83.5579992 137.2954990  46.7499997
  82.2619992 135.6874990  47.3869997  82.0759992 135.0194990  48.2549997
  81.3579992 136.3314990  47.3419997  82.4809992 134.8114990  46.2419997
  83.3339992 134.1194990  46.4079997  81.6489992 134.0944990  46.0769997
  82.6919992 135.4044990  44.8599997  81.7669992 135.8714990  44.4589997
  83.4569992 136.1884990  45.0449997  83.2149992 134.4164990  43.7979997
  84.2399992 134.0384990  44.0019997  82.5029992 133.5634990  43.7699997
  83.2629992 135.0434990  42.3999997  83.4549992 134.3114990  41.5869997
  82.2559992 135.4704990  42.2079997  84.2249992 136.2074990  42.2939997
  84.9799992 136.5044990  43.2119997  84.2459992 136.7644990  41.0239997
  85.3339992 137.6214990  40.7219997  84.9219992 138.5064990  40.1919997
  85.7599992 137.9954990  41.6769997  86.5239992 136.9464990  40.0219997
  87.4309992 137.5744990  39.8949997  86.1219992 136.4514990  38.5759997
  85.8319992 137.3874990  38.0519997  86.9879992 135.9944990  38.0509997
  85.0579992 135.4814990  38.5009997  83.9479992 135.4424990  37.4369997
  84.6249992 134.3924990  36.4709997  84.4329992 132.9564990  36.5219997
  84.1349992 132.5534990  37.5129997  83.4719992 132.6674990  36.0449997
  85.6789992 132.0264990  36.2119997  85.6419992 131.0594990  36.6909997
  85.7439992 131.8354990  35.1509997  86.9799992 132.5504990  36.5899997
  87.1649992 132.8734990  38.0699997  88.1409992 133.2714990  38.3059997
  86.4379992 133.6174990  38.3589997  87.0529992 132.0234990  38.7269997
  87.9969992 131.4354990  36.2859997  87.8799992 130.6484990  37.0159997
  87.9139992 131.0844990  35.2679997  88.9879992 131.8594990  36.3519997
  87.4429992 133.6464990  35.6359997  88.4449992 133.9664990  35.8819997
  86.7599992 134.4794990  35.7169997  87.4779992 133.2204990  34.6449997
  82.7399992 134.8304990  38.0869997  83.7619992 136.7224990  36.6599997
  86.9919992 135.7934990  40.8099997  88.0579992 135.2114990  40.3859997
  88.7189992 135.5244990  39.4009997  88.4019992 134.0834990  41.3539997
  88.7349992 134.5684990  42.2969997  89.2669992 133.5854990  40.8649997
  87.2939992 133.1484990  41.8009997  86.9929992 132.4714990  40.9729997
  86.3879992 133.7714990  41.9609997  87.5999992 132.2564990  43.0069997
  88.6279992 131.8534990  42.8809997  86.8749992 131.4394990  42.8029997
  87.3369992 132.8974990  44.3379997  86.4199992 133.5154990  44.2319997
  88.2709992 133.4354990  44.6099997  87.0579992 131.9554990  45.5149997
  87.9219992 131.3224990  45.8089997  86.3349992 131.1824990  45.1789997
  86.4539992 132.6264990  46.7579997  85.4459992 133.0274990  46.5169997
  87.0089992 133.4944990  47.1739997  86.2069992 131.8304990  48.1019997
  85.3579992 131.1604990  47.8459997  85.7809992 132.4594990  48.9119997
  87.4849992 131.0524990  48.5339997  87.3709992 129.9644990  48.4149997
  88.5069992 131.6534990  49.1159997  89.3169992 130.9484990  49.3539997
  88.7289992 133.1164990  49.5499997  87.9139992 133.7644990  49.1629997
  89.6489992 133.4454990  49.0209997  88.9809992 133.4474990  51.0839997
  88.0259992 133.2064990  51.5979997  89.0729992 134.5404990  51.2609997
  90.1939992 132.7784990  51.7549997  91.1759992 133.1924990  51.4369997
  90.1979992 131.6794990  51.5969997  90.1729992 132.9694990  53.3649997
  90.3169992 134.0514990  53.5729997  91.0939992 132.4914990  53.7629997
  89.0439992 132.3084990  54.1989997  88.5849992 131.5234990  53.5599997
  88.2929992 133.1254990  54.2399997  89.5659992 131.6964990  55.4829997
  90.0479992 132.4844990  56.1009997  90.3109992 130.8954990  55.2879997
  88.5439992 131.1004990  56.4659997  87.9279992 130.2524990  56.0979997
  88.0249992 132.0314990  56.7779997  89.2099992 130.4704990  57.7009997
  90.1009992 131.0764990  57.9719997  89.6379992 129.4484990  57.6229997
  88.5329992 130.4444990  58.5819997   4.0049992  85.1264990  57.5659997
   3.0489992  84.6694990  57.2299997   3.8159992  85.8804990  58.3599997
   4.6959992  84.3414990  57.9409997   4.5229992  85.7534990  56.2839997
   4.6009992  84.9194990  55.5539997   3.7999992  86.5194990  55.9319997
   5.8609992  86.4914990  56.2879997   5.8829992  87.2364990  57.1119997
   6.6429992  85.7704990  56.6119997   6.2709992  87.1414990  55.0049997
   6.4209992  86.3664990  54.2229997   5.4789992  87.9024990  54.8369997
   7.5639992  88.0124990  55.1539997   7.4499992  88.7094990  56.0119997
   8.5079992  87.4474990  55.3089997   7.9149992  88.8364990  53.9329997
   7.0789992  89.5204990  53.6729997   8.7609992  89.4684990  54.2789997
   8.0989992  88.0844990  52.6659997   8.7839992  87.2404990  52.8959997
   7.1619992  87.6604990  52.2469997   8.7819992  88.9254990  51.5519997
   8.4589992  89.9724990  51.3689997   9.8249992  89.0714990  51.9069997
   8.8479992  88.1484990  50.2319997   9.7019992  88.4744990  49.5989997
   9.1109992  87.0784990  50.3729997   7.5039992  88.1584990  49.3999997
   6.9639992  87.2414990  49.7199997   6.8739992  89.0224990  49.6999997
   7.5719992  87.9494990  47.9219997   8.1639992  87.0094990  47.8919997
   6.6059992  87.7844990  47.3979997   8.2829992  88.9724990  46.9939997
   7.6379992  89.8714990  47.1009997   9.3249992  89.2214990  47.2919997
   8.3519992  88.7174990  45.4349997   8.8419992  89.5654990  44.9109997
   8.9569992  87.8194990  45.1869997   6.9289992  88.7154990  44.8269997
   6.3359992  88.0034990  45.4409997   6.4749992  89.7214990  44.9579997
   6.6999992  88.1964990  43.4479997   7.3579992  88.7764990  42.7659997
   7.0069992  87.1334990  43.3469997   5.2279992  88.3934990  43.0499997
   4.2659992  88.7024990  43.7239997   5.1339992  87.9524990  41.7859997
   3.8499992  88.1564990  41.1659997   3.3839992  87.1544990  41.0499997
   3.1879992  88.8714990  41.6999997   4.0299992  88.8044990  39.7729997
   3.1159992  89.0754990  39.2019997   4.7939992  87.7674990  38.9749997
   4.5539992  86.7454990  39.3379997   4.3839992  87.8254990  37.9439997
   6.1749992  87.9984990  38.8989997   6.9999992  87.0704990  37.9329997
   6.6539992  87.7934990  36.6049997   7.5899992  88.5634990  35.9079997
   8.6099992  88.1354990  36.0129997   7.2639992  88.4014990  34.8589997
   7.7059992  90.0224990  36.3259997   8.1159992  90.1144990  37.3209997
   8.5179992  90.4524990  35.7569997   6.4639992  90.8894990  36.2359997
   6.1549992  91.1584990  34.7999997   5.7969992  90.2614990  34.3159997
   5.4729992  91.9784990  34.6329997   7.1289992  91.4214990  34.4139997
   5.2089992  90.2544990  36.8019997   5.3059992  90.3504990  37.8729997
   4.3109992  90.7184990  36.4209997   5.1409992  89.1904990  36.6329997
   6.6799992  92.2734990  36.8469997   7.4759992  92.8224990  36.3669997
   6.9559992  92.1664990  37.8859997   5.7359992  92.7964990  36.8079997
   8.4859992  87.1864990  38.1709997   6.3529992  85.7744990  37.9449997
   4.7949992  90.0114990  39.9059997   4.1849992  91.0814990  40.6259997
   2.9869992  91.1214990  40.8559997   5.0929992  92.1994990  40.9829997
   5.2629992  92.8374990  40.0899997   6.1179992  91.9204990  41.3119997
   4.5069992  93.1134990  42.0409997   3.5399992  93.6114990  41.8149997
   5.2009992  93.9794990  41.9969997   4.6419992  92.6284990  43.5199997
   5.7309992  92.4674990  43.6749997   4.2639992  91.5844990  43.5659997
   4.0559992  93.6034990  44.5649997   2.9619992  93.4084990  44.5359997
   4.1499992  94.6634990  44.2469997   4.4069992  93.4314990  46.0799997
   4.4269992  92.3324990  46.2379997   3.6699992  93.8544990  46.7959997
   5.8559992  93.9564990  46.3119997   5.9669992  94.9674990  45.8649997
   6.4369992  93.3314990  45.6009997   6.4209992  94.0474990  47.7219997
   5.7459992  94.6844990  48.3329997   7.4069992  94.5464990  47.6089997
   6.6329992  92.6554990  48.2919997   7.5799992  92.1414990  48.0709997
   5.7569992  92.0724990  49.1319997   6.1389992  91.1354990  49.5629997
   4.4129992  92.5684990  49.6499997   3.5819992  92.3154990  48.9579997
   4.3609992  93.6714990  49.5319997   4.2019992  92.2104990  51.0479997
   4.7169992  91.2724990  51.3459997   3.0999992  92.0974990  51.1349997
   4.6739992  93.3644990  52.0379997   4.2639992  94.3444990  51.7119997
   5.7809992  93.3134990  51.9599997   4.1149992  93.1404990  53.4459997
   3.1279992  92.6294990  53.4249997   4.1959992  94.1374990  53.9289997
   5.0499992  92.2414990  54.3269997   5.6749992  92.9204990  54.9459997
   5.4609992  91.4064990  53.7199997   4.1869992  91.3504990  55.2599997
   4.8549992  90.7494990  55.9139997   3.6409992  90.6564990  54.5859997
   3.2709992  92.1224990  56.2109997   2.6659992  92.8524990  55.6319997
   3.9589992  92.7294990  56.8369997   2.4309992  91.1724990  56.9879997
   1.7719992  91.7444990  57.6739997   3.1059992  90.5024990  57.5619997
   1.7579992  90.5984990  56.3159997  95.7129992   4.6034990  58.2499997
  96.5259992   3.8834990  58.4839997  95.2209992   4.2674990  57.3119997
  94.9699992   4.4624990  59.0639997  96.3049992   6.0364990  58.1819997
  96.8529992   6.1584990  59.1409997  97.1089992   6.0154990  57.4149997
  95.3149992   7.2624990  57.9719997  94.7029992   7.1614990  58.8929997
  95.7559992   8.2774990  57.8729997  94.4829992   7.1044990  56.6989997
  93.9239992   6.1494990  56.7979997  93.6789992   7.8704990  56.6499997
  95.2959992   7.3494990  55.4079997  96.2599992   6.8004990  55.4739997
  94.6009992   6.9324990  54.6489997  95.5089992   8.8504990  55.0199997
  94.4759992   9.2584990  54.9779997  96.0859992   9.3354990  55.8369997
  96.2769992   8.9764990  53.6389997  95.5319992   8.8444990  52.8249997
  96.6819992  10.0104990  53.6719997  97.5019992   8.0724990  53.4809997
  98.1479992   8.4704990  54.2919997  97.2189992   6.9994990  53.5289997
  98.2839992   8.3134990  52.1429997  98.4259992   9.4114990  52.0509997
  99.2599992   7.7844990  52.2009997  97.5889992   7.9004990  50.8519997
  96.5939992   8.3684990  50.6949997  98.1489992   8.3594990  50.0089997
  97.4109992   6.4434990  50.5769997  98.2009992   5.8564990  51.0919997
  96.4419992   6.1444990  51.0319997  97.4099992   6.1504990  49.0809997
  98.3909992   6.5104990  48.7049997  97.5519992   5.0624990  48.9079997
  96.2829992   6.7324990  48.1779997  95.3559992   6.2054990  48.4919997
  96.1839992   7.8314990  48.3069997  96.5129992   6.5374990  46.6809997
  97.2679992   7.2834990  46.3539997  97.0209992   5.5674990  46.4959997
  95.2169992   6.6494990  45.8519997  94.4919992   5.8524990  46.1259997
  94.7069992   7.6274990  45.9839997  95.7109992   6.4564990  44.3869997
  96.0519992   5.3394990  43.9269997  95.6759992   7.5874990  43.6699997
  95.8919992   7.4704990  42.2699997  96.1319992   8.4704990  41.8479997
  96.8449992   6.9144990  42.1419997  94.7309992   6.9604990  41.4339997
  94.5449992   5.9074990  41.7369997  94.9759992   6.9214990  39.9299997
  95.8069992   6.1974990  39.7909997  94.0759992   6.4924990  39.4409997
  95.2469992   8.1984990  39.3269997  95.6909992   8.1384990  37.8069997
  94.3469992   7.6744990  37.0899997  93.1449992   8.3674990  36.9999997
  93.0099992   9.1504990  37.7759997  93.1049992   8.9264990  36.0409997
  91.9049992   7.4434990  36.9739997  91.7209992   6.9814990  37.9329997
  90.9979992   7.8974990  36.6009997  92.0029992   6.1974990  36.0539997
  92.6949992   5.1804990  36.8699997  93.0939992   4.4634990  36.1669997
  93.5519992   5.5884990  37.3859997  92.0859992   4.8204990  37.6849997
  90.6139992   5.7544990  35.7039997  90.2449992   5.2204990  36.5669997
  90.0309992   6.5734990  35.3099997  90.7179992   5.0074990  34.9309997
  92.6459992   6.6054990  34.7059997  93.6749992   6.8834990  34.8829997
  92.1049992   7.4424990  34.2899997  92.6059992   5.7874990  34.0029997
  96.0409992   9.4584990  37.3089997  96.7209992   7.1014990  37.6299997
  93.7089992   7.8574990  41.7519997  92.4779992   7.3424990  41.7429997
  92.1469992   6.2314990  41.4599997  91.5039992   8.5294990  42.2359997
  90.5839992   8.2134990  41.6999997  91.7719992   9.4544990  41.6829997
  91.3079992   8.6514990  43.7119997  90.4739992   9.3804990  43.8019997
  92.1669992   9.0524990  44.2909997  90.7169992   7.3024990  44.3219997
  91.5319992   6.5954990  44.5879997  90.0539992   6.8794990  43.5379997
  89.9099992   7.4524990  45.6269997  89.4289992   6.4944990  45.9159997
  89.0639992   8.1224990  45.3619997  90.6789992   7.9524990  46.9279997
  90.0399992   8.0034990  47.8359997  90.8629992   9.0344990  46.7559997
  92.0269992   7.3534990  47.3789997  92.7559992   7.9304990  46.7699997
  92.1279992   6.2744990  47.1329997  92.4699992   7.7724990  48.7919997
  93.4299992   7.2994990  49.0899997  91.7669992   7.3344990  49.5329997
  92.5379992   9.2744990  49.1379997  93.3619992   9.8144990  48.6489997
  91.7719992  10.0224990  49.9009997  91.9369992  11.1104990  49.9199997
  90.5259992   9.6504990  50.6749997  90.2279992   8.6184990  50.3909997
  89.5939992  10.2484990  50.5819997  90.6879992   9.7024990  52.1799997
  90.5559992  10.7414990  52.5499997  91.6479992   9.2324990  52.4829997
  89.7049992   8.8904990  53.0079997  89.7989992   7.8174990  52.7359997
  88.7119992   9.3224990  52.7599997  89.8189992   8.8674990  54.6119997
  88.8589992   8.4234990  54.9519997  89.7759992   9.8954990  55.0329997
  90.9569992   8.0954990  55.2539997  91.4459992   8.8644990  55.8889997
  91.6869992   7.9414990  54.4309997  90.6209992   6.8694990  56.0899997
  89.7729992   7.2394990  56.7039997  91.3269992   6.4734990  56.8519997
  90.1579992   5.6954990  55.2179997  91.0269992   5.4554990  54.5689997
  89.4319992   6.1464990  54.5089997  89.7939992   4.4294990  55.8959997
  88.7289992   4.4244990  56.2149997  90.2259992   4.2654990  56.9069997
  89.8829992   3.5714990  55.1959997 131.1379992 106.6684990  57.5699997
 131.7449992 107.3254990  56.9109997 131.7379992 105.7584990  57.7899997
 131.0469992 107.2104990  58.5359997 129.7969992 106.1934990  57.0329997
 129.7869992 105.3914990  56.2639997 129.3529992 105.7644990  57.9569997
 129.0259992 107.4084990  56.4359997 128.7879992 108.0994990  57.2719997
 129.7309992 107.9314990  55.7559997 127.6659992 107.0274990  55.7309997
 126.8519992 106.9024990  56.4759997 127.2649992 107.8274990  55.0719997
 127.6679992 105.7884990  54.7989997 127.8849992 105.0584990  55.6079997
 126.5949992 105.6894990  54.5309997 128.7159992 105.7754990  53.7259997
 129.6949992 105.9684990  54.2129997 128.6679992 104.7384990  53.3299997
 128.2889992 106.7444990  52.6099997 127.7249992 107.6294990  52.9719997
 129.2379992 107.0614990  52.1269997 127.4389992 105.9474990  51.6219997
 128.0369992 105.0674990  51.3009997 126.5819992 105.5044990  52.1729997
 127.0029992 106.8154990  50.4479997 126.0289992 106.4024990  50.1089997
 126.8319992 107.8834990  50.7009997 127.8629992 106.6994990  49.2019997
 127.6139992 107.5824990  48.5749997 128.9509992 106.8264990  49.3859997
 127.7099992 105.4134990  48.2909997 126.7079992 104.9634990  48.4599997
 127.7189992 105.6584990  47.2079997 128.7129992 104.2764990  48.5079997
 129.7319992 104.5704990  48.1739997 128.7509992 104.0744990  49.5989997
 128.3819992 102.9184990  47.8669997 129.1869992 102.1984990  48.1319997
 127.4339992 102.5494990  48.3129997 128.2999992 102.9414990  46.3579997
 128.0449992 101.9254990  45.9889997 127.3229992 103.4124990  46.1189997
 129.5019992 103.5074990  45.5449997 129.5629992 104.6114990  45.6609997
 130.4769992 103.0914990  45.8759997 129.3519992 103.2074990  44.0549997
 128.5249992 102.4584990  43.5669997 130.3629992 103.8164990  43.4549997
 130.4869992 103.4214990  42.1019997 131.5619992 103.4894990  41.8299997
 130.1299992 102.4014990  41.8409997 129.7459992 104.4124990  41.2129997
 128.6939992 104.2964990  41.5519997 129.9639992 104.1654990  39.7779997
 130.9349992 104.6674990  39.5769997 130.0489992 103.0824990  39.5479997
 128.9739992 104.6344990  38.9279997 129.2299992 104.6084990  37.3229997
 130.3699992 105.7744990  37.0949997 130.1069992 107.1604990  37.4279997
 129.0739992 107.4004990  37.0989997 130.2499992 107.2454990  38.5269997
 131.0369992 108.0714990  36.6099997 130.5849992 107.9504990  35.6359997
 131.0869992 109.1084990  36.9069997 132.5239992 107.6794990  36.5099997
 132.6479992 106.4964990  35.5889997 132.2449992 105.7034990  36.2019997
 132.0529992 106.6434990  34.6999997 133.6649992 106.3574990  35.2559997
 133.1499992 108.7884990  35.7849997 133.2139992 109.6914990  36.3749997
 134.1359992 108.4564990  35.4949997 132.6009992 109.0414990  34.8909997
 133.2319992 107.4884990  37.7799997 133.2799992 108.4524990  38.2649997
 134.2019992 107.0774990  37.5409997 132.6719992 106.9044990  38.4949997
 129.7729992 103.3264990  36.7989997 128.0119992 105.1274990  36.6229997
 130.1969992 105.7114990  41.5289997 129.4719992 106.8094990  41.2819997
 128.3239992 106.8354990  40.8759997 130.4029992 108.0014990  41.5039997
 131.2109992 108.0144990  40.7419997 130.8999992 107.8114990  42.4789997
 129.6689992 109.3624990  41.5679997 128.7419992 109.2334990  42.1659997
 129.2859992 109.5884990  40.5499997 130.5899992 110.4674990  42.1549997
 130.5789992 111.3064990  41.4269997 131.6579992 110.1694990  42.0829997
 130.2619992 110.8934990  43.5849997 129.2279992 111.2684990  43.7389997
 131.0309992 111.5614990  44.0289997 130.3989992 109.6524990  44.5069997
 131.3019992 109.0514990  44.2649997 129.4609992 109.0844990  44.3309997
 130.2159992 109.9454990  46.0449997 129.2299992 110.4254990  46.2239997
 131.0109992 110.6454990  46.3789997 130.4309992 108.6844990  47.0169997
 129.4889992 108.0964990  47.0439997 130.5609992 109.1474990  48.0179997
 131.5159992 107.7524990  46.6189997 131.1859992 107.0144990  45.8729997
 132.7669992 107.5744990  47.0049997 133.4389992 106.8754990  46.4859997
 133.5399992 108.3374990  48.0929997 132.8559992 109.1234990  48.4779997
 134.5049992 108.7964990  47.7899997 133.8359992 107.4104990  49.3289997
 134.7549992 107.8094990  49.8079997 134.3089992 106.4524990  49.0249997
 132.6529992 107.0554990  50.2119997 131.9909992 106.3424990  49.6749997
 132.0949992 108.0104990  50.3229997 133.0129992 106.5954990  51.6199997
 132.3979992 107.1664990  52.3479997 134.0729992 106.7714990  51.9009997
 132.8399992 105.0744990  51.6929997 133.5099992 104.5784990  50.9589997
 131.7629992 104.8414990  51.5489997 133.1699992 104.4164990  53.1149997
 132.6539992 105.0444990  53.8719997 134.2529992 104.4334990  53.3639997
 132.7339992 102.8864990  53.2389997 133.3199992 102.3544990  52.4599997
 131.6799992 102.6094990  53.0219997 133.0319992 102.2874990  54.5889997
 134.0959992 102.4354990  54.8729997 132.7029992 101.2264990  54.5699997
 132.4089992 102.8844990  55.2889997 108.6859992 119.6444990  53.7219997
 108.0679992 120.5254990  53.9969997 109.4659992 119.4794990  54.4959997
 107.9499992 118.8124990  53.7259997 109.2759992 119.8744990  52.3349997
 110.1169992 120.5864990  52.4759997 109.7009992 118.9464990  51.8959997
 108.3929992 120.4854990  51.2709997 107.3649992 120.0784990  51.3789997
 108.3539992 121.5944990  51.3329997 108.6959992 120.1714990  49.8009997
 109.2059992 119.1844990  49.7679997 107.7119992 120.0304990  49.3049997
 109.6579992 121.2184990  49.1999997 109.1399992 122.1594990  49.4839997
 110.6729992 121.1704990  49.6479997 109.8199992 121.1804990  47.6569997
 110.8459992 121.5144990  47.3909997 109.7149992 120.1124990  47.3689997
 108.8619992 122.1004990  46.8519997 107.7949992 121.8954990  47.0839997
 109.1009992 123.1664990  47.0569997 109.0789992 122.0424990  45.2889997
 110.1749992 122.1414990  45.1339997 108.8389992 120.9864990  45.0399997
 108.1999992 122.8434990  44.3799997 108.3819992 123.9314990  44.5139997
 108.4389992 122.5684990  43.3309997 106.6669992 122.5194990  44.6119997
 106.3649992 121.4804990  44.3589997 106.3459992 122.6054990  45.6719997
 105.7089992 123.3514990  43.8079997 105.7269992 124.4054990  44.1599997
 106.0049992 123.3904990  42.7379997 104.2419992 122.9584990  43.9289997
 103.8309992 123.3554990  44.8819997 103.8799992 123.5144990  43.0369997
 103.8149992 121.4444990  44.0339997 104.5369992 120.9004990  43.3879997
 103.9019992 120.9664990  45.0319997 102.3809992 121.3544990  43.5929997
 101.8499992 122.0764990  44.2479997 102.2309992 121.5894990  42.5179997
 101.6849992 120.0484990  43.9569997 101.7409992 119.7694990  45.0309997
 100.5999992 120.1744990  43.7509997 102.1569992 118.9384990  42.9539997
 101.7059992 117.8084990  42.9159997 103.0529992 119.3764990  42.0529997
 103.4499992 118.5474990  40.9829997 103.9989992 117.6204990  41.2529997
 102.5949992 118.1834990  40.3729997 104.5549992 119.3364990  40.0579997
 103.9419992 120.2194990  39.7779997 104.7739992 118.6014990  38.6909997
 105.2619992 117.6504990  38.9929997 103.9039992 118.4674990  38.0129997
 105.7129992 119.3794990  37.9689997 106.6879992 118.5564990  36.9659997
 107.2409992 119.6994990  36.0799997 107.0939992 121.0434990  36.3299997
 107.1979992 121.6744990  35.4219997 106.0369992 121.2634990  36.5929997
 108.0489992 121.5634990  37.3539997 107.8079992 122.5844990  37.6089997
 107.9379992 121.0684990  38.3069997 109.5599992 121.6084990  37.0029997
 109.8089992 122.5394990  35.8199997 110.8749992 122.5914990  35.6519997
 109.2909992 122.1234990  34.9689997 109.4699992 123.4904990  36.2039997
 110.2199992 122.1584990  38.2019997 110.1579992 121.4714990  39.0329997
 111.2709992 122.2834990  37.9889997 109.7829992 123.1284990  38.3859997
 110.0369992 120.2394990  36.8049997 109.9069992 119.7164990  37.7399997
 111.0989992 120.3114990  36.6199997 109.4749992 119.6804990  36.0709997
 107.8609992 118.0934990  37.7349997 105.8779992 117.5624990  36.2099997
 105.7749992 119.5174990  40.7529997 106.3539992 120.6334990  40.7799997
 105.9449992 121.6824990  40.3169997 107.6549992 120.5384990  41.5509997
 107.4159992 120.5284990  42.6359997 108.2419992 121.4664990  41.3779997
 108.4719992 119.3304990  40.9799997 108.3839992 119.2294990  39.8769997
 107.9299992 118.4594990  41.4049997 109.9549992 119.4314990  41.2579997
 110.2689992 120.4624990  40.9899997 110.5589992 118.8294990  40.5459997
 110.4019992 119.2054990  42.6849997 109.9759992 120.0644990  43.2469997
 111.5119992 119.2374990  42.6459997 109.9539992 117.8984990  43.3549997
 110.3529992 116.9994990  42.8379997 108.8459992 117.9784990  43.3979997
 110.3249992 117.8584990  44.8599997 110.9679992 118.7214990  45.1349997
 111.0099992 116.9854990  44.9189997 109.0369992 117.7074990  45.7319997
 108.4729992 118.6524990  45.5789997 109.3839992 117.5604990  46.7769997
 108.2519992 116.4544990  45.2629997 108.7349992 115.7754990  44.5449997
 107.0129992 116.0384990  45.5689997 106.5889992 115.1384990  45.1009997
 106.0259992 116.8394990  46.4089997 104.9969992 116.7054990  46.0099997
 106.2409992 117.9294990  46.3809997 105.9059992 116.5364990  47.9199997
 106.8529992 116.6344990  48.4919997 105.4049992 115.5494990  48.0149997
 105.0299992 117.5454990  48.6129997 104.0159992 117.5974990  48.1639997
 105.3929992 118.5514990  48.3129997 105.0699992 117.4394990  50.1879997
 106.0939992 117.5814990  50.5949997 104.8519992 116.3594990  50.3349997
 104.1909992 118.3414990  51.0079997 103.1339992 118.2274990  50.6839997
 104.6379992 119.3364990  50.7949997 104.2389992 118.0414990  52.4889997
 103.7089992 118.8424990  53.0479997 105.2859992 118.0254990  52.8609997
 103.5819992 116.7744990  52.9559997 104.3189992 116.4644990  53.7279997
 103.6469992 116.0414990  52.1239997 102.2009992 116.6564990  53.5259997
 102.0719992 117.3764990  54.3619997 101.9049992 115.7074990  54.0229997
 101.5079992 116.9304990  52.7009997  45.5789992 136.4794990  56.8939997
  45.9659992 136.0164990  57.8259997  44.5779992 136.0114990  56.7759997
  45.4739992 137.5854990  56.9029997  46.4249992 136.1314990  55.6939997
  47.4229992 136.6174990  55.7299997  46.5169992 135.0254990  55.6309997
  45.8349992 136.6084990  54.3459997  45.7899992 137.7164990  54.2819997
  46.5359992 136.3794990  53.5149997  44.3989992 136.2644990  53.8909997
  43.7159992 136.7474990  54.6219997  44.1239992 136.6644990  52.8909997
  44.2559992 134.7864990  53.8029997  45.0809992 134.3464990  53.2019997
  44.2699992 134.3414990  54.8209997  42.8529992 134.4284990  53.2769997
  42.1129992 134.2974990  54.0949997  42.4399992 135.3044990  52.7339997
  42.9679992 133.2684990  52.3059997  43.5649992 132.4294990  52.7229997
  41.9419992 132.8484990  52.2339997  43.5779992 133.6094990  50.9299997
  43.0299992 134.5014990  50.5589997  44.6539992 133.8384990  51.0909997
  43.5799992 132.4024990  50.0089997  43.8969992 131.4304990  50.4449997
  42.5199992 132.3384990  49.6809997  44.4049992 132.6434990  48.6929997
  45.4789992 132.6874990  48.9729997  44.1319992 131.7364990  48.1129997
  44.0929992 133.8614990  47.8239997  43.0939992 133.8784990  47.3389997
  44.0369992 134.7744990  48.4549997  45.1349992 134.0834990  46.6399997
  45.3709992 135.1584990  46.4849997  46.0359992 133.6434990  47.1169997
  44.6379992 133.4764990  45.2849997  45.3909992 133.6994990  44.4989997
  44.5309992 132.3914990  45.4979997  43.1879992 133.8464990  44.8419997
  42.3979992 133.2494990  45.3469997  42.9129992 134.9034990  45.0439997
  42.8819992 133.7264990  43.3719997  43.3909992 132.7594990  43.1699997
  41.8059992 133.4884990  43.2309997  43.4709992 134.8434990  42.5179997
  44.2719992 135.6814990  42.9359997  42.9589992 134.7654990  41.3029997
  43.2219992 135.9394990  40.5229997  42.3489992 136.2614990  39.9169997
  43.6709992 136.7844990  41.0879997  44.2769992 135.6844990  39.3299997
  44.4919992 136.6504990  38.8239997  43.8399992 134.5684990  38.3929997
  43.4879992 133.7734990  39.0839997  42.9659992 134.8984990  37.7909997
  45.0019992 134.0264990  37.7299997  45.4469992 134.5324990  36.3469997
  46.9339992 133.9324990  36.1949997  47.7429992 134.0374990  37.3489997
  48.3299992 134.9784990  37.3909997  47.1829992 133.8994990  38.2989997
  48.8559992 132.8204990  37.2939997  49.4649992 132.7804990  36.4039997
  49.5049992 132.9474990  38.1479997  48.1479992 131.4084990  37.4339997
  47.2399992 131.0164990  36.2069997  47.6879992 131.3474990  35.2819997
  47.0719992 129.9504990  36.2599997  46.3259992 131.5864990  36.2849997
  49.3029992 130.3864990  37.4489997  49.7769992 130.5474990  36.4929997
  50.1039992 130.4954990  38.1649997  48.7749992 129.4494990  37.5539997
  47.3849992 131.3624990  38.7319997  48.0289992 131.6664990  39.5439997
  46.8849992 130.4154990  38.8709997  46.5889992 132.0924990  38.7339997
  44.5529992 133.9214990  35.3289997  45.6369992 136.0414990  36.4029997
  45.5679992 135.3824990  39.8469997  46.2619992 136.0864990  40.6619997
  45.8879992 137.1144990  41.2299997  47.7239992 135.5724990  40.7619997
  48.3699992 136.4754990  40.7689997  48.0659992 134.9204990  39.9289997
  47.8939992 134.7924990  42.0989997  47.1069992 135.1754990  42.7839997
  48.9189992 134.9484990  42.4959997  47.5869992 133.2604990  41.9499997
  47.6919992 132.9354990  40.8919997  46.5279992 133.1004990  42.2459997
  48.4899992 132.3764990  42.8139997  48.7859992 132.8244990  43.7869997
  49.4349992 132.3584990  42.2299997  47.9249992 130.8954990  43.0089997
  48.7729992 130.2034990  43.2009997  47.3839992 130.5544990  42.0999997
  47.0659992 130.6904990  44.3159997  46.0079992 130.9924990  44.1659997
  47.5499992 131.2724990  45.1299997  47.0449992 129.2294990  44.7339997
  48.0909992 128.8554990  44.7029997  46.5199992 128.6444990  43.9479997
  46.4039992 129.1684990  46.1489997  45.3379992 128.9524990  45.9829997
  46.9409992 129.5444990  47.2949997  46.3899992 129.3504990  48.2269997
  48.2709992 130.0914990  47.5789997  48.8569992 130.1884990  46.6409997
  48.9559992 129.4524990  48.1769997  48.3059992 131.4184990  48.2459997
  47.7429992 132.1354990  47.6109997  49.3609992 131.7604990  48.1819997
  47.8559992 131.3964990  49.7429997  48.5079992 130.5914990  50.1439997
  46.8379992 131.0084990  49.9619997  48.1419992 132.7614990  50.4189997
  47.6439992 133.6124990  49.9069997  49.2109992 132.9164990  50.1589997
  47.6719992 132.7644990  51.8989997  47.2869992 131.7494990  52.1339997
  46.8489992 133.4954990  52.0529997  48.7929992 132.9334990  52.9109997
  49.5409992 132.1124990  52.9209997  48.3259992 133.0854990  53.9069997
  49.5989992 134.2134990  52.5219997  49.9669992 134.4014990  51.4899997
  50.5339992 134.1324990  53.1159997  48.9709992 135.4844990  53.0219997
  49.7189992 136.3064990  52.9959997  48.7659992 135.3154990  54.1009997
  48.1219992 135.7964990  52.3769997  15.8639992  23.1324990  57.2129997
  15.1199992  22.4244990  57.6359997  15.3939992  23.6984990  56.3789997
  16.3449992  23.7454990  58.0039997  17.0769992  22.3094990  56.6239997
  17.6239992  21.8744990  57.4869997  16.6509992  21.4734990  56.0279997
  18.1389992  23.0574990  55.8339997  18.3649992  24.0214990  56.3369997
  19.0059992  22.3764990  55.6969997  17.8089992  23.5784990  54.4029997
  16.8779992  24.1794990  54.4659997  18.6019992  24.3004990  54.1139997
  17.5989992  22.4274990  53.4479997  17.0649992  21.5384990  53.8479997
  16.8789992  22.8274990  52.7019997  18.7609992  22.0564990  52.5969997
  19.2869992  22.9844990  52.2849997  19.4639992  21.3604990  53.1019997
  18.2679992  21.5054990  51.2729997  18.0979992  20.4444990  51.5549997
  17.2609992  21.8814990  50.9919997  19.0979992  21.6274990  49.9909997
  18.9059992  22.6754990  49.6749997  20.1769992  21.5084990  50.2269997
  18.7039992  20.7224990  48.7919997  18.5769992  19.6764990  49.1429997
  17.7329992  21.1134990  48.4189997  19.6829992  20.7704990  47.5989997
  20.6859992  20.7064990  48.0719997  19.4139992  19.8964990  46.9669997
  19.6729992  22.1194990  46.9359997  18.7359992  22.2304990  46.3499997
  19.8269992  22.8934990  47.7179997  20.8209992  22.3774990  45.9569997
  20.8919992  23.4694990  45.7649997  21.7119992  22.0124990  46.5109997
  20.8059992  21.7144990  44.5809997  21.8349992  21.8534990  44.1869997
  20.5589992  20.6374990  44.6979997  19.8959992  22.3554990  43.4919997
  18.8549992  22.3594990  43.8799997  20.1579992  23.4254990  43.3479997
  19.8759992  21.5624990  42.1779997  19.0809992  22.1214990  41.6399997
  20.7759992  21.7504990  41.5549997  19.3339992  20.1594990  42.1519997
  19.9759992  19.1834990  42.4169997  18.0799992  20.2414990  41.8899997
  17.3239992  19.0464990  41.8819997  17.9619992  18.2084990  41.5279997
  16.8269992  18.8054990  42.8459997  16.2159992  19.2644990  40.8669997
  15.6839992  18.2894990  40.8579997  16.8689992  19.5154990  39.4149997
  17.7499992  18.8484990  39.3019997  16.0769992  19.3264990  38.6589997
  17.3349992  20.8444990  39.3629997  18.1059992  21.4174990  38.1689997
  16.9609992  21.2264990  37.0869997  15.7159992  21.9754990  37.2619997
  14.9759992  21.5854990  36.5319997  15.2819992  21.7514990  38.2599997
  15.7579992  23.4814990  36.9839997  14.7769992  23.9064990  37.1389997
  16.3769992  23.9454990  37.7369997  16.0909992  24.0574990  35.6639997
  14.9189992  23.8464990  34.8019997  15.3319992  23.7504990  33.8089997
  14.3919992  22.9444990  35.0769997  14.2149992  24.6654990  34.7919997
  16.3019992  25.5694990  35.8869997  16.4169992  25.9014990  34.8659997
  15.4509992  26.0184990  36.3779997  17.1839992  25.7314990  36.4879997
  17.3239992  23.4584990  35.0739997  18.1049992  23.7184990  35.7729997
  17.5059992  24.1214990  34.2409997  17.1679992  22.4164990  34.8349997
  18.4029992  22.8704990  38.3789997  19.2069992  20.4924990  37.8009997
  15.3979992  20.3824990  41.1839997  14.3099992  20.6054990  40.3799997
  13.9259992  19.9394990  39.4389997  13.6029992  21.8314990  40.9529997
  12.8689992  22.1944990  40.2019997  14.3779992  22.5454990  41.3039997
  12.8129992  21.4004990  42.1759997  13.5329992  20.8594990  42.8269997
  12.0919992  20.6004990  41.9049997  12.1919992  22.5254990  42.9499997
  11.4309992  22.1274990  43.6549997  11.5719992  23.2134990  42.3369997
  13.1589992  23.3534990  43.7949997  13.5939992  24.0984990  43.0939997
  13.9889992  22.6584990  44.0439997  12.6279992  24.0664990  45.0159997
  12.1209992  23.3034990  45.6439997  11.8659992  24.7354990  44.5609997
  13.6909992  24.7084990  45.8639997  13.2249992  25.2764990  46.6979997
  14.2929992  25.3994990  45.2369997  14.6469992  23.6574990  46.5199997
  15.1349992  23.0814990  45.7049997  14.0399992  22.9864990  47.1659997
  15.7759992  24.1934990  47.3839997  16.7979992  23.9754990  47.0399997
  15.6179992  24.7894990  48.5829997  16.5509992  25.1954990  48.9999997
  14.3429992  25.1534990  49.3789997  13.4669992  25.1504990  48.6959997
  14.5179992  26.1964990  49.7209997  14.0549992  24.1414990  50.4539997
  13.2709992  24.5704990  51.1149997  14.9009992  23.8444990  51.1099997
  13.3649992  22.7944990  49.9479997  13.7719992  22.3174990  49.0309997
  12.2719992  22.8954990  49.7729997  13.3019992  21.5234990  50.9089997
  12.9489992  20.6944990  50.2579997  12.4739992  21.7034990  51.6259997
  14.6599992  21.1934990  51.6469997  15.0449992  22.1214990  52.1209997
  15.3739992  20.8974990  50.8489997  14.7039992  20.0864990  52.7219997
  14.5049992  20.6614990  53.6519997  15.7719992  19.8704990  52.9369997
  13.9099992  18.8684990  52.5019997  14.0419992  18.5034990  51.4609997
  12.8099992  18.9324990  52.6449997  14.2959992  17.7294990  53.4139997
  13.9629992  17.8914990  54.4619997  15.3639992  17.4284990  53.3719997
  13.7289992  16.8664990  53.0039997 126.2969992  23.6364990  53.7219997
 125.9359992  24.6504990  53.9969997 127.0049992  23.2694990  54.4959997
 125.3659992  23.0304990  53.7259997 126.9269992  23.7014990  52.3349997
 127.9269992  24.1634990  52.4759997 127.0889992  22.6934990  51.8959997
 126.2389992  24.5254990  51.2709997 125.1399992  24.4074990  51.3789997
 126.4959992  25.6044990  51.3329997 126.4469992  24.1414990  49.8009997
 126.6759992  23.0544990  49.7679997 125.4609992  24.2684990  49.3049997
 127.6529992  24.8944990  49.1999997 127.4049992  25.9394990  49.4839997
 128.6189992  24.5774990  49.6479997 127.7989992  24.8144990  47.6569997
 128.8769992  24.8634990  47.3909997 127.4139992  23.8134990  47.3689997
 127.1209992  25.9574990  46.8519997 126.0389992  26.0434990  47.0839997
 127.6349992  26.9204990  47.0569997 127.3149992  25.8424990  45.2889997
 128.3969992  25.6464990  45.1339997 126.8019992  24.8894990  45.0399997
 126.6809992  26.8494990  44.3799997 127.1459992  27.8494990  44.5139997
 126.8379992  26.5204990  43.3309997 125.1169992  26.9454990  44.6119997
 124.5489992  26.0244990  44.3589997 124.8309992  27.1144990  45.6719997
 124.4149992  28.0034990  43.8079997 124.7129992  29.0134990  44.1599997
 124.7119992  27.9614990  42.7379997 122.8969992  28.0154990  43.9289997
 122.6069992  28.5064990  44.8819997 122.6959992  28.6474990  43.0369997
 122.0819992  26.6704990  44.0339997 122.6329992  25.9534990  43.3879997
 122.0379992  26.1854990  45.0319997 120.6759992  26.9644990  43.5929997
 120.3559992  27.8034990  44.2479997 120.5939992  27.2324990  42.5179997
 119.6569992  25.8914990  43.9569997 119.6359992  25.6084990  45.0309997
 118.6449992  26.3034990  43.7509997 119.8159992  24.6964990  42.9539997
 119.0799992  23.7284990  42.9159997 120.7959992  24.8804990  42.0529997
 120.9569992  23.9744990  40.9829997 121.2399992  22.9344990  41.2529997
 120.0369992  23.8514990  40.3729997 122.2329992  24.4404990  40.0579997
 121.8779992  25.4554990  39.7779997 122.2489992  23.6744990  38.6909997
 122.4649992  22.6274990  38.9929997 121.3739992  23.7764990  38.0129997
 123.3609992  24.1734990  37.9689997 124.0819992  23.1204990  36.9659997
 124.9189992  24.0744990  36.0799997 125.1349992  25.4094990  36.3299997
 125.4039992  25.9894990  35.4219997 124.1749992  25.9034990  36.5929997
 126.1949992  25.6554990  37.3539997 126.2349992  26.7044990  37.6089997
 125.9559992  25.2084990  38.3069997 127.6629992  25.2964990  37.0029997
 128.1509992  26.1274990  35.8199997 129.1919992  25.8934990  35.6519997
 127.5399992  25.8654990  34.9689997 128.0769992  27.1344990  36.2039997
 128.4449992  25.6504990  38.2019997 128.2029992  25.0044990  39.0329997
 129.4919992  25.4914990  37.9889997 128.2819992  26.7024990  38.3859997
 127.7579992  23.8504990  36.8049997 127.4929992  23.3804990  37.7399997
 128.7999992  23.6364990  36.6199997 127.0669992  23.4614990  36.0709997
 125.0889992  22.3614990  37.7349997 123.0359992  22.3784990  36.2099997
 123.4569992  24.2904990  40.7529997 124.3129992  25.2114990  40.7799997
 124.1979992  26.3314990  40.3169997 125.5419992  24.7724990  41.5509997
 125.3089992  24.8264990  42.6359997 126.3539992  25.5104990  41.3779997
 126.0069992  23.3914990  40.9799997 125.8959992  23.3174990  39.8769997
 125.2519992  22.6954990  41.4049997 127.4629992  23.0924990  41.2579997
 128.0409992  24.0034990  40.9899997 127.8849992  22.3514990  40.5459997
 127.8329992  22.7554990  42.6849997 127.6519992  23.6974990  43.2469997
 128.9119992  22.4914990  42.6459997 127.0529992  21.6154990  43.3549997
 127.1989992  20.6434990  42.8379997 126.0079992  21.9884990  43.3979997
 127.4009992  21.4784990  44.8599997 128.2509992  22.1384990  45.1349997
 127.8279992  20.4544990  44.9189997 126.1189992  21.6754990  45.7319997
 125.8269992  22.7374990  45.5789997 126.4139992  21.4414990  46.7769997
 125.0279992  20.6774990  45.2629997 125.3129992  19.8944990  44.5449997
 123.7239992  20.6064990  45.5689997 123.0739992  19.8524990  45.1009997
 122.9849992  21.6424990  46.4089997 121.9579992  21.7874990  46.0099997
 123.4829992  22.6354990  46.3809997 122.7889992  21.3824990  47.9199997
 123.7279992  21.2244990  48.4919997 122.0429992  20.5644990  48.0149997
 122.2139992  22.5884990  48.6129997 121.2499992  22.9084990  48.1639997
 122.8319992  23.4614990  48.3129997 122.2239992  22.4744990  50.1879997
 123.2489992  22.3394990  50.5949997 121.7259992  21.4924990  50.3349997
 121.6169992  23.5794990  51.0079997 120.5679992  23.7514990  50.6839997
 122.3129992  24.4184990  50.7949997 121.5839992  23.2774990  52.4889997
 121.2869992  24.1904990  53.0479997 122.5879992  22.9824990  52.8609997
 120.6129992  22.2304990  52.9559997 121.2399992  21.7354990  53.7279997
 120.4799992  21.5064990  52.1239997 119.2499992  22.4854990  53.5259997
 119.3179992  23.2134990  54.3619997 118.7119992  21.6494990  54.0229997
 118.6559992  22.9334990  52.7009997  32.6679992 124.0004990  58.4509997
  32.1289992 124.9624990  58.5869997  33.4909992 124.0954990  59.1919997
  31.8939992 123.2674990  58.7629997  33.1019992 123.7984990  57.0009997
  33.6589992 122.8374990  56.9949997  32.2419992 123.6094990  56.3229997
  34.0409992 124.8634990  56.4169997  34.1079992 125.7104990  57.1329997
  35.0259992 124.3734990  56.2629997  33.5699992 125.4884990  55.0789997
  33.5139992 124.6744990  54.3239997  32.5919992 126.0104990  55.1509997
  34.4669992 126.5504990  54.5399997  34.8879992 127.1394990  55.3819997
  35.4049992 126.2434990  54.0299997  33.9339992 127.6684990  53.6749997
  32.8819992 127.8664990  53.9749997  34.5059992 128.6164990  53.7659997
  33.7829992 127.3504990  52.2009997  34.8039992 127.0584990  51.8749997
  33.0989992 126.4764990  52.1339997  33.4699992 128.5024990  51.2479997
  32.5449992 128.9934990  51.6189997  34.2979992 129.2384990  51.3329997
  33.3129992 128.1774990  49.7859997  34.3219992 128.1354990  49.3229997
  32.9999992 127.1204990  49.6459997  32.4569992 129.1974990  49.0379997
  31.4539992 128.7554990  48.8579997  32.2899992 130.0844990  49.6859997
  33.0509992 129.4054990  47.6479997  32.5119992 130.1784990  47.0599997
  34.0999992 129.7704990  47.6619997  32.9779992 128.1544990  46.7859997
  33.4649992 127.2594990  47.2289997  31.9109992 127.8574990  46.6949997
  33.5009992 128.2184990  45.2909997  33.3429992 127.2254990  44.8169997
  33.0029992 129.0084990  44.6889997  35.0199992 128.5334990  45.1229997
  35.1679992 129.4604990  45.7189997  35.5219992 127.7404990  45.7179997
  35.4229992 128.6804990  43.6299997  34.5509992 129.2014990  43.1799997
  36.3839992 129.2334990  43.5559997  35.5239992 127.3084990  42.9009997
  35.1899992 126.2044990  43.2989997  35.8289992 127.6224990  41.6739997
  35.8999992 126.7204990  40.5599997  36.7319992 127.0304990  39.8929997
  36.1559992 125.7184990  40.9659997  34.5299992 126.6184990  39.7199997
  34.6969992 125.9434990  38.8539997  34.3429992 128.0234990  39.0499997
  34.6699992 128.8124990  39.7599997  35.0389992 128.2414990  38.2129997
  32.9999992 128.3574990  38.6209997  32.6419992 128.0524990  37.0319997
  31.0819992 127.7734990  37.1369997  30.6979992 126.8324990  38.1499997
  31.2819992 127.0534990  39.0689997  29.6359992 127.0274990  38.4149997
  30.8929992 125.3754990  37.7129997  31.9279992 125.3434990  37.4049997
  30.7109992 124.7104990  38.5439997  30.1099992 124.9224990  36.5209997
  30.3039992 125.8254990  35.3329997  29.5879992 125.5234990  34.5829997
  30.1769992 126.8634990  35.6019997  31.2899992 125.6794990  34.9189997
  30.7049992 123.5904990  36.1779997  30.7599992 123.0174990  37.0919997
  30.1489992 123.0344990  35.4369997  31.6839992 123.6954990  35.7349997
  28.7009992 124.9074990  36.9829997  28.4679992 125.8764990  37.3979997
  28.6399992 124.1914990  37.7889997  28.0809992 124.6034990  36.1519997
  32.8789992 129.2124990  36.2039997  33.2889992 126.7744990  36.5999997
  33.4419992 126.2674990  40.5699997  33.3499992 124.9494990  40.8019997
  33.8799992 124.0194990  40.2249997  32.3109992 124.9094990  41.9379997
  31.4189992 125.5594990  41.8139997  32.8299992 125.0344990  42.9129997
  31.9139992 123.4684990  42.0949997  32.8159992 122.8254990  42.1769997
  31.3729992 123.0894990  41.2019997  30.9669992 123.1584990  43.3409997
  31.6039992 123.1574990  44.2509997  30.7489992 122.0764990  43.2129997
  29.7919992 124.1144990  43.4329997  29.1879992 124.1914990  42.5039997
  30.1679992 125.1574990  43.5169997  28.9629992 123.7454990  44.6529997
  28.4799992 122.7964990  44.3359997  28.2239992 124.5604990  44.8089997
  29.6709992 123.4854990  45.9789997  30.1839992 122.5074990  45.8639997
  28.8959992 123.2664990  46.7449997  30.6269992 124.6194990  46.4579997
  31.2449992 124.9304990  45.5899997  31.3619992 124.2054990  47.1809997
  29.8769992 125.8134990  47.0919997  29.3449992 126.3774990  46.3119997
  29.7149992 126.0414990  48.3839997  28.9799992 126.8054990  48.6779997
  30.1419992 125.3024990  49.6179997  31.2429992 125.4114990  49.7199997
  29.9259992 124.2284990  49.4369997  29.3759992 125.5034990  50.9189997
  28.4839992 124.8434990  50.8649997  29.0029992 126.5494990  50.9049997
  30.1869992 125.1784990  52.1729997  30.9619992 125.9734990  52.1499997
  30.5239992 124.1204990  52.1389997  29.5029992 125.4104990  53.5159997
  30.0119992 124.8774990  54.3469997  28.4769992 124.9844990  53.5319997
  29.4099992 126.8554990  54.0999997  28.9439992 127.5244990  53.3449997
  30.4399992 127.1514990  54.3929997  28.6169992 126.8644990  55.3679997
  28.9129992 125.9844990  55.9789997  27.5459992 126.7924990  55.0829997
  28.9879992 128.2044990  56.0419997  28.1969992 128.4654990  56.7769997
  28.9969992 129.0924990  55.3749997  30.2689992 128.1424990  56.9209997
  30.4589992 129.1424990  57.3649997  31.2189992 127.7944990  56.4629997
  30.0529992 127.3964990  57.7149997  34.2049992  -0.6285010  53.8439997
  35.0859992  -1.3045010  53.8799997  33.2899992  -1.1405010  54.2119997
  34.4139992   0.1094990  54.6479997  34.1699992   0.0414990  52.4839997
  35.0469992   0.7224990  52.4379997  34.1779992  -0.7015010  51.6579997
  32.8359992   0.7924990  52.2839997  32.7769992   0.8384990  51.1759997
  32.0149992   0.1274990  52.6269997  32.6999992   2.2314990  52.8929997
  31.7519992   2.6864990  52.5339997  32.6179992   2.0504990  53.9859997
  33.7019992   3.2434990  52.4859997  33.4649992   4.1764990  53.0399997
  34.7759992   3.0124990  52.6549997  33.5749992   3.6164990  51.0399997
  34.0699992   2.7724990  50.5149997  32.5069992   3.7104990  50.7489997
  34.3179992   4.9134990  50.5719997  34.0229992   5.7394990  51.2529997
  35.4249992   4.8434990  50.5109997  34.0009992   5.4734990  49.1099997
  33.3839992   4.6444990  48.7019997  33.4419992   6.4334990  49.0949997
  35.1419992   5.5064990  48.1019997  35.9899992   6.1574990  48.4059997
  35.5269992   4.4654990  48.0739997  34.6969992   5.9204990  46.6969997
  34.0629992   5.1114990  46.2759997  34.0739992   6.8354990  46.5949997
  35.8319992   5.9924990  45.6249997  35.3119992   6.3314990  44.7039997
  36.6249992   6.7154990  45.9099997  36.4959992   4.5874990  45.4599997
  37.0399992   4.3684990  46.4029997  35.8459992   3.6884990  45.3999997
  37.4839992   4.4384990  44.1829997  38.4019992   5.0194990  44.4149997
  37.8249992   3.3834990  44.1199997  36.8239992   4.8504990  42.8369997
  35.8919992   4.2464990  42.8089997  36.7519992   5.9564990  42.9089997
  37.4829992   4.6064990  41.4679997  36.9849992   5.2914990  40.7489997
  38.5829992   4.7454990  41.4059997  37.2119992   3.1024990  41.0999997
  37.1569992   2.1994990  41.9069997  36.9169992   3.1024990  39.7829997
  36.5909992   1.8414990  39.1919997  37.2369992   1.5594990  38.3339997
  36.5559992   0.9884990  39.9029997  35.0479992   1.8644990  38.7029997
  34.6079992   0.8924990  38.3919997  34.7609992   2.7904990  37.4919997
  35.4249992   2.3384990  36.7239997  33.6969992   2.6764990  37.1899997
  35.2069992   4.0944990  37.6019997  34.3569992   5.2854990  38.1319997
  32.9799992   5.0014990  37.4629997  32.9199992   4.7864990  36.0079997
  32.7239992   5.7554990  35.5009997  33.8319992   4.2974990  35.6039997
  31.8919992   3.7094990  35.6229997  31.9579992   3.6654990  34.5459997
  32.1889992   2.7314990  35.9719997  30.3979992   3.7954990  35.9739997
  29.6279992   2.8994990  35.0729997  28.5939992   2.9064990  35.3839997
  29.6019992   3.3074990  34.0729997  30.0389992   1.9014990  35.1209997
  30.1669992   3.3004990  37.3859997  29.1209992   3.3734990  37.6449997
  30.4619992   2.2754990  37.5559997  30.8469992   3.8234990  38.0419997
  29.9299992   5.2284990  35.8939997  30.3139992   5.7984990  35.0609997
  30.4029992   5.7394990  36.7189997  28.8549992   5.2224990  35.9979997
  34.1729992   5.1994990  39.6209997  34.9079992   6.5664990  37.6959997
  34.2359992   2.2564990  39.8319997  34.0619992   1.3354990  40.7319997
  34.3409992   0.1464990  40.5209997  33.5649992   1.9444990  42.0919997
  32.4739992   2.1494990  42.0619997  34.1529992   2.8784990  42.2209997
  33.9379992   0.9914990  43.2829997  35.0289992   0.8044990  43.1929997
  33.3029992   0.0844990  43.1869997  33.8149992   1.6184990  44.7309997
  34.3349992   2.6004990  44.7449997  34.3199992   0.8564990  45.3639997
  32.4029992   1.8394990  45.2479997  31.8529992   0.8744990  45.2579997
  31.9399992   2.5684990  44.5499997  32.4139992   2.4154990  46.6579997
  32.9519992   3.3874990  46.6379997  33.0459992   1.7044990  47.2309997
  31.0159992   2.6444990  47.2259997  31.1629992   3.0434990  48.2519997
  30.5299992   1.6514990  47.3329997  30.1199992   3.6374990  46.4579997
  29.2249992   3.7664990  47.1039997  29.9099992   3.1214990  45.4969997
  30.6759992   5.0154990  46.1759997  31.2829992   5.0844990  45.2609997
  30.4429992   6.1174990  46.8859997  30.8779992   7.0454990  46.4859997
  29.6519992   6.3524990  48.1569997  28.8469992   5.5944990  48.2669997
  29.1679992   7.3504990  48.0979997  30.5249992   6.2634990  49.4619997
  31.4159992   6.9274990  49.4669997  30.8959992   5.2184990  49.5319997
  29.7419992   6.5104990  50.7669997  28.7609992   5.9914990  50.7119997
  29.4219992   7.5714990  50.6849997  30.3439992   5.8934990  52.0209997
  31.3779992   6.2844990  52.1239997  30.3199992   4.7844990  51.9549997
  29.6019992   6.3764990  53.2999997  28.6419992   5.8224990  53.3679997
  29.4349992   7.4744990  53.2689997  30.3819992   6.0434990  54.6409997
  29.6819992   6.3524990  55.4459997  31.1589992   6.8374990  54.6019997
  30.8429992   4.6064990  54.6729997  31.5109992   4.4604990  53.7969997
  30.0049992   3.8934990  54.5209997  31.5729992   4.2504990  55.9859997
  31.0329992   4.6784990  56.8569997  32.5999992   4.6654990  56.0719997
  31.6909992   3.1484990  56.0709997  -0.6870008  68.2474990  53.9729997
  -1.7370008  68.5334990  53.7479997  -0.1220008  69.1264990  53.5959997
  -0.5350008  68.0874990  55.0619997  -0.3020008  67.0184990  53.1299997
   0.7479992  66.7824990  53.4079997  -0.9650008  66.1544990  53.3489997
  -0.2600008  67.2224990  51.5879997  -0.0810008  66.2294990  51.1219997
  -1.2910008  67.5144990  51.2929997   0.6789992  68.3204990  50.9589997
   0.2109992  68.6324990  49.9999997   0.7179992  69.2184990  51.6119997
   2.0699992  67.8344990  50.5659997   2.7089992  68.7344990  50.4379997
   2.4349992  67.3894990  51.5169997   2.1629992  66.9234990  49.2839997
   1.1749992  66.4324990  49.1579997   2.2729992  67.5934990  48.4049997
   3.3059992  65.9354990  49.3149997   4.2119992  66.5724990  49.3999997
   3.1459992  65.2754990  50.1949997   3.4539992  65.2044990  47.9539997
   2.4269992  64.8324990  47.7539997   3.8179992  65.8094990  47.0959997
   4.3229992  63.9824990  48.1259997   5.3199992  64.2304990  48.5489997
   3.8489992  63.3334990  48.8919997   4.4829992  63.1184990  46.8069997
   4.8889992  63.7704990  46.0039997   5.0919992  62.2734990  47.1939997
   3.1349992  62.5044990  46.3179997   2.8559992  61.7064990  47.0379997
   2.4149992  63.3444990  46.4149997   3.1049992  62.0524990  44.7899997
   3.4859992  62.8424990  44.1079997   3.7829992  61.1874990  44.6239997
   1.7519992  61.5304990  44.2489997   1.4029992  60.6614990  44.8479997
   1.0489992  62.3844990  44.3509997   1.6969992  61.0214990  42.8459997
   2.0209992  61.7404990  42.0649997   2.3569992  60.1304990  42.7799997
   0.3039992  60.4534990  42.4389997   0.3179992  59.7694990  41.5629997
  -0.0270008  59.7794990  43.2579997  -0.7350008  61.6604990  42.4179997
  -1.5120008  61.9964990  43.2779997  -0.7790008  62.0764990  41.1079997
  -1.5020008  63.2804990  40.7969997  -1.9520008  63.0104990  39.8169997
  -2.4130008  63.2234990  41.4289997  -0.6240008  64.5234990  40.6759997
  -1.2460008  65.3084990  40.1939997   0.6459992  64.1824990  39.8969997
   1.2399992  63.3854990  40.3929997   0.1859992  63.8434990  38.9429997
   1.5559992  65.2524990  39.7849997   2.3529992  65.1614990  38.4449997
   1.2629992  65.1894990  37.2889997   0.2539992  66.1484990  37.4269997
  -0.6090008  65.7984990  36.8219997  -0.1980008  66.2374990  38.4369997
   0.5649992  67.5564990  36.9019997  -0.1640008  68.2924990  37.2069997
   1.5209992  67.7884990  37.3469997   0.6879992  67.8384990  35.4089997
   1.8269992  66.9604990  34.9039997   2.2049992  67.4074990  33.9969997
   2.5329992  67.0124990  35.7189997   1.4479992  65.9514990  34.8279997
  -0.4800008  67.4834990  34.4659997  -0.8450008  66.4814990  34.6389997
  -1.2460008  68.2194990  34.6589997  -0.1270008  67.5584990  33.4479997
   1.1289992  69.3084990  35.1619997   1.8629992  69.5384990  35.9189997
   0.3149992  69.9774990  35.3989997   1.4919992  69.3854990  34.1479997
   3.2799992  66.3134990  38.2429997   3.0299992  63.8904990  38.4399997
  -0.2780008  65.0624990  41.9549997  -1.3810008  65.6124990  42.5899997
  -2.4910008  65.6724990  42.1379997  -0.9180008  66.1294990  43.9729997
  -0.4690008  67.1074990  43.6959997  -0.1580008  65.4244990  44.3719997
  -2.1520008  66.2064990  44.9789997  -3.0150008  66.7294990  44.5139997
  -1.8520008  66.9044990  45.7899997  -2.6250008  64.9234990  45.6829997
  -3.2330008  64.3214990  44.9749997  -3.3590008  65.1774990  46.4779997
  -1.5650008  64.0784990  46.2949997  -0.9600008  64.6854990  47.0029997
  -0.8510008  63.7294990  45.5189997  -2.0830008  62.8724990  47.0959997
  -2.5230008  62.1794990  46.3469997  -2.9530008  63.1664990  47.7219997
  -0.9340008  62.1664990  47.9199997  -0.0920008  61.9814990  47.2189997
  -1.3060008  61.2044990  48.3339997  -0.1280008  62.9824990  49.0169997
   0.2359992  63.9504990  48.6129997   0.7729992  62.3834990  49.2679997
  -0.9360008  63.2414990  50.2649997  -2.0230008  63.1964990  50.1019997
  -0.4800008  63.4364990  51.4699997  -1.3170008  63.4964990  52.1809997
   1.0119992  63.4144990  51.8459997   1.5299992  64.2284990  51.2939997
   1.5209992  62.4544990  51.6159997   1.2099992  63.6724990  53.3409997
   0.8869992  62.7924990  53.9379997   0.4409992  64.4524990  53.5309997
   2.6399992  63.9864990  53.7469997   2.9669992  64.7834990  53.0459997
   3.3499992  63.1324990  53.7169997   2.6499992  64.6834990  55.1209997
   2.3129992  63.8904990  55.8219997   1.9459992  65.5414990  55.1699997
   4.0979992  65.0984990  55.4539997   4.3339992  66.0864990  55.0039997
   4.8729992  64.4254990  55.0309997   4.3989992  65.1824990  56.9989997
   3.8819992  64.3094990  57.4519997   3.9929992  66.1194990  57.4379997
   5.8819992  64.9084990  57.3609997   6.5619992  65.7594990  57.1429997
   6.2299992  63.9864990  56.8489997   5.8969992  64.4784990  58.8199997
   5.1929992  63.6774990  59.1309997   5.6209992  65.3954990  59.3829997
   6.9059992  64.1184990  59.1119997  55.3909992 132.9304990  55.6099997
  55.7439992 132.8674990  54.5589997  55.9579992 132.2324990  56.2619997
  55.5949992 133.9464990  56.0129997  53.8669992 132.7114990  55.6839997
  53.6449992 131.6454990  55.4659997  53.5009992 132.9544990  56.7049997
  53.0369992 133.4504990  54.7309997  53.6499992 133.6174990  53.8199997
  52.1259992 132.8784990  54.4509997  52.6839992 134.8194990  55.2399997
  52.1139992 134.7234990  56.1879997  53.6319992 135.3744990  55.4099997
  51.8649992 135.6524990  54.3089997  52.0219992 136.7494990  54.3769997
  52.0869992 135.2154990  53.3119997  50.3109992 135.6144990  54.6309997
  49.8009992 134.6464990  54.4409997  50.0799992 135.7804990  55.7049997
  49.6139992 136.7214990  53.8179997  48.5369992 136.7744990  54.0859997
  49.9429992 137.7284990  54.1519997  49.8239992 136.6184990  52.2609997
  50.9019992 136.5094990  52.0159997  49.2319992 135.7224990  51.9749997
  49.2049992 137.6914990  51.3929997  48.1009992 137.7604990  51.2939997
  49.4669992 138.6784990  51.8279997  49.8879992 137.7244990  50.0009997
  49.5889992 138.7034990  49.5699997  50.9989992 137.7444990  50.0279997
  49.4029992 136.5894990  49.0509997  49.5679992 135.5944990  49.5159997
  48.3099992 136.6574990  48.8599997  50.3299992 136.5414990  47.8419997
  51.3439992 136.2184990  48.1599997  49.9669992 135.7954990  47.1019997
  50.5689992 137.9394990  47.0629997  49.5639992 138.3464990  46.8239997
  51.0979992 138.6574990  47.7259997  51.2749992 137.7484990  45.7399997
  52.1859992 137.1334990  45.8989997  50.6189992 137.1214990  45.0989997
  51.6829992 139.0684990  45.0709997  50.7619992 139.6384990  44.8219997
  52.2789992 139.6634990  45.7959997  52.5289992 138.8904990  43.8279997
  53.6509992 139.3994990  43.6519997  51.8739992 138.1204990  42.8959997
  52.6749992 137.7374990  41.8049997  51.8769992 137.2564990  41.2009997
  53.1039992 138.6284990  41.2979997  53.7249992 136.7054990  42.1509997
  54.5319992 137.0864990  42.8139997  54.4459992 136.1604990  40.8959997
  54.8099992 136.9434990  40.1969997  55.3369992 135.6024990  41.2539997
  53.6849992 135.2404990  40.1679997  53.0689992 135.4724990  38.6869997
  54.3469992 136.0284990  37.8829997  54.4469992 137.4224990  37.6679997
  54.0059992 137.8784990  38.5799997  55.5289992 137.6724990  37.6859997
  53.7429992 137.9514990  36.3779997  52.6629992 137.9434990  36.4019997
  54.0819992 138.9684990  36.2509997  54.2039992 137.2924990  35.0969997
  53.3849992 137.7504990  33.8479997  53.6759992 138.7454990  33.5449997
  53.6499992 137.0844990  33.0399997  52.3229992 137.7444990  34.0419997
  55.6659992 137.6424990  34.8609997  55.7329992 138.7144990  34.7489997
  56.1219992 137.3854990  35.8049997  55.9449992 136.9894990  34.0469997
  54.0239992 135.7874990  35.0969997  54.0229992 135.4264990  36.1149997
  54.8849992 135.3124990  34.6479997  53.1209992 135.4504990  34.6109997
  52.6679992 134.1444990  38.0809997  52.0849992 136.5414990  38.7049997
  53.0369992 135.6294990  42.9079997  53.8139992 134.9504990  43.6879997
  54.9689992 135.1724990  43.9799997  53.0999992 133.6154990  44.0109997
  52.8919992 133.1514990  43.0229997  52.1579992 133.7844990  44.5739997
  53.9309992 132.6124990  44.7839997  54.9129992 132.5264990  44.2729997
  53.4249992 131.6264990  44.7079997  54.1599992 132.9274990  46.2969997
  53.1339992 133.0324990  46.7099997  54.7289992 133.8664990  46.4659997
  54.9859992 131.8214990  47.0109997  55.9429992 131.5084990  46.5409997
  54.2889992 131.0094990  47.3099997  55.6019992 132.2674990  48.3699997
  56.2769992 133.0914990  48.0559997  56.0559992 131.3334990  48.7639997
  54.6499992 132.8414990  49.4389997  54.8439992 132.2174990  50.3379997
  53.5789992 132.6134990  49.2509997  54.6509992 134.3764990  49.8079997
  55.6599992 134.6774990  50.1649997  54.0619992 134.4144990  50.7479997
  53.9889992 135.3324990  48.8259997  53.1259992 134.8764990  48.3199997
  54.4339992 136.5014990  48.3729997  53.8369992 137.0144990  47.6039997
  55.7739992 137.0824990  48.7379997  56.4829992 137.1584990  47.8849997
  56.3099992 136.4914990  49.5109997  55.5129992 138.4664990  49.1959997
  54.9309992 139.0624990  48.4609997  56.5209992 138.9224990  49.3009997
  54.7949992 138.5094990  50.5209997  55.2559992 137.7144990  51.1459997
  53.7539992 138.1464990  50.3879997  54.7919992 139.8454990  51.2129997
  54.6789992 140.7644990  50.5989997  55.8389992 139.9044990  51.5809997
  53.9099992 140.0354990  52.3709997  52.8609992 140.0324990  52.0049997
  53.9839992 141.0784990  52.7439997  53.9929992 138.9334990  53.4829997
  53.9169992 137.9934990  52.8959997  53.1219992 139.0024990  54.1699997
  55.2959992 139.1294990  54.2989997  55.5529992 140.2104990  54.3209997
  56.1839992 138.6904990  53.7949997  55.1059992 138.6564990  55.7469997
  54.5239992 139.2724990  56.4649997  56.1009992 138.5704990  56.2359997
  54.7819992 137.5974990  55.8369997  87.9109992   2.6424990  55.2959997
  88.8489992   3.2044990  55.0969997  87.6879992   2.0514990  54.3829997
  88.1419992   1.9884990  56.1629997  86.6699992   3.4814990  55.6709997
  85.8839992   2.7394990  55.9289997  86.8489992   4.0324990  56.6189997
  86.2289992   4.4614990  54.6119997  85.1219992   4.5094990  54.5229997
  86.6199992   5.4804990  54.8179997  86.6389992   4.0634990  53.1939997
  87.7319992   3.8954990  53.0789997  86.1799992   3.0674990  53.0139997
  86.2569992   5.0414990  52.0919997  85.1719992   5.2794990  52.1069997
  86.8449992   5.9294990  52.4069997  86.6129992   4.4624990  50.6989997
  85.9119992   3.6054990  50.6019997  86.3599992   5.3354990  50.0589997
  88.1189992   4.2844990  50.4069997  88.7429992   5.0254990  50.9509997
  88.2849992   3.3224990  50.9369997  88.4879992   4.1664990  48.9649997
  88.6759992   5.2364990  48.7329997  89.4309992   3.5794990  48.9479997
  87.5199992   3.4384990  48.0539997  87.1599992   2.5704990  48.6459997
  86.7099992   4.1354990  47.7479997  88.1719992   2.7474990  46.7969997
  88.9639992   2.2004990  47.3529997  87.4579992   2.0114990  46.3709997
  88.8739992   3.6304990  45.7589997  88.2939992   4.4974990  45.3779997
  89.6569992   4.1094990  46.3849997  89.5339992   2.8554990  44.6349997
  90.1159992   3.5684990  44.0129997  90.1899992   2.0104990  44.9379997
  88.4869992   2.2304990  43.7509997  87.9529992   1.3794990  44.2259997
  87.6969992   2.9394990  43.4229997  89.0859992   1.7014990  42.4299997
  89.3649992   2.5414990  41.7569997  89.9539992   1.0404990  42.6359997
  88.1569992   0.6764990  41.6999997  87.8369992  -0.1265010  42.3969997
  87.1939992   1.1734990  41.4529997  88.8359992   0.2364990  40.4439997
  89.9839992   0.3144990  40.1409997  87.8879992  -0.2585010  39.6749997
  88.2869992  -0.4885010  38.3529997  89.3229992  -0.2205010  38.0529997
  88.4639992  -1.5765010  38.2169997  87.2119992  -0.0365010  37.3689997
  87.6609992  -0.3915010  36.4169997  86.9109992   1.4354990  37.2039997
  87.8479992   1.7744990  36.7129997  86.0609992   1.5804990  36.5039997
  86.8149992   1.9094990  38.4889997  87.0549992   3.4664990  38.7499997
  86.1479992   4.0534990  37.5959997  84.7159992   3.9784990  37.6829997
  84.3699992   3.3604990  38.5389997  84.3329992   5.0134990  37.8179997
  84.0769992   3.4924990  36.3499997  84.4879992   2.5174990  36.1329997
  83.0059992   3.4214990  36.4759997  84.3509992   4.2194990  35.1309997
  85.8489992   4.0684990  34.8409997  86.1029992   3.2744990  34.1549997
  86.1559992   4.9154990  34.2459997  86.3739992   4.0084990  35.7829997
  83.6019992   3.5594990  34.0099997  83.9719992   3.8014990  33.0239997
  83.8289992   2.5204990  34.2009997  82.5619992   3.8264990  34.1279997
  83.9939992   5.6554990  35.2059997  84.3559992   6.2334990  34.3689997
  84.3629992   6.0204990  36.1529997  82.9219992   5.7744990  35.2599997
  86.4409992   3.8524990  39.9889997  88.4289992   3.8994990  38.4259997
  86.0929992  -0.8015010  37.7409997  85.0029992  -0.8555010  36.8929997
  85.0449992  -0.5465010  35.7349997  83.7309992  -1.2255010  37.5889997
  83.8969992  -1.8805010  38.4709997  83.0499992  -1.7555010  36.8889997
  83.0269992   0.0344990  38.0949997  82.0199992  -0.2515010  38.4659997
  82.8719992   0.7314990  37.2429997  83.5729992   0.8384990  39.3199997
  82.8969992   1.6414990  39.6829997  84.4769992   1.4224990  39.0449997
  83.8389992  -0.0605010  40.5319997  84.6739992  -0.7855010  40.4219997
  82.9519992  -0.6875010  40.7669997  84.3259992   0.6784990  41.8059997
  83.3619992   1.1094990  42.1499997  85.0089992   1.5464990  41.6799997
  84.8369992  -0.1865010  42.8939997  85.7989992  -0.6455010  42.5809997
  84.0229992  -0.9235010  43.0629997  85.0719992   0.6044990  44.2379997
  85.7199992   1.4734990  43.9949997  85.7679992  -0.0865010  44.7599997
  83.7339992   0.8344990  44.9249997  82.9399992   1.3544990  44.3699997
  83.5209992   0.6024990  46.2339997  82.4919992   0.6524990  46.6179997
  84.4719992   0.0884990  47.2859997  85.5209992   0.2244990  46.9429997
  84.4299992  -1.0155010  47.4069997  84.2769992   0.6404990  48.6999997
  83.1889992   0.5314990  48.8939997  84.5629992   1.7134990  48.7309997
  85.0369992  -0.1375010  49.8239997  86.0929992   0.1644990  49.6589997
  84.8059992  -1.2235010  49.8409997  84.6679992   0.3374990  51.2579997
  83.8039992  -0.2975010  51.5509997  84.3579992   1.4014990  51.3389997
  85.8279992   0.2074990  52.2939997  86.5079992   1.0704990  52.1309997
  86.2689992  -0.7895010  52.0799997  85.4159992   0.0704990  53.7909997
  84.9709992   1.0454990  54.0829997  86.3869992  -0.0245010  54.3239997
  84.5969992  -1.0685010  54.2799997  83.6189992  -1.0965010  53.7539997
  84.2819992  -0.8685010  55.3259997  85.3299992  -2.4285010  54.1829997
  85.8449992  -2.6115010  53.2159997  84.6549992  -3.2915010  54.3669997
  86.0609992  -2.4655010  55.0189997 134.7559992  25.2454990  53.2319997
 135.2689992  24.4254990  52.6849997 133.9709992  24.8484990  53.9109997
 135.4829992  25.7614990  53.8959997 134.2129992  26.2094990  52.2179997
 135.0429992  26.6254990  51.6079997 133.6129992  25.6144990  51.4969997
 133.3789992  27.3174990  52.8739997 132.6239992  26.9844990  53.6179997
 133.9499992  28.0144990  53.5249997 132.6909992  28.2534990  51.8489997
 132.0349992  27.6534990  51.1839997 132.0869992  28.9764990  52.4379997
 133.6809992  29.0474990  50.9529997 134.3339992  29.6364990  51.6319997
 134.2519992  28.2794990  50.3879997 133.2149992  29.9724990  49.7979997
 132.5089992  30.7224990  50.2129997 134.0329992  30.4534990  49.2199997
 132.4699992  29.2054990  48.6019997 133.1239992  28.4984990  48.0479997
 131.6479992  28.6224990  49.0709997 131.8739992  30.1864990  47.5779997
 130.9809992  30.6904990  48.0069997 132.6019992  30.9774990  47.2969997
 131.4579992  29.4324990  46.2619997 132.2899992  28.7154990  46.0909997
 130.5939992  28.8564990  46.6579997 131.0809992  30.1884990  44.9939997
 130.3749992  29.5174990  44.4609997 130.7159992  31.2134990  45.2219997
 132.2919992  30.3804990  44.0449997 132.5769992  29.3534990  43.7339997
 131.9789992  30.9814990  43.1649997 133.5199992  31.2754990  44.4659997
 133.1409992  32.3034990  44.6489997 133.9869992  30.9144990  45.4069997
 134.6799992  31.2364990  43.4519997 134.3179992  31.7494990  42.5349997
 135.4979992  31.7394990  44.0099997 135.1689992  29.8024990  43.0179997
 135.0699992  29.2124990  43.9549997 134.4779992  29.4204990  42.2359997
 136.6239992  29.7564990  42.5419997 136.6249992  30.3654990  41.6119997
 137.3709992  30.1804990  43.2459997 137.0069992  28.3344990  42.2699997
 136.7309992  27.3674990  42.9319997 137.7649992  28.3324990  41.2559997
 138.3589992  27.1164990  40.7399997 139.3419992  27.2404990  40.2379997
 138.5229992  26.3334990  41.5109997 137.4659992  26.5214990  39.5879997
 137.9389992  25.5514990  39.3239997 137.3109992  27.4664990  38.4029997
 138.2729992  27.9264990  38.0939997 136.9369992  26.7374990  37.6529997
 136.3369992  28.4624990  38.6929997 135.6899992  29.3434990  37.5899997
 134.6219992  28.2774990  36.9419997 133.6159992  27.7694990  37.7719997
 133.5099992  26.7004990  37.4889997 133.8459992  27.7804990  38.8589997
 132.2819992  28.5784990  37.5659997 131.5769992  28.0154990  38.1599997
 132.4669992  29.5814990  37.9209997 131.7059992  28.6334990  36.1299997
 132.5199992  29.6574990  35.3039997 133.5419992  29.3164990  35.2289997
 132.0129992  29.7014990  34.3519997 132.4459992  30.5764990  35.8669997
 131.6239992  27.2904990  35.4349997 132.5839992  26.8394990  35.2329997
 131.0489992  26.5314990  35.9429997 131.0429992  27.5354990  34.5579997
 130.3089992  29.2324990  36.1849997 130.3699992  30.2654990  36.4929997
 129.6479992  28.6584990  36.8179997 129.7989992  29.2454990  35.2329997
 134.9939992  30.4124990  38.2409997 136.7039992  29.7084990  36.6159997
 136.2059992  26.2404990  40.1709997 135.4179992  25.3814990  39.5629997
 135.7019992  24.6244990  38.6319997 134.0219992  25.3134990  40.2299997
 133.3079992  25.4024990  39.3839997 133.9969992  26.2454990  40.8349997
 133.8289992  23.9534990  40.9669997 134.2039992  23.0994990  40.3639997
 132.7549992  23.7954990  41.2029997 134.4629992  23.7984990  42.3599997
 135.5479992  24.0064990  42.2419997 134.3169992  22.7324990  42.6359997
 133.9089992  24.7834990  43.3799997 132.9129992  24.3584990  43.6299997
 133.9289992  25.8294990  43.0049997 134.7949992  24.8204990  44.6639997
 135.8469992  24.8694990  44.3089997 134.5529992  23.9064990  45.2479997
 134.4519992  26.0674990  45.5099997 133.3599992  25.9844990  45.6939997
 134.6279992  27.0434990  45.0089997 135.1499992  25.9284990  46.8799997
 134.8999992  24.9184990  47.2689997 134.6869992  26.5834990  47.6499997
 136.6289992  25.9764990  46.6349997 137.0079992  25.3294990  45.8309997
 137.5689992  26.7724990  47.1919997 138.6079992  26.6174990  46.8659997
 137.3929992  27.9154990  48.2029997 136.3469992  28.2784990  48.2999997
 138.0279992  28.8044990  48.0019997 137.9519992  27.4174990  49.5729997
 139.0429992  27.2114990  49.5319997 137.4039992  26.4664990  49.7489997
 137.6269992  28.1944990  50.8349997 137.6129992  27.6404990  51.7979997
 136.6149992  28.6284990  50.6839997 138.6749992  29.2854990  51.1729997
 138.8499992  29.7364990  50.1729997 139.5949992  28.7734990  51.5299997
 138.2389992  30.3694990  52.2019997 139.0929992  31.0574990  52.3779997
 138.0289992  29.6604990  53.0319997 137.0839992  31.3024990  51.7269997
 136.2269992  30.7344990  51.3049997 137.6029992  31.8444990  50.9069997
 136.4489992  32.2564990  52.7979997 135.5579992  32.6124990  52.2389997
 137.2089992  33.0604990  52.9069997 135.9969992  31.6024990  54.1139997
 135.2689992  30.8234990  53.8019997 135.6259992  32.4104990  54.7809997
 136.8509992  31.0944990  54.6119997  -0.4370008  56.9024990  56.1989997
  -0.0340008  57.7544990  56.7869997  -0.9770008  56.2044990  56.8739997
  -1.0370008  57.2384990  55.3259997   0.7719992  56.0784990  55.6399997
   1.3679992  55.7054990  56.4999997   0.3589992  55.1354990  55.2219997
   1.6569992  56.9334990  54.6369997   1.0219992  57.2854990  53.7959997
   2.1319992  57.7224990  55.2589997   2.7559992  55.9734990  54.0869997
   3.4239992  56.5574990  53.4199997   3.4269992  55.6884990  54.9259997
   2.3039992  54.6504990  53.4609997   3.0549992  53.9344990  53.0639997
   1.8249992  54.0324990  54.2499997   1.2289992  54.6604990  52.3979997
   0.9439992  53.6014990  52.2209997   0.3059992  55.1614990  52.7609997
   1.7889992  55.2454990  51.0649997   1.7969992  56.3464990  51.2109997
   2.8129992  54.8564990  50.8749997   0.9469992  54.9584990  49.8539997
  -0.1450008  54.9724990  50.0569997   1.1359992  55.7254990  49.0719997
   1.0679992  53.5334990  49.2179997   0.9659992  52.7734990  50.0229997
   0.2059992  53.5004990  48.5179997   2.4099992  53.2394990  48.4669997
   3.1849992  53.9064990  48.9029997   2.6809992  52.1724990  48.6139997
   2.4059992  53.5894990  46.9859997   1.8589992  54.5274990  46.7499997
   3.4589992  53.7124990  46.6549997   1.7929992  52.5554990  45.9819997
   2.3649992  51.6224990  46.1719997   0.7399992  52.2054990  46.0349997
   1.9599992  52.9534990  44.4949997   2.9939992  52.7644990  44.1339997
   1.3449992  52.2974990  43.8419997   1.6159992  54.4024990  44.0789997
   0.5439992  54.6394990  44.2479997   2.1659992  55.2294990  44.5779997
   1.8239992  54.7134990  42.5219997   1.7339992  55.7944990  42.2839997
   2.8249992  54.3194990  42.2419997   0.8659992  54.0404990  41.5829997
   0.9679992  52.9364990  41.1409997  -0.1810008  54.8594990  41.4639997
  -1.2790008  54.4594990  40.6029997  -1.2870008  53.3824990  40.3309997
  -2.2320008  54.5984990  41.1569997  -1.2240008  55.3084990  39.2829997
  -2.1090008  55.1354990  38.6349997  -0.0620008  54.9324990  38.2809997
   0.2379992  53.8634990  38.3129997  -0.4780008  55.1464990  37.2729997
   1.0899992  55.8144990  38.5319997   2.4069992  55.7334990  37.6909997
   2.2219992  56.7544990  36.5019997   1.0319992  56.8154990  35.7039997
   1.3649992  57.0994990  34.6829997   0.6549992  55.7744990  35.6149997
   0.0439992  57.8334990  36.1749997  -0.7160008  58.0144990  35.4289997
  -0.4110008  57.4554990  37.0779997   0.4959992  59.3014990  36.4859997
   1.3509992  59.3044990  37.7089997   0.7609992  58.9724990  38.5499997
   2.2209992  58.6784990  37.5749997   1.7989992  60.2814990  37.8089997
   1.2559992  59.6874990  35.2879997   0.6989992  59.7804990  34.3679997
   1.6929992  60.6464990  35.5249997   2.0109992  58.9594990  35.0329997
  -0.6300008  60.2504990  36.6659997  -0.3830008  61.3014990  36.6879997
  -1.1770008  60.0624990  37.5779997  -1.3930008  60.1304990  35.9109997
   3.4849992  56.1734990  38.5939997   2.5379992  54.4324990  37.1239997
  -1.0610008  56.6594990  39.5679997  -1.9440008  57.3844990  40.2409997
  -3.1620008  57.2604990  40.2799997  -1.2400008  58.6934990  40.8259997
  -1.7890008  59.6104990  40.5209997  -0.1600008  58.8214990  40.5999997
  -1.2500008  58.5364990  42.3539997  -0.7390008  57.5964990  42.6539997
  -2.2810008  58.4844990  42.7649997  -0.4020008  59.6584990  43.0089997
  -0.5170008  60.4754990  42.2649997   0.6799992  59.4074990  42.9689997
  -0.9220008  59.9484990  44.4709997  -2.0120008  60.1514990  44.5369997
  -0.4510008  60.9104990  44.7669997  -0.5230008  58.9324990  45.5259997
   0.5839992  58.8524990  45.4609997  -0.9290008  57.9204990  45.3159997
  -1.1020008  59.3354990  46.9159997  -1.2230008  60.4404990  46.9199997
  -0.4210008  59.1344990  47.7709997  -2.4170008  58.6914990  47.1569997
  -2.9470008  58.7024990  46.1809997  -3.0710008  59.3634990  47.7529997
  -2.4400008  57.3234990  47.7969997  -2.3640008  56.5234990  47.0459997
  -2.5220008  57.0684990  49.0829997  -2.7120008  56.0914990  49.5509997
  -2.6530008  58.1494990  50.1049997  -3.1590008  57.7174990  50.9949997
  -3.4310008  58.8664990  49.7669997  -1.5110008  58.9174990  50.7499997
  -0.9760008  59.5444990  50.0039997  -0.8580008  58.1654990  51.2419997
  -2.0160008  59.8504990  51.8429997  -2.3680008  59.2194990  52.6869997
  -2.9080008  60.4054990  51.4829997  -1.0260008  60.8654990  52.5169997
  -1.4310008  61.2564990  53.4749997  -0.9770008  61.7864990  51.8979997
   0.3869992  60.3444990  52.5309997   0.6469992  60.2424990  51.4559997
   0.5129992  59.3234990  52.9479997   1.3129992  61.2794990  53.2909997
   0.8539992  62.2904990  53.2779997   2.3179992  61.3354990  52.8199997
   1.4719992  60.8504990  54.7919997   2.3219992  60.1364990  54.8459997
   0.5299992  60.3844990  55.1499997   1.7099992  62.1184990  55.5789997
   1.7879992  62.0344990  56.6839997   1.0469992  62.9924990  55.3999997
   2.6939992  62.5214990  55.2549997  25.4709992  10.1954990  58.8109997
  25.5179992  10.9404990  57.9889997  26.3999992  10.3674990  59.3939997
  24.6819992  10.5154990  59.5259997  25.3839992   8.8594990  58.1109997
  25.3169992   8.0504990  58.8689997  24.4059992   8.8864990  57.5859997
  26.4279992   8.5314990  56.9969997  27.4379992   8.5674990  57.4589997
  26.2909992   7.4954990  56.6199997  26.4579992   9.4744990  55.8309997
  25.4449992   9.5034990  55.3769997  26.6319992  10.5134990  56.1849997
  27.6329992   9.1734990  54.8729997  28.0199992  10.1044990  54.4049997
  28.4799992   8.7944990  55.4839997  27.1789992   8.0674990  53.8389997
  26.5479992   7.2534990  54.2559997  26.6129992   8.7444990  53.1629997
  28.2699992   7.4554990  52.9419997  28.8569992   8.3454990  52.6279997
  28.8939992   6.7384990  53.5179997  27.6659992   6.7584990  51.7619997
  27.1939992   7.5234990  51.1089997  28.4469992   6.2154990  51.1879997
  26.5729992   5.6664990  52.1739997  26.9999992   5.0574990  52.9989997
  25.5919992   6.1374990  52.3979997  26.3669992   4.5734990  51.0809997
  27.3789992   4.1164990  51.0359997  25.6459992   3.8574990  51.5299997
  25.9459992   4.9424990  49.6949997  24.9059992   5.3244990  49.7859997
  26.4969992   5.8154990  49.2869997  26.0269992   3.6624990  48.7379997
  27.0039992   3.1944990  48.9829997  25.2069992   2.9564990  48.9919997
  25.9839992   4.0594990  47.1619997  26.7919992   4.8104990  47.0269997
  26.2179992   3.1224990  46.6119997  24.7419992   4.7394990  46.6499997
  23.8119992   4.1534990  46.8119997  24.4919992   5.5974990  47.3089997
  24.8169992   5.1974990  45.1739997  25.7179992   5.8014990  44.9359997
  24.8819992   4.3144990  44.5019997  23.6439992   6.0144990  44.7499997
  22.6219992   6.1394990  45.4129997  23.8039992   6.4734990  43.5729997
  22.7099992   7.3004990  42.9619997  22.1189992   6.6224990  42.3099997
  22.0639992   7.7914990  43.7209997  23.1919992   8.4164990  42.0729997
  22.2989992   9.0404990  41.8559997  23.8239992   7.8684990  40.8359997
  24.5819992   7.1124990  41.1319997  22.9449992   7.3694990  40.3749997
  24.3269992   8.9204990  39.9899997  25.2759992   8.5574990  38.8139997
  24.2029992   8.1664990  37.7389997  23.1189992   8.9914990  37.4079997
  22.3929992   8.3114990  36.9139997  22.6119992   9.4474990  38.2849997
  23.5349992  10.1724990  36.4569997  22.6919992  10.8484990  36.4749997
  24.3149992  10.7834990  36.8859997  23.8619992   9.9084990  34.9979997
  24.0429992  11.1984990  34.2459997  23.1629992  11.8194990  34.1729997
  24.5569992  11.7964990  34.9839997  24.5569992  11.0394990  33.3099997
  25.2119992   9.1934990  35.0249997  25.2049992   8.4094990  35.7689997
  25.5489992   8.8574990  34.0559997  25.9459992   9.9334990  35.3069997
  22.7419992   9.0594990  34.3519997  23.0399992   8.9124990  33.3249997
  21.8249992   9.6294990  34.3539997  22.4219992   8.2094990  34.9359997
  25.8779992   9.7984990  38.2629997  26.2439992   7.5264990  39.1809997
  24.2209992   9.2734990  42.6539997  23.9169992   9.8954990  43.7539997
  22.8369992  10.0294990  44.2409997  25.3139992  10.0634990  44.4359997
  25.9529992  10.7214990  43.8099997  25.7579992   9.0694990  44.6599997
  25.2659992  10.8204990  45.7449997  24.3979992  10.4294990  46.3169997
  25.1449992  11.8564990  45.3629997  26.5959992  10.8104990  46.4749997
  26.4339992  11.5334990  47.3029997  27.4109992  11.2444990  45.8569997
  26.9869992   9.4274990  47.0399997  27.8819992   9.7474990  47.6149997
  27.2879992   8.7534990  46.2089997  26.0029992   8.6624990  47.8689997
  26.5439992   7.8024990  48.3199997  25.1249992   8.2474990  47.3299997
  25.3799992   9.4434990  49.0429997  24.9119992  10.3834990  48.6829997
  26.2319992   9.7034990  49.7069997  24.2639992   8.6054990  49.7929997
  24.0399992   9.2284990  50.6839997  24.6849992   7.7054990  50.2909997
  22.9099992   8.4614990  49.1149997  22.7299992   8.9394990  48.1399997
  21.8299992   7.8434990  49.5839997  20.9299992   7.7034990  48.9679997
  21.7369992   7.1734990  50.9099997  22.7339992   7.1074990  51.3959997
  21.3239992   6.1454990  50.8189997  20.8999992   8.0144990  51.8679997
  19.8809992   7.9824990  51.4279997  21.2479992   9.0684990  51.9259997
  20.7029992   7.2984990  53.2739997  20.3019992   6.2694990  53.1469997
  19.9189992   7.9234990  53.7529997  21.9599992   7.2244990  54.1689997
  22.7239992   6.5644990  53.7059997  21.4979992   6.7874990  55.0799997
  22.7139992   8.5154990  54.4409997  23.5369992   8.5604990  53.6969997
  23.3349992   8.3164990  55.3399997  21.8629992   9.7424990  54.8289997
  21.2339992   9.5844990  55.7309997  21.1859992  10.1634990  54.0539997
  22.8549992  10.8134990  55.1769997  23.5509992  11.0564990  54.3459997
  23.5679992  10.6214990  56.0079997  22.2019992  12.2184990  55.4239997
  22.9369992  12.9974990  55.7179997  21.5629992  12.0284990  56.3129997
  21.5759992  12.6464990  54.6109997   0.6939992  75.3354990  56.5339997
   1.5739992  75.3174990  57.2119997  -0.2720008  75.3164990  57.0829997
   0.9119992  76.1954990  55.8659997   0.6639992  74.0314990  55.6269997
   0.5119992  73.1164990  56.2379997  -0.2240008  74.1214990  54.9659997
   1.8759992  73.7284990  54.7269997   1.8779992  74.6074990  54.0479997
   2.8209992  73.7334990  55.3119997   1.7559992  72.4324990  53.9679997
   1.9159992  71.5844990  54.6669997   0.7379992  72.4004990  53.5229997
   2.7109992  72.2284990  52.6799997   3.7219992  72.1354990  53.1299997
   2.4339992  71.2654990  52.1999997   2.6719992  73.3234990  51.6739997
   1.6219992  73.6274990  51.4749997   3.1899992  74.2054990  52.1069997
   3.4579992  73.0494990  50.3449997   3.1299992  72.0404990  50.0129997
   3.0549992  73.8104990  49.6439997   4.9779992  73.2284990  50.3749997
   5.2209992  74.0654990  51.0639997   5.3899992  72.4694990  51.0749997
   5.7599992  73.4334990  49.0779997   6.8089992  73.5114990  49.4349997
   5.4719992  72.6344990  48.3619997   5.4219992  74.7664990  48.4119997
   4.5089992  74.7104990  47.7819997   5.3149992  75.6204990  49.1139997
   6.4789992  75.0894990  47.3419997   7.4789992  75.0464990  47.8249997
   6.3169992  74.2864990  46.5919997   6.3299992  76.4374990  46.5619997
   5.3299992  76.6364990  46.1209997   6.4939992  77.2394990  47.3129997
   7.2779992  76.6574990  45.3799997   7.1159992  77.7194990  45.0969997
   8.3179992  76.6454990  45.7729997   7.0029992  75.8574990  44.0479997
   7.2059992  74.7664990  44.1049997   5.9379992  76.1524990  43.9339997
   7.9129992  76.5014990  42.9599997   8.1979992  77.5474990  43.2009997
   8.9089992  76.0124990  42.9059997   7.2029992  76.5934990  41.5599997
   6.1339992  77.2844990  41.5689997   7.6809992  75.8014990  40.5849997
   7.1749992  76.1074990  39.2779997   6.6959992  77.1104990  39.2649997
   8.0479992  76.1734990  38.5929997   6.0869992  75.1064990  38.8069997
   6.6469992  74.1854990  38.5349997   5.2969992  75.6454990  37.5949997
   4.8389992  76.6214990  37.8649997   5.8509992  75.8664990  36.6569997
   4.2969992  74.6894990  37.3839997   3.0459992  74.9874990  36.3869997
   1.8479992  74.3244990  37.1279997   1.2339992  74.7314990  38.2859997
   0.8289992  73.8004990  38.7369997   1.9889992  75.2204990  38.9379997
   0.0209992  75.7434990  38.1249997  -0.3530008  75.7144990  39.1379997
   0.4779992  76.6464990  37.7489997  -1.0980008  75.2934990  37.1989997
  -0.6040008  75.3944990  35.7519997   0.2359992  74.7394990  35.5759997
  -1.3450008  75.1184990  35.0169997  -0.2890008  76.4274990  35.7629997
  -1.4330008  73.8424990  37.4949997  -2.2650008  73.4114990  36.9579997
  -0.4990008  73.3454990  37.2739997  -1.6200008  73.6554990  38.5419997
  -2.3070008  76.0874990  37.3109997  -2.7940008  76.0354990  38.2729997
  -3.0230008  75.8044990  36.5539997  -1.8710008  77.0514990  37.0929997
   2.7289992  76.4654990  36.3629997   3.2709992  74.3744990  35.0429997
   5.0959992  74.8744990  39.8639997   4.6959992  73.7014990  40.2109997
   5.0569992  72.6254990  39.7319997   3.9249992  73.7104990  41.4939997
   3.1709992  72.9094990  41.3399997   3.5159992  74.7294990  41.6619997
   4.8679992  73.3624990  42.6879997   5.7859992  73.9874990  42.6839997
   5.1259992  72.3024990  42.4779997   4.1329992  73.4364990  44.0329997
   3.6869992  74.4404990  44.2019997   4.9329992  73.1564990  44.7509997
   2.9609992  72.4614990  44.0739997   3.3619992  71.4254990  44.0549997
   2.2789992  72.5014990  43.1979997   2.0189992  72.6814990  45.2849997
   1.3319992  73.5454990  45.1599997   2.6999992  72.9814990  46.1099997
   1.3349992  71.3754990  45.7319997   2.1139992  70.6304990  45.9979997
   0.8009992  70.9704990  44.8459997   0.2889992  71.5804990  46.8599997
   0.7859992  71.9584990  47.7789997  -0.0810008  70.5704990  47.1399997
  -0.8800008  72.4914990  46.5579997  -1.8670008  72.0574990  46.3409997
  -0.9220008  73.7574990  46.7809997  -1.8940008  74.2724990  46.7719997
   0.1359992  74.7084990  47.3459997   0.1809992  75.5384990  46.6089997
   1.1829992  74.3744990  47.5089997  -0.2650008  75.3224990  48.6989997
  -0.7070008  74.5174990  49.3249997  -1.1960008  75.8624990  48.4219997
   0.6169992  76.2324990  49.4149997   0.8939992  77.1214990  48.8079997
   1.6379992  75.8054990  49.5089997   0.0979992  76.6794990  50.8529997
  -0.0490008  75.7924990  51.5059997  -0.8940008  77.0984990  50.5799997
   0.8819992  77.7714990  51.5959997   0.2599992  78.1334990  52.4429997
   1.0739992  78.6464990  50.9389997   2.2299992  77.2974990  52.1299997
   3.0789992  77.6164990  51.4889997   2.2029992  76.1884990  52.2029997
   2.4119992  77.7254990  53.5889997   1.6079992  77.1844990  54.1309997
   2.2139992  78.8154990  53.6699997   3.7849992  77.2934990  54.0919997
   3.9309992  76.2224990  53.8339997   3.8129992  77.4354990  55.1939997
   4.5939992  77.8974990  53.6289997 134.7019992 102.6984990  54.6609997
 134.9619992 101.8324990  55.3069997 133.6279992 102.8594990  54.4279997
 134.9669992 103.6414990  55.1849997 135.4439992 102.5344990  53.3109997
 136.5409992 102.4264990  53.4459997 135.0549992 101.5464990  52.9829997
 135.3469992 103.5784990  52.1439997 134.2489992 103.5274990  51.9809997
 135.6529992 104.5984990  52.4619997 136.1539992 103.3454990  50.8579997
 135.9609992 104.1474990  50.1129997 137.2169992 103.3004990  51.1779997
 135.7879992 102.0184990  50.1709997 134.7739992 101.7494990  50.5369997
 135.7909992 102.1754990  49.0709997 136.7199992 100.7664990  50.2959997
 136.5339992 100.1724990  51.2169997 136.4889992 100.0034990  49.5219997
 138.2309992 100.9744990  50.0899997 138.3899992 101.3434990  49.0539997
 138.5909992 101.8414990  50.6839997 139.0019992  99.6184990  50.2809997
 138.9929992  99.3334990  51.3549997 138.3949992  98.8074990  49.8249997
 140.3839992  99.3714990  49.7789997 141.0709992  99.9484990  50.4339997
 140.5929992  98.2834990  49.8629997 140.5779992  99.8164990  48.3539997
 140.5839992 100.9244990  48.2769997 141.6219992  99.5074990  48.1299997
 139.6499992  99.1954990  47.2769997 139.7799992  98.0924990  47.2699997
 138.5809992  99.2244990  47.5779997 139.7299992  99.8704990  45.8909997
 139.5859992 100.9664990  46.0109997 140.7619992  99.8614990  45.4789997
 138.7799992  99.2834990  44.7839997 138.7679992  98.1764990  44.8859997
 137.7899992  99.6924990  45.0769997 139.0389992  99.6174990  43.3679997
 140.0529992  99.2654990  43.0799997 138.4099992  99.0524990  42.6469997
 138.9859992 101.0554990  43.0139997 139.4619992 101.6794990  43.7999997
 139.6509992 101.2944990  42.1559997 137.6029992 101.5664990  42.8429997
 137.0189992 102.1514990  43.7579997 137.0159992 101.1014990  41.7389997
 135.8179992 101.6294990  41.2849997 135.2209992 100.8154990  40.8209997
 135.2409992 102.0384990  42.1419997 136.1629992 102.6504990  40.1859997
 135.2269992 102.9834990  39.6889997 136.9649992 101.9564990  39.0319997
 137.6989992 101.2394990  39.4569997 136.3019992 101.3294990  38.3979997
 137.6229992 102.9634990  38.2789997 137.2239992 103.1174990  36.7469997
 138.2089992 102.0614990  36.0799997 139.6249992 102.0884990  36.3199997
 140.1889992 102.0604990  35.3639997 139.9749992 103.1094990  36.5809997
 140.2109992 101.0834990  37.3249997 141.2899992 101.1064990  37.3449997
 139.8819992 101.3844990  38.3079997 139.8319992  99.5854990  37.2099997
 140.3189992  99.0594990  35.8839997 140.1529992  97.9974990  35.9869997
 139.6799992  99.5574990  35.1699997 141.3969992  99.0474990  35.8299997
 140.3779992  98.7894990  38.3149997 140.0819992  97.7514990  38.3649997
 141.4549992  98.7584990  38.2339997 140.1169992  99.1754990  39.2889997
 138.3789992  99.4214990  37.3489997 138.2149992  98.3594990  37.4609997
 137.9909992  99.8624990  36.4439997 137.9579992  99.8984990  38.2209997
 135.7749992 102.7524990  36.6209997 137.6299992 104.5004990  36.3429997
 136.9839992 103.7474990  40.8259997 136.7349992 105.0034990  40.2779997
 135.8709992 105.2744990  39.5359997 137.8249992 106.0324990  40.5969997
 137.2289992 106.9424990  40.8229997 138.5549992 106.1204990  39.7649997
 138.5159992 105.7344990  41.9719997 139.1739992 106.5814990  42.2619997
 139.1439992 104.8424990  41.7599997 137.5199992 105.6214990  43.1649997
 136.9219992 104.7244990  42.8969997 137.0029992 106.6024990  43.2449997
 138.2199992 105.2404990  44.5489997 138.9189992 105.9974990  44.9639997
 138.6999992 104.2464990  44.4239997 137.1269992 105.0704990  45.5709997
 136.1979992 104.6494990  45.1309997 136.8579992 106.0284990  46.0659997
 137.6159992 104.0464990  46.6839997 138.2999992 103.2914990  46.2419997
 136.7599992 103.4344990  47.0389997 138.1189992 104.6314990  48.0309997
 138.3429992 103.7254990  48.6329997 137.2149992 105.1384990  48.4319997
 139.3639992 105.4984990  47.9999997 139.0869992 106.5624990  47.9869997
 140.6809992 105.1304990  47.9139997 141.4449992 105.9224990  47.9409997
 141.2339992 103.7354990  47.9369997 141.9959992 103.7424990  47.1289997
 140.5019992 102.9264990  47.7259997 142.0229992 103.4444990  49.2199997
 142.6759992 104.3084990  49.4679997 142.6629992 102.5514990  49.0539997
 141.0859992 103.3964990  50.4539997 140.2099992 102.7424990  50.2579997
 140.8069992 104.4444990  50.6949997 141.7059992 102.8574990  51.7469997
 141.9949992 103.7884990  52.2799997 142.5479992 102.1444990  51.6149997
 140.6219992 102.3354990  52.6799997 140.3489992 101.3064990  52.3599997
 139.7049992 102.9594990  52.7489997 141.1049992 102.3624990  54.1579997
 141.5989992 103.3244990  54.4129997 141.8699992 101.5664990  54.0349997
 140.0979992 101.7104990  55.1329997 140.5969992 101.2674990  56.0219997
 139.4949992 100.9774990  54.5549997 139.1159992 102.7534990  55.7419997
 139.7529992 103.4864990  56.2799997 138.3489992 102.2724990  56.3859997
 138.5899992 103.2174990  54.8799997   7.5219992  96.5924990  58.6029997
   8.5409992  97.0334990  58.5539997   7.6259992  95.5674990  58.1879997
   7.2859992  96.4944990  59.6839997   6.4209992  97.3894990  57.9609997
   6.1049992  96.8884990  57.0209997   5.6089992  97.3504990  58.7189997
   6.5839992  98.9334990  57.9629997   5.6849992  99.4234990  58.3949997
   7.4119992  99.2274990  58.6429997   6.8279992  99.6264990  56.5799997
   7.8279992  99.5854990  56.0979997   6.1049992  99.2204990  55.8399997
   6.5659992 101.1584990  56.5889997   5.4719992 101.2864990  56.7269997
   7.1479992 101.5634990  57.4439997   7.0679992 101.8834990  55.3619997
   6.8439992 102.9674990  55.4539997   8.1669992 101.8234990  55.5129997
   6.4629992 101.4404990  54.0159997   6.4869992 100.3294990  54.0189997
   5.3819992 101.6934990  53.9849997   7.1929992 102.0034990  52.8209997
   7.2479992 103.0994990  52.9939997   8.2749992 101.7704990  52.9219997
   6.5819992 101.7444990  51.4399997   5.5409992 101.3824990  51.5829997
   6.5029992 102.7464990  50.9659997   7.3009992 100.7664990  50.4789997
   7.2889992  99.7274990  50.8739997   6.7719992 100.8674990  49.5079997
   8.7019992 101.2524990  50.4219997   8.6849992 102.3604990  50.4969997
   9.3799992 100.8004990  51.1779997   9.4359992 100.8814990  49.0849997
  10.4999992 101.1414990  49.2729997   9.4709992  99.7834990  48.9189997
   8.8469992 101.6044990  47.8459997   7.7389992 101.5574990  47.7739997
   9.1889992 102.6544990  47.9699997   9.6009992 101.0394990  46.6119997
  10.6199992 101.3694990  46.9059997   9.4719992  99.9444990  46.7529997
   9.2759992 101.5864990  45.2259997   8.1799992 101.6714990  45.0639997
   9.5589992 102.6564990  45.1349997   9.8689992 100.6874990  44.1939997
  11.0539992 100.5924990  43.9519997   8.9209992  99.8164990  43.6849997
   9.3849992  98.5044990  43.3349997  10.3559992  98.5584990  42.7989997
   9.4229992  97.7824990  44.1789997   8.5529992  97.9084990  42.1729997
   9.0859992  96.9584990  41.9519997   8.7879992  98.7324990  40.8279997
   8.6439992  99.8284990  40.9309997   9.8649992  98.4744990  40.7329997
   7.9879992  98.3204990  39.7819997   8.1229992  97.0024990  39.0789997
   8.2429992  97.3374990  37.5489997   7.8619992  98.6004990  36.9939997
   6.8749992  98.8634990  37.4309997   8.5829992  99.4264990  37.1709997
   7.5349992  98.4424990  35.4489997   7.4519992  99.4524990  35.0769997
   8.4459992  97.9924990  35.0809997   6.3579992  97.5484990  34.8499997
   5.0799992  98.2834990  35.3479997   4.2939992  97.9874990  34.6679997
   4.8869992  98.0344990  36.3809997   5.1919992  99.3564990  35.2969997
   6.3679992  97.5774990  33.3469997   5.5559992  97.0004990  32.9299997
   6.3599992  98.5784990  32.9429997   7.2399992  97.0624990  32.9729997
   6.3059992  96.1024990  35.3019997   5.4329992  95.6304990  34.8779997
   6.3689992  96.0004990  36.3749997   7.1649992  95.6314990  34.8469997
   9.4339992  96.3424990  39.4499997   6.8409992  96.3034990  39.3219997
   7.1829992  97.7994990  42.5889997   6.8819992  96.6244990  43.0059997
   7.5299992  95.6444990  43.0959997   5.3169992  96.5814990  43.2799997
   4.9369992  95.5804990  43.5769997   4.7719992  96.9634990  42.3899997
   4.8499992  97.5384990  44.4049997   3.7679992  97.3304990  44.5509997
   5.1069992  98.5964990  44.1869997   5.7229992  97.2984990  45.6519997
   6.7939992  97.4264990  45.3849997   5.4579992  96.3054990  46.0749997
   5.5549992  98.4244990  46.7409997   4.5259992  98.3454990  47.1519997
   5.8419992  99.4634990  46.4749997   6.3739992  97.8904990  47.9329997
   6.4209992  98.7504990  48.6349997   7.4389992  97.7234990  47.6639997
   5.8269992  96.7044990  48.6859997   5.7959992  95.7804990  48.0699997
   4.7519992  96.9304990  48.8519997   6.5939992  96.1334990  49.9439997
   6.0139992  95.2254990  50.2159997   6.5089992  96.9584990  50.6829997
   8.0639992  95.7494990  49.8369997   8.3049992  95.2714990  48.8759997
   9.1169992  96.0784990  50.6119997  10.1259992  95.7744990  50.2959997
   9.1659992  96.8744990  51.8919997   8.1779992  97.1174990  52.3379997
   9.5709992  97.8484990  51.5429997  10.0429992  96.0684990  52.9159997
  10.0369992  96.6314990  53.8729997  11.1019992  96.1654990  52.5959997
   9.7189992  94.5714990  53.1719997  10.3579992  93.8234990  52.6539997
   8.6699992  94.4764990  52.8199997   9.8179992  94.1864990  54.6809997
   9.1879992  94.9014990  55.2519997  10.8649992  94.2134990  55.0519997
   9.3229992  92.7254990  54.9299997  10.1639992  92.0574990  54.6459997
   8.5989992  92.5474990  54.1059997   8.7199992  92.5094990  56.2599997
   9.3569992  92.8834990  57.0899997   8.4469992  91.4424990  56.4039997
   7.3399992  93.2064990  56.4689997   6.9209992  93.0754990  55.4489997
   7.5069992  94.2894990  56.6519997   6.4839992  92.7324990  57.6439997
   6.3319992  91.6354990  57.5539997   5.5219992  93.2794990  57.7419997
   7.1709992  92.8414990  58.5109997   9.1249992  29.9704990  59.1189997
  10.0649992  30.0074990  58.5269997   9.1639992  29.3554990  60.0429997
   8.7819992  30.9584990  59.4949997   8.0539992  29.4084990  58.1249997
   7.0719992  29.5464990  58.6259997   8.0669992  29.9614990  57.1619997
   8.0939992  27.8684990  57.7719997   8.9929992  27.8344990  57.1199997
   8.3279992  27.1744990  58.6069997   6.9749992  27.2584990  56.9169997
   7.2039992  26.1744990  57.0079997   5.9859992  27.4694990  57.3769997
   6.9779992  27.6794990  55.4549997   5.9399992  27.6864990  55.0579997
   7.3609992  28.6954990  55.2189997   7.6969992  26.6904990  54.4919997
   8.7739992  26.8754990  54.6939997   7.4579992  25.6104990  54.6029997
   7.2729992  26.9244990  52.9769997   6.1959992  26.7504990  52.7639997
   7.5619992  27.9644990  52.7119997   8.0839992  26.0044990  51.9639997
   8.0859992  24.9584990  52.3359997   7.5409992  26.0834990  50.9979997
   9.4979992  26.3734990  51.6889997   9.7119992  27.3714990  51.2499997
  10.1079992  26.3634990  52.6179997  10.2689992  25.3754990  50.7659997
  11.2769992  25.8044990  50.5819997  10.3099992  24.4604990  51.3939997
   9.6239992  25.0144990  49.4509997   9.0989992  24.0354990  49.4229997
   8.9909992  25.8204990  49.0229997  10.7069992  24.9324990  48.3209997
  11.6839992  24.5634990  48.6989997  10.2879992  24.2534990  47.5479997
  11.1029992  26.2964990  47.6769997  11.2689992  26.9054990  48.5909997
  12.1249992  26.1644990  47.2629997  10.0689992  26.9674990  46.7669997
   9.2529992  27.2114990  47.4809997  10.4349992  27.9714990  46.4599997
   9.4969992  26.2724990  45.4969997  10.2449992  25.9564990  44.7389997
   8.9019992  25.3764990  45.7759997   8.5209992  27.2634990  44.9239997
   7.8709992  28.0604990  45.5639997   8.4929992  27.0964990  43.5239997
   8.0919992  28.1924990  42.7049997   7.0009992  28.0834990  42.5309997
   8.2829992  29.1854990  43.1659997   8.8689992  27.9784990  41.3709997
   8.5299992  28.7674990  40.6659997   8.5779992  26.6164990  40.6039997
   8.1439992  25.9184990  41.3509997   7.7629992  26.8534990  39.8869997
   9.8019992  26.1244990  40.0389997  10.0709992  26.2894990  38.4829997
   9.3409992  27.6634990  38.1309997   8.2589992  27.7284990  37.2559997
   7.5769992  26.8664990  37.4149997   7.7289992  28.6554990  37.5639997
   8.5579992  27.7054990  35.7289997   8.8539992  26.7194990  35.4009997
   7.7899992  28.1014990  35.0799997   9.6629992  28.6554990  35.3759997
  11.0429992  28.1114990  35.4449997  11.7639992  28.8774990  35.1989997
  11.2029992  27.8044990  36.4679997  11.2279992  27.2704990  34.7939997
   9.4049992  28.9194990  33.9119997  10.2449992  29.4874990  33.5409997
   9.4579992  27.9944990  33.3559997   8.4929992  29.4674990  33.7289997
   9.5559992  29.9894990  36.0849997   9.8349992  29.8894990  37.1229997
   8.5589992  30.4044990  36.0649997  10.2429992  30.6634990  35.5949997
  11.5659992  26.4274990  38.3349997   9.3819992  25.2744990  37.6819997
  10.3179992  28.1834990  41.6969997  10.6579992  29.4054990  41.8319997
  10.0379992  30.4284990  41.6509997  12.1759992  29.4654990  42.2549997
  12.4249992  30.5354990  42.0889997  12.7869992  28.7874990  41.6219997
  12.3969992  29.1094990  43.7289997  11.8259992  28.2084990  44.0399997
  11.9269992  29.8914990  44.3619997  13.8269992  28.9634990  44.1289997
  14.1979992  29.9484990  43.7749997  14.4049992  28.2404990  43.5139997
  13.8809992  28.6744990  45.6719997  13.3209992  27.7524990  45.9379997
  13.5279992  29.5474990  46.2609997  15.2259992  28.6194990  46.3259997
  15.6489992  29.6384990  46.4559997  15.9439992  28.1374990  45.6289997
  15.3409992  27.9164990  47.7159997  16.4019992  27.5934990  47.7749997
  14.6499992  27.0574990  47.8519997  15.0369992  28.8504990  48.9159997
  13.9499992  29.0584990  48.8199997  15.6209992  29.7824990  48.7619997
  15.3569992  28.1294990  50.1729997  16.4359992  27.9484990  50.0609997
  14.5469992  27.6294990  51.1759997  14.9659992  27.0534990  52.0139997
  13.0369992  27.8424990  51.1199997  12.4919992  27.0994990  51.7409997
  12.5669992  27.5404990  50.1599997  12.5209992  29.2054990  51.6319997
  11.4229992  29.2544990  51.4679997  12.9339992  29.9914990  50.9659997
  12.8679992  29.5724990  53.1159997  12.4279992  30.5714990  53.3229997
  13.9679992  29.5474990  53.2699997  12.3639992  28.6694990  54.1499997
  13.0379992  27.7954990  54.2729997  11.3229992  28.3704990  53.9019997
  12.3969992  29.3194990  55.5539997  11.7769992  30.2304990  55.6929997
  13.4649992  29.5444990  55.7639997  11.7949992  28.3654990  56.6479997
  10.8159992  28.0774990  56.2079997  11.7649992  28.7864990  57.6749997
  12.5959992  27.0614990  57.0079997  13.6189992  27.2384990  57.4019997
  12.7999992  26.5334990  56.0519997  11.7249992  26.0974990  57.9019997
  11.3649992  26.5774990  58.8369997  12.3519992  25.2134990  58.1449997
  10.8399992  25.7454990  57.3299997  13.5329992 107.2524990  58.8579997
  13.7119992 108.0154990  59.6449997  13.9679992 106.2574990  59.0939997
  12.4729992 106.9764990  58.6739997  14.1789992 107.8614990  57.5429997
  13.3859992 108.5864990  57.2619997  15.0729992 108.4544990  57.8329997
  14.6329992 106.8174990  56.4579997  15.3149992 106.0504990  56.8839997
  13.7059992 106.3184990  56.1019997  15.0729992 107.3984990  55.1009997
  14.1159992 107.8914990  54.8289997  15.8929992 108.1434990  55.1819997
  15.3939992 106.4194990  53.9919997  16.3929992 105.9474990  54.1179997
  14.5999992 105.6484990  54.0849997  15.4009992 107.1104990  52.6229997
  14.3649992 107.4994990  52.5219997  16.1149992 107.9594990  52.6849997
  15.5929992 106.1034990  51.4989997  16.3639992 105.3264990  51.6869997
  14.6689992 105.5384990  51.2489997  15.9129992 106.8424990  50.1469997
  16.1669992 106.1584990  49.3099997  15.0349992 107.4594990  49.8579997
  17.0969992 107.7874990  50.2409997  16.6819992 108.7604990  50.5789997
  17.8849992 107.5294990  50.9799997  17.7819992 108.1324990  48.9109997
  17.1199992 108.0914990  48.0199997  18.3059992 109.0964990  49.0849997
  18.9879992 107.1874990  48.6339997  19.5029992 106.9864990  49.5969997
  18.6309992 106.2134990  48.2369997  20.0109992 107.7584990  47.6269997
  20.5309992 108.6464990  48.0449997  20.8459992 107.0704990  47.3739997
  19.3369992 108.2504990  46.2629997  18.6629992 109.0774990  46.5749997
  20.1329992 108.7134990  45.6419997  18.5399992 107.0354990  45.6269997
  19.0789992 106.0684990  45.5299997  17.7159992 106.7544990  46.3179997
  17.9659992 107.4874990  44.2649997  17.1609992 108.2254990  44.4669997
  18.7679992 107.9104990  43.6239997  17.1649992 106.3994990  43.5199997
  16.3949992 105.5914990  44.0849997  17.4649992 106.4204990  42.1979997
  16.7559992 105.5574990  41.3059997  17.5379992 104.8994990  40.8699997
  15.9679992 104.9604990  41.8139997  16.1569992 106.3904990  40.1479997
  15.8519992 105.6314990  39.3959997  17.2609992 107.3174990  39.4999997
  17.7629992 108.0054990  40.2139997  18.1279992 106.7924990  39.0459997
  16.6909992 107.9784990  38.3029997  16.7929992 109.5224990  38.3399997
  16.1009992 109.9234990  36.9679997  14.9239992 109.1394990  36.7569997
  15.2589992 108.1264990  36.4459997  14.1919992 109.1394990  37.5919997
  13.9779992 109.6524990  35.5499997  14.6579992 109.7144990  34.7129997
  13.2109992 108.9194990  35.3479997  13.2429992 110.9804990  35.6859997
  14.2099992 112.0174990  36.0619997  13.6669992 112.9204990  36.2969997
  14.6729992 111.6394990  36.9609997  14.9629992 112.1944990  35.3079997
  12.7479992 111.2844990  34.2869997  13.5619992 111.7084990  33.7199997
  12.3629992 110.3364990  33.9399997  11.9379992 111.9754990  34.4669997
  12.0369992 110.8394990  36.6039997  11.1719992 110.6904990  35.9749997
  12.0399992 111.8194990  37.0579997  12.1969992 110.1474990  37.4179997
  15.8509992 109.9394990  39.4059997  18.1789992 110.0074990  38.5089997
  15.0719992 107.1724990  40.6969997  13.9239992 106.5144990  41.0529997
  13.6779992 105.3664990  40.7839997  12.9689992 107.3754990  41.8539997
  12.8469992 107.0564990  42.9109997  11.9839992 107.0474990  41.4569997
  13.3349992 108.8974990  41.7279997  13.6599992 109.2074990  40.7109997
  14.0729992 109.1104990  42.5309997  12.1019992 109.7774990  41.8959997
  11.3129992 109.4624990  41.1799997  12.3759992 110.8324990  41.6809997
  11.3639992 109.6154990  43.2259997  10.9019992 108.6314990  43.4529997
  10.5019992 110.3174990  43.2039997  12.2599992 110.0644990  44.4919997
  13.1279992 109.3854990  44.6319997  11.6099992 109.9864990  45.3899997
  12.6269992 111.4864990  44.4379997  11.6819992 112.0694990  44.4019997
  13.2139992 111.6244990  43.5049997  13.3529992 111.9354990  45.7539997
  12.6289992 111.7424990  46.5739997  13.3549992 113.0374990  45.6089997
  14.6729992 111.3524990  45.8389997  15.3199992 111.3284990  44.9499997
  15.1579992 110.7134990  46.9279997  16.0909992 110.1344990  46.8559997
  14.4949992 110.4474990  48.2479997  14.4079992 109.3394990  48.2679997
  13.5349992 111.0054990  48.2179997  15.1779992 111.0284990  49.5479997
  16.2099992 110.6324990  49.6559997  14.6339992 110.6384990  50.4339997
  15.0659992 112.5694990  49.8289997  13.9729992 112.7514990  49.9079997
  15.4439992 113.0684990  48.9109997  15.9189992 113.0434990  51.0329997
  15.5129992 114.0674990  51.1789997  16.9959992 113.0224990  50.7599997
  15.8929992 112.2834990  52.3949997  16.6299992 112.7374990  53.0899997
  16.1709992 111.2194990  52.2309997  14.4919992 112.3564990  53.0069997
  13.7779992 112.0344990  52.2189997  14.1549992 113.3164990  53.4539997
  14.2889992 111.2474990  54.0519997  15.0659992 111.6104990  54.7589997
  14.6739992 110.2594990  53.7209997  12.8859992 111.1674990  54.6919997
  12.8229992 110.2164990  55.2639997  12.0719992 111.1564990  53.9359997
  12.7319992 112.0664990  55.3259997  80.6279992 141.1444990  55.7589997
  81.5349992 141.2814990  56.3869997  80.2379992 140.1464990  56.0509997
  79.9989992 142.0104990  56.0569997  80.9989992 141.2474990  54.2519997
  81.6529992 142.1224990  54.0459997  81.5989992 140.3134990  54.2049997
  79.8939992 141.1044990  53.1259997  79.3629992 140.1444990  53.2979997
  79.2579992 141.9964990  53.3109997  80.6059992 141.2394990  51.7149997
  81.0399992 142.2524990  51.5739997  81.4829992 140.5574990  51.6909997
  79.6279992 141.0804990  50.5789997  78.8929992 141.8974990  50.7479997
  80.1069992 141.3864990  49.6239997  79.0799992 139.6114990  50.6089997
  79.9539992 138.9244990  50.6059997  78.2749992 139.6294990  51.3739997
  78.3609992 139.3734990  49.2879997  79.0109992 139.5504990  48.4049997
  78.1449992 138.2864990  49.3629997  77.0439992 140.2084990  49.1269997
  76.3919992 139.8264990  49.9409997  77.0669992 141.3194990  49.1229997
  76.3139992 139.8044990  47.8379997  76.2269992 138.7024990  47.9569997
  75.3119992 140.2774990  47.9139997  77.1199992 139.9974990  46.5749997
  78.0239992 139.3554990  46.6569997  76.6649992 139.7554990  45.5909997
  77.6579992 141.4564990  46.2509997  76.8739992 142.2134990  46.4669997
  78.4759992 141.6054990  46.9879997  78.1929992 141.6664990  44.8329997
  77.5669992 141.2634990  44.0089997  78.2019992 142.7494990  44.5829997
  79.6419992 141.2084990  44.6429997  79.6949992 140.3144990  45.3009997
  79.8329992 141.0324990  43.5629997  80.7519992 142.0964990  45.2959997
  80.7999992 143.1554990  44.9629997  80.3639992 142.2034990  46.3319997
  82.2269992 141.5734990  45.2909997  82.9029992 142.3354990  45.7359997
  82.2439992 140.7214990  46.0039997  82.7469992 141.0964990  43.9769997
  83.7059992 140.3374990  43.9039997  82.1389992 141.6854990  43.0219997
  82.6019992 141.2034990  41.6299997  82.8089992 142.1084990  41.0199997
  83.5359992 140.6024990  41.6259997  81.5309992 140.3784990  40.8679997
  81.9999992 139.6994990  40.1259997  80.5419992 141.3094990  40.2259997
  80.2719992 142.1194990  40.9369997  81.0559992 141.7864990  39.3649997
  79.3579992 140.7044990  39.8339997  79.3419992 139.6444990  38.5679997
  77.7949992 139.7144990  38.1879997  77.3699992 140.5364990  37.1309997
  76.3269992 140.7974990  37.4099997  77.8229992 141.5474990  37.2199997
  77.4899992 139.9644990  35.6169997  77.3159992 140.7574990  34.9039997
  78.5319992 139.6984990  35.7089997  76.7249992 138.7444990  35.2549997
  76.9929992 137.6834990  36.3309997  76.6879992 138.0644990  37.2939997
  76.4399992 136.7934990  36.0699997  78.0289992 137.3824990  36.3729997
  75.3009992 139.0594990  35.1499997  74.7259992 138.1464990  35.1969997
  74.9059992 139.5204990  36.0429997  75.1159992 139.5384990  34.1989997
  77.1949992 138.1974990  33.9199997  76.4849992 137.4634990  33.5679997
  78.1739992 137.7704990  34.0779997  77.2579992 139.0154990  33.2169997
  80.2229992 140.2504990  37.4879997  79.6439992 138.2824990  38.9909997
  80.7909992 139.5374990  41.7529997  81.4149992 138.4924990  42.3389997
  82.5649992 138.1194990  42.2739997  80.4369992 137.8314990  43.2389997
  79.4399992 138.1334990  42.8529997  80.6069992 138.3514990  44.2059997
  80.6029992 136.2994990  43.5219997  81.6489992 135.9324990  43.5979997
  80.0309992 135.7294990  42.7589997  79.8679992 135.9414990  44.8589997
  79.6149992 134.8604990  44.8369997  78.9379992 136.5424990  44.9569997
  80.7909992 136.2634990  46.0989997  81.3189992 137.2314990  45.9629997
  81.5619992 135.4634990  46.0879997  80.0479992 136.1954990  47.3799997
  79.8399992 135.1214990  47.5749997  79.0649992 136.6874990  47.2189997
  80.7209992 136.8654990  48.6059997  79.8939992 136.8644990  49.3479997
  80.8829992 137.9344990  48.3499997  81.9659992 136.1114990  49.0959997
  82.3029992 136.7384990  49.9489997  82.8029992 136.0334990  48.3699997
  81.6749992 134.6284990  49.5329997  82.0879992 133.8354990  48.8919997
  80.8279992 134.2214990  50.4959997  80.8269992 133.1284990  50.6209997
  79.9579992 135.0694990  51.4519997  78.8709992 135.0484990  51.2219997
  80.2519992 136.1414990  51.4479997  80.0299992 134.6304990  52.9689997
  79.7019992 133.5894990  53.1739997  79.3529992 135.3414990  53.4899997
  81.4339992 134.7874990  53.7299997  81.7909992 135.8344990  53.6349997
  82.2059992 134.1144990  53.2979997  81.1529992 134.3824990  55.2289997
  82.0739992 134.5744990  55.8189997  80.8509992 133.3134990  55.2669997
  80.0709992 135.2194990  55.9659997  80.0439992 134.8784990  57.0229997
  79.0849992 135.0324990  55.4899997  80.1869992 136.7844990  55.9439997
  79.4179992 137.2174990  56.6189997  79.9829992 137.1374990  54.9109997
  81.6229992 137.2154990  56.3949997  81.5699992 138.2754990  56.0639997
  82.3329992 136.5974990  55.8049997  81.9659992 137.0624990  57.8869997
  81.4149992 136.2244990  58.3659997  81.6329992 137.9484990  58.4689997
  83.0589992 136.9624990  58.0539997   2.0159992  47.5134990  57.2949997
   1.6969992  48.2034990  58.1059997   2.6399992  46.8004990  57.8739997
   1.1419992  46.9724990  56.8729997   3.0469992  48.0214990  56.2039997
   3.0209992  49.1314990  56.2069997   4.0919992  47.7454990  56.4609997
   2.8379992  47.5274990  54.7499997   3.8109992  47.0114990  54.6009997
   2.0879992  46.7144990  54.6439997   2.4749992  48.6454990  53.7359997
   1.5269992  49.1754990  53.9689997   3.2379992  49.4514990  53.7859997
   2.4699992  48.1134990  52.3409997   3.4369992  47.6134990  52.1179997
   1.6059992  47.4224990  52.2519997   2.2759992  49.1394990  51.2559997
   2.4359992  48.5094990  50.3549997   1.2329992  49.5204990  51.2909997
   3.2109992  50.3004990  51.2419997   3.0129992  50.8364990  50.2889997
   3.0039992  51.0724990  52.0129997   4.7609992  49.9254990  51.1369997
   5.0659992  49.5124990  52.1219997   4.8949992  49.1044990  50.3999997
   5.6909992  51.0964990  50.7039997   5.8349992  51.7704990  51.5749997
   6.5789992  50.4424990  50.5719997   5.3859992  51.7514990  49.3619997
   4.4019992  52.2564990  49.2669997   6.2539992  52.4194990  49.1769997
   5.3449992  50.6774990  48.2149997   6.3089992  50.1264990  48.1799997
   4.4559992  50.0554990  48.4509997   5.1079992  51.1914990  46.8199997
   4.1839992  51.8054990  46.8849997   6.0259992  51.7684990  46.5779997
   4.8579992  50.0974990  45.8429997   5.7769992  49.4774990  45.7679997
   4.0899992  49.3614990  46.1629997   4.5069992  50.7194990  44.5069997
   3.7199992  51.4924990  44.6339997   5.3779992  51.2784990  44.1039997
   3.9469992  49.7124990  43.5509997   4.8299992  49.1164990  43.2369997
   3.2709992  49.0214990  44.0999997   3.2659992  50.4284990  42.3159997
   3.3659992  51.5804990  42.0079997   2.5209992  49.4604990  41.7099997
   1.6969992  49.8524990  40.5409997   0.6999992  49.3644990  40.4929997
   1.4809992  50.9404990  40.4749997   2.5319992  49.5924990  39.2279997
   3.3299992  50.3464990  39.0539997   1.5689992  49.7674990  37.9939997
   0.6119992  49.2434990  38.2019997   1.3349992  50.8514990  37.9339997
   2.3199992  49.2764990  36.8589997   1.7939992  48.1814990  35.8269997
   1.8749992  46.8424990  36.7069997   1.5929992  45.6504990  36.0899997
   0.5799992  45.6314990  35.6339997   2.3899992  45.3874990  35.3619997
   1.4859992  44.4234990  37.1259997   1.3439992  43.5894990  36.4549997
   2.4479992  44.2584990  37.5859997   0.4099992  44.4544990  38.1819997
  -0.9450008  44.2774990  37.4999997  -0.9970008  43.2884990  37.0699997
  -1.7470008  44.4224990  38.2089997  -0.9210008  44.9264990  36.6379997
   0.6989992  43.2694990  39.0539997   0.0779992  43.4074990  39.9269997
   0.6129992  42.2774990  38.6359997   1.6679992  43.5084990  39.4659997
   0.5749992  45.7204990  38.9499997   1.4749992  45.6634990  39.5439997
  -0.2700008  45.8524990  39.6099997   0.4819992  46.5534990  38.2689997
   0.3619992  48.4384990  35.5369997   2.7009992  48.0634990  34.6399997
   3.0499992  48.3104990  39.3309997   4.2869992  48.0054990  39.6979997
   5.1859992  48.8234990  39.9359997   4.4269992  46.4764990  39.8139997
   5.4939992  46.2054990  39.6649997   3.8909992  46.1414990  38.9009997
   3.9489992  46.0174990  41.1519997   3.5019992  45.0044990  41.0559997
   3.0859992  46.6994990  41.3089997   5.0309992  46.1914990  42.2759997
   5.6679992  47.1004990  42.2129997   5.6549992  45.2744990  42.2309997
   4.3899992  46.3084990  43.7059997   3.6659992  47.1504990  43.6549997
   5.2769992  46.5824990  44.3169997   3.7479992  45.0094990  44.3289997
   4.4769992  44.1724990  44.3529997   2.8219992  44.7494990  43.7729997
   3.4909992  45.2024990  45.7909997   4.5059992  45.4714990  46.1529997
   3.2589992  44.2274990  46.2709997   2.5689992  46.3674990  46.2969997
   2.9339992  47.3784990  46.0149997   2.5979992  46.2644990  47.4019997
   1.1119992  46.2624990  45.8419997   0.9449992  46.1814990  44.7569997
   0.0139992  46.2124990  46.6179997  -0.9280008  46.1114990  46.0599997
   0.0079992  46.3424990  48.1259997  -0.4300008  47.3324990  48.3749997
   1.0159992  46.5054990  48.5649997  -0.8110008  45.4384990  48.9489997
  -1.8890008  45.4424990  48.6809997  -0.7680008  45.8374990  49.9859997
  -0.2920008  44.0234990  48.9989997  -0.6070008  43.3484990  48.1749997
  -0.7510008  43.5704990  49.9039997   1.1939992  43.7914990  49.3949997
   1.8839992  44.2744990  48.6709997   1.2689992  42.6844990  49.3419997
   1.6249992  44.2474990  50.7579997   1.3199992  45.3084990  50.8869997
   2.7289992  44.1744990  50.8659997   0.9109992  43.5034990  51.9389997
   0.9769992  42.4074990  51.7729997  -0.1770008  43.7184990  51.8839997
   1.3819992  44.0104990  53.2979997   2.4129992  44.4234990  53.3259997
   1.3389992  43.1614990  54.0139997   0.3289992  45.0104990  53.7779997
  -0.6590008  44.5254990  53.6319997   0.2089992  45.9434990  53.1869997
   0.5599992  45.4024990  54.7919997  98.3559992 132.1874990  55.4449997
  97.7279992 132.0944990  54.5329997  98.3559992 133.1674990  55.9689997
  97.9569992 131.4754990  56.1989997  99.8639992 131.8164990  55.0159997
 100.2939992 132.6194990  54.3809997 100.3669992 131.7744990  56.0059997
  99.9499992 130.3994990  54.3049997 101.0429992 130.2204990  54.2119997
  99.4959992 129.6564990  54.9939997  99.1719992 130.2474990  53.0159997
  99.4549992 129.2284990  52.6769997  98.0809992 130.2624990  53.2269997
  99.5709992 131.2524990  51.9979997  99.5779992 132.2674990  52.4499997
 100.5739992 130.8984990  51.6759997  98.7599992 131.1584990  50.6689997
  99.4399992 131.4504990  49.8399997  98.4909992 130.0814990  50.6319997
  97.5259992 132.0674990  50.7309997  96.9109992 131.4664990  51.4339997
  97.7069992 133.0594990  51.1969997  96.8349992 132.2594990  49.3839997
  97.6239992 132.4634990  48.6279997  96.3619992 131.3014990  49.0789997
  95.7849992 133.3664990  49.2329997  94.8249992 133.1314990  49.7419997
  96.2269992 134.2914990  49.6589997  95.4139992 133.6054990  47.7909997
  95.1489992 132.6144990  47.3629997  94.4989992 134.2174990  47.6429997
  96.5679992 134.2244990  46.9819997  96.4329992 135.3184990  47.1189997
  97.5779992 133.8604990  47.2669997  96.5069992 134.0964990  45.4019997
  95.4869992 134.4264990  45.1099997  97.1849992 134.9274990  45.1119997
  97.0039992 132.7534990  44.8899997  97.6909992 132.4274990  45.6999997
  96.1869992 132.0094990  44.9949997  97.6309992 132.8404990  43.5179997
  98.4469992 133.5884990  43.6139997  98.1049992 131.8704990  43.2579997
  96.5959992 133.4494990  42.4829997  95.7319992 132.7644990  42.3409997
  96.2069992 134.4304990  42.8299997  97.2629992 133.5504990  41.1199997
  98.4009992 133.1814990  40.8569997  96.4299992 134.0394990  40.1749997
  97.1069992 134.3664990  38.8989997  97.7639992 133.5384990  38.5579997
  96.2439992 134.3284990  38.2009997  97.8429992 135.7314990  38.7899997
  97.0909992 136.5404990  38.9089997  98.4969992 135.9074990  37.3809997
  97.8019992 135.4604990  36.6389997  98.5659992 136.9654990  37.0509997
  99.7689992 135.2754990  37.4149997 100.5449992 134.9394990  36.1069997
 101.4429992 133.6774990  36.4029997 101.6599992 133.2124990  37.7419997
 102.5189992 132.5084990  37.7659997 101.8899992 134.0594990  38.4219997
 100.5139992 132.3884990  38.3759997 100.8749992 131.8994990  39.2689997
  99.6749992 132.9984990  38.6769997  99.9199992 131.1724990  37.6219997
  98.9619992 130.4304990  38.4669997  99.4039992 130.3694990  39.4499997
  98.1039992 131.0384990  38.7149997  98.6749992 129.4884990  38.0229997
  99.1959992 131.6404990  36.3799997  98.9099992 130.7774990  35.7969997
  98.2569992 132.0564990  36.7119997  99.7219992 132.2954990  35.7009997
 101.0009992 130.2204990  37.1989997 101.3429992 129.6634990  38.0589997
 101.8219992 130.8094990  36.8139997 100.6119992 129.6504990  36.3679997
  99.5609992 134.5324990  35.0469997 101.4569992 136.0384990  35.7139997
  98.8539992 135.8394990  39.8689997  99.2619992 137.0854990  40.1569997
  98.7739992 138.0824990  39.6859997 100.4699992 136.9704990  41.0549997
 100.1479992 136.3084990  41.8879997 100.7579992 137.9644990  41.4579997
 101.6479992 136.3044990  40.3679997 101.8689992 136.7664990  39.3819997
 101.3999992 135.2314990  40.2179997 102.9999992 136.4294990  41.0439997
 102.9839992 137.5014990  41.3339997 103.7629992 136.2344990  40.2599997
 103.3229992 135.4734990  42.1869997 102.7189992 135.7204990  43.0869997
 104.3919992 135.6504990  42.4319997 103.1099992 134.0264990  41.7439997
 103.4859992 133.9714990  40.6999997 102.0339992 133.7524990  41.7169997
 103.9139992 133.0634990  42.5399997 104.9819992 133.3624990  42.6059997
 103.8329992 132.0444990  42.1039997 103.4519992 133.0524990  44.0519997
 103.8559992 134.0214990  44.4149997 103.9369992 132.2264990  44.6149997
 101.9949992 132.9134990  44.3239997 101.4149992 132.2954990  43.6219997
 101.4049992 133.5714990  45.2869997 100.3419992 133.3764990  45.4919997
 101.8979992 134.5404990  46.3349997 103.0029992 134.6564990  46.3129997
 101.6469992 134.2304990  47.3719997 101.2609992 135.9054990  46.1239997
 101.1179992 136.2414990  45.0749997 101.8349992 136.7634990  46.5349997
  99.8389992 136.0244990  46.6969997  99.3349992 135.0394990  46.6039997
  99.2799992 136.7864990  46.1129997  99.7369992 136.3034990  48.2369997
 100.5199992 137.0204990  48.5639997 100.0969992 135.4424990  48.8409997
  98.4139992 136.7944990  48.8619997  97.5749992 136.3664990  48.2719997
  98.2959992 137.8794990  48.6569997  98.2759992 136.3934990  50.3189997
  98.2159992 135.2834990  50.3339997  97.2819992 136.7404990  50.6749997
  99.3809992 136.7994990  51.3619997  99.6579992 137.8734990  51.3039997
 100.2999992 136.1984990  51.1929997  98.8739992 136.4804990  52.7879997
  99.6729992 136.8264990  53.4789997  98.7149992 135.4234990  53.0899997
  97.9329992 137.0644990  52.8739997  27.9139992 122.2404990  56.1069997
  28.1019992 121.4504990  56.8649997  26.8929992 122.6454990  56.2769997
  28.5899992 123.1004990  56.3019997  28.2199992 121.6294990  54.7479997
  29.2399992 121.8704990  54.3799997  28.1689992 120.5544990  55.0259997
  27.1689992 121.8874990  53.6659997  26.1029992 121.7534990  53.9489997
  27.3109992 122.9434990  53.3519997  27.4349992 121.0724990  52.3859997
  28.5189992 120.8594990  52.2649997  26.7389992 120.2084990  52.4469997
  27.0069992 121.8784990  51.1909997  27.4839992 122.8824990  51.1969997
  27.4149992 121.4884990  50.2339997  25.4579992 122.0224990  51.0119997
  24.9749992 121.1394990  51.4829997  25.0319992 122.8714990  51.5879997
  24.9989992 122.2934990  49.5819997  25.4619992 121.4914990  48.9679997
  23.9349992 121.9914990  49.4799997  25.2619992 123.7444990  49.1179997
  24.7449992 124.3814990  49.8679997  26.3609992 123.8994990  49.1619997
  24.5349992 123.9404990  47.7809997  23.4819992 123.6244990  47.9449997
  24.3819992 125.0234990  47.5909997  25.0889992 123.0794990  46.6799997
  26.1889992 123.2294990  46.6799997  24.9519992 121.9894990  46.8469997
  24.4279992 123.2194990  45.3119997  24.7689992 122.3784990  44.6719997
  23.3559992 123.0094990  45.5109997  24.5219992 124.6054990  44.5419997
  23.5429992 124.8334990  44.0679997  24.6559992 125.3674990  45.3399997
  25.6369992 124.6114990  43.4809997  25.3769992 123.8654990  42.6989997
  25.9259992 125.6404990  43.1789997  27.0719992 124.1274990  43.9419997
  27.4099992 124.8084990  44.7529997  26.8669992 123.0824990  44.2559997
  28.1719992 124.0694990  42.8249997  27.7599992 124.7544990  42.0539997
  29.2429992 124.2674990  43.0449997  28.0579992 122.7314990  42.1219997
  28.0709992 121.6374990  42.5669997  28.1079992 122.9714990  40.7589997
  28.0649992 121.8284990  39.8889997  28.9549992 121.8434990  39.2239997
  28.1489992 120.8474990  40.4049997  26.7749992 121.7674990  38.9459997
  26.8419992 120.8994990  38.2559997  26.6869992 123.0184990  38.0189997
  26.9499992 123.9734990  38.5229997  27.4449992 122.8774990  37.2189997
  25.3949992 123.2004990  37.5789997  25.0109992 122.8274990  36.0809997
  23.5559992 122.4524990  35.9999997  23.0249992 121.2344990  36.5799997
  23.0719992 120.4244990  35.8209997  23.5569992 120.8674990  37.4839997
  21.5009992 121.4814990  36.8819997  20.9999992 121.7494990  35.9629997
  21.1529992 120.5464990  37.2959997  21.1479992 122.6164990  37.8319997
  21.2869992 123.9094990  37.1769997  21.1369992 124.7254990  37.8689997
  22.3189992 124.0674990  36.9029997  20.5799992 123.9164990  36.3609997
  19.7769992 122.4294990  38.4579997  19.7989992 121.5324990  39.0599997
  19.4369992 123.2724990  39.0399997  18.9769992 122.3614990  37.7359997
  22.2259992 122.5794990  38.9479997  23.1039992 122.9294990  38.4239997
  22.4209992 121.6104990  39.3809997  22.0369992 123.2054990  39.8079997
  25.0599992 124.0774990  35.2639997  25.8399992 121.6624990  35.6719997
  25.6029992 121.7604990  39.7809997  25.4559992 120.5614990  40.4209997
  26.1279992 119.6094990  40.2339997  24.5159992 120.6484990  41.5159997
  23.6149992 121.0834990  41.0319997  24.7939992 121.2904990  42.3789997
  24.1509992 119.2174990  42.1039997  23.8359992 118.5064990  41.3099997
  23.3259992 119.2274990  42.8479997  25.2779992 118.5214990  42.9239997
  26.2069992 118.2274990  42.3899997  24.9259992 117.5214990  43.2549997
  25.8109992 119.2624990  44.2129997  26.1719992 120.2664990  43.9029997
  26.6269992 118.6334990  44.6269997  24.7129992 119.5444990  45.2939997
  23.9509992 120.2104990  44.8349997  25.1849992 120.1604990  46.0879997
  24.1099992 118.3484990  45.9879997  24.8759992 117.9464990  46.6849997
  23.8419992 117.6064990  45.2059997  22.8569992 118.7224990  46.7659997
  23.1679992 119.5434990  47.4469997  22.4949992 117.9574990  47.4849997
  21.7099992 119.0334990  45.8419997  21.4449992 118.1814990  45.1989997
  21.0139992 120.1874990  45.7589997  20.2989992 120.1444990  44.9249997
  21.2579992 121.4504990  46.5509997  20.9149992 122.3364990  45.9769997
  22.2869992 121.6204990  46.9339997  20.2819992 121.3844990  47.7099997
  20.3549992 120.3834990  48.1859997  19.2699992 121.5514990  47.2849997
  20.6289992 122.4934990  48.7969997  20.7369992 123.4934990  48.3259997
  21.5559992 122.1244990  49.2849997  19.5549992 122.5644990  49.9359997
  19.2279992 121.5254990  50.1559997  18.7519992 123.1444990  49.4319997
  20.2269992 123.0804990  51.2229997  19.4239992 123.3744990  51.9319997
  20.6389992 124.1124990  51.2509997  21.2759992 122.1594990  51.8439997
  21.3579992 122.5974990  52.8619997  22.2119992 122.1844990  51.2449997
  20.7959992 120.8044990  52.2729997  20.8839992 120.2204990  51.3319997
  19.7359992 120.8034990  52.6069997  21.7089992 120.0874990  53.2329997
  22.7339992 119.9954990  52.8139997  21.2579992 119.0724990  53.2169997
  21.6329992 120.5014990  54.2609997  18.9969992  12.0524990  54.4179997
  18.2829992  12.8554990  54.1339997  19.8869992  12.5864990  54.8139997
  18.6349992  11.4464990  55.2759997  19.3469992  11.1914990  53.2729997
  20.2809992  10.6254990  53.4789997  18.5449992  10.4344990  53.1349997
  19.4969992  11.9544990  51.9839997  19.9719992  11.3704990  51.1669997
  18.4429992  12.1334990  51.6799997  20.1069992  13.3614990  52.0319997
  19.7419992  14.0524990  52.8209997  21.1699992  13.0474990  52.1039997
  19.8969992  14.1684990  50.7099997  18.8809992  14.6174990  50.7049997
  20.7159992  14.9164990  50.6369997  20.0589992  13.3444990  49.3759997
  21.0439992  12.8424990  49.4839997  19.2559992  12.5854990  49.2659997
  20.2779992  14.2964990  48.1559997  20.8419992  15.1804990  48.5209997
  20.9419992  13.7734990  47.4339997  18.9859992  14.6304990  47.3449997
  19.1639992  14.5394990  46.2519997  18.2489992  13.8134990  47.4949997
  18.4909992  16.0534990  47.5969997  17.5429992  16.2024990  47.0369997
  18.3039992  16.1414990  48.6889997  19.3439992  17.3254990  47.0739997
  18.7939992  18.2024990  47.4779997  20.3179992  17.3674990  47.6059997
  19.4389992  17.4984990  45.5549997  20.2859992  18.1974990  45.3849997
  19.7749992  16.4944990  45.2169997  18.1099992  17.8164990  44.8819997
  17.4459992  16.9294990  44.9609997  17.5169992  18.6744990  45.2649997
  18.2279992  18.0644990  43.3589997  17.2079992  18.2784990  42.9739997
  18.8839992  18.9504990  43.2229997  18.8489992  16.9154990  42.6249997
  19.0139992  17.2534990  41.5799997  19.8479992  16.8174990  43.1019997
  18.0249992  15.6294990  42.5279997  17.6219992  15.4924990  43.5539997
  17.2519992  15.6374990  41.7299997  18.9099992  14.4104990  42.2839997
  19.3729992  13.7894990  43.2219997  19.0469992  14.0814990  41.0129997
  19.8969992  12.9514990  40.8319997  20.9299992  13.3104990  40.6369997
  19.6669992  12.2194990  41.6349997  19.4739992  11.9634990  39.6399997
  20.2889992  11.2134990  39.5489997  19.4219992  12.6634990  38.1979997
  19.2089992  13.7494990  38.3009997  20.4489992  12.6454990  37.7739997
  18.4739992  12.0164990  37.2899997  18.2279992  12.7454990  35.9409997
  17.1949992  13.8984990  36.3199997  15.9459992  13.5004990  36.9709997
  15.1739992  13.5914990  36.1769997  15.9569992  12.4564990  37.3509997
  15.5929992  14.3534990  38.2599997  14.6679992  13.9414990  38.6349997
  16.3569992  14.2124990  39.0099997  15.3779992  15.8144990  37.9069997
  14.5899992  16.4854990  38.9909997  14.4639992  17.5404990  38.7979997
  13.6269992  16.0084990  39.0889997  15.1179992  16.3914990  39.9289997
  16.6439992  16.5464990  37.6869997  17.4369992  16.1614990  38.3119997
  16.8449992  16.3544990  36.6439997  16.5049992  17.6174990  37.6949997
  14.5569992  16.0244990  36.6229997  14.2629992  17.0574990  36.5129997
  13.7199992  15.3514990  36.5069997  15.2319992  15.8614990  35.7949997
  19.4209992  13.3214990  35.3699997  17.4549992  11.8034990  35.1129997
  18.2939992  11.2954990  40.1229997  18.1139992  10.0734990  39.6839997
  18.8399992   9.4814990  38.9069997  16.8899992   9.5334990  40.2659997
  16.6239992   8.7444990  39.5309997  15.9919992  10.1884990  40.2539997
  16.9389992   8.9764990  41.6799997  17.5729992   8.0644990  41.6449997
  15.9239992   8.5754990  41.8889997  17.4659992   9.9684990  42.7539997
  18.5019992  10.3214990  42.5659997  17.4149992   9.4044990  43.7099997
  16.6639992  11.2954990  42.9129997  15.6379992  10.9904990  42.6129997
  16.9579992  12.1154990  42.2229997  16.7249992  11.7514990  44.3369997
  17.7449992  12.1534990  44.5149997  16.5129992  10.8914990  45.0079997
  15.6379992  12.8074990  44.6989997  15.9419992  13.7704990  44.2349997
  15.6329992  13.1394990  45.7599997  14.1639992  12.3324990  44.3809997
  14.1379992  12.0234990  43.3149997  13.4629992  13.1704990  44.5809997
  13.7749992  11.1504990  45.2309997  14.1599992  10.1974990  44.8399997
  12.9709992  11.0744990  46.2799997  13.0029992  10.0814990  46.7519997
  12.1939992  12.1434990  47.0549997  11.1369992  11.8024990  47.0959997
  12.3299992  13.1054990  46.5159997  12.4679992  12.3694990  48.4879997
  12.2549992  11.4054990  48.9969997  11.6589992  13.0374990  48.8559997
  13.8529992  12.8464990  48.8929997  14.1579992  13.6764990  48.2199997
  14.5829992  12.0124990  48.8119997  13.9099992  13.3224990  50.3099997
  13.2719992  12.7104990  50.9829997  13.4869992  14.3414990  50.4429997
  15.3019992  13.0494990  51.0939997  16.1239992  13.1554990  50.3529997
  15.3119992  11.9984990  51.4539997  15.5379992  14.0594990  52.1849997
  15.5579992  15.0414990  51.6659997  16.5499992  13.9384990  52.6279997
  14.6129992  14.1264990  53.3549997  13.6169992  14.1504990  52.8639997
  14.7589992  14.9824990  54.0479997  14.6219992  12.8724990  54.2199997
  13.7289992  12.8154990  54.8779997  15.5939992  12.7734990  54.7489997
  14.7389992  12.0584990  53.4729997  90.8969992 137.4404990  54.5719997
  91.1339992 138.5254990  54.5939997  91.5019992 137.1014990  55.4399997
  89.8129992 137.1974990  54.5439997  91.5069992 136.8904990  53.2449997
  92.6049992 136.8864990  53.4169997  91.1889992 135.8264990  53.2129997
  90.9869992 137.5574990  51.9889997  89.8799992 137.4664990  52.0039997
  91.2409992 138.6374990  52.0289997  91.5159992 137.0184990  50.6189997
  91.0159992 136.0634990  50.3489997  91.1259992 137.6994990  49.8329997
  93.0359992 136.8434990  50.5599997  93.5579992 137.7684990  50.8859997
  93.2689992 135.9874990  51.2289997  93.5399992 136.4514990  49.1799997
  94.0869992 135.4874990  49.2509997  92.6879992 136.1564990  48.5309997
  94.3489992 137.5424990  48.3919997  95.0519992 137.7884990  49.2159997
  94.9539992 137.0304990  47.6139997  93.5389992 138.9004990  48.0539997
  93.1589992 139.1554990  49.0659997  94.1539992 139.6924990  47.5749997
  92.3609992 138.7074990  47.1859997  91.5679992 138.1774990  47.7569997
  91.9209992 139.7114990  47.0109997  92.6749992 138.0584990  45.8419997
  93.3629992 138.7634990  45.3279997  93.0319992 137.0064990  45.8299997
  91.3369992 138.0184990  44.9859997  90.5239992 137.7754990  45.7019997
  91.2029992 138.9894990  44.4639997  91.4079992 136.9264990  43.8659997
  91.9119992 136.0804990  44.3809997  90.3729992 136.6324990  43.5859997
  92.1859992 137.2004990  42.5609997  93.1819992 137.4874990  42.9589997
  92.2849992 136.2294990  42.0299997  91.6139992 138.3584990  41.6829997
  91.4399992 139.2924990  42.2589997  92.4289992 138.5514990  40.9529997
  90.3159992 137.9304990  40.9729997  90.3989992 136.9914990  40.3859997
  89.5609992 137.6244990  41.7289997  89.7689992 139.0604990  40.1239997
  88.9699992 139.9054990  40.5479997  90.3029992 139.0914990  38.8849997
  89.8549992 140.1404990  37.9979997  89.8429992 139.8124990  36.9359997
  88.9119992 140.6454990  38.2959997  91.0589992 141.1994990  37.9709997
  90.7509992 141.9624990  37.2239997  92.4329992 140.6134990  37.5649997
  92.4199992 140.0604990  36.6019997  93.0539992 141.5104990  37.3559997
  93.1079992 139.9074990  38.6409997  94.3799992 139.0134990  38.2149997
  93.8039992 137.9014990  37.3559997  93.0599992 136.8324990  37.8919997
  93.5989992 136.3744990  38.7479997  92.0759992 137.1684990  38.2849997
  92.6689992 135.7364990  36.7619997  93.6559992 135.3694990  36.5229997
  92.0019992 134.9494990  37.0809997  92.0859992 136.2374990  35.4859997
  91.0069992 137.3534990  35.7369997  90.0539992 136.9664990  36.0649997
  91.3229992 137.9954990  36.5459997  90.8379992 137.8434990  34.7899997
  93.2159992 136.8634990  34.6999997  92.8069992 137.4004990  33.8569997
  93.9719992 137.4334990  35.2209997  93.6849992 136.0844990  34.1179997
  91.3579992 135.1114990  34.7809997  91.0449992 135.6364990  33.8899997
  90.4829992 134.7194990  35.2789997  92.0969992 134.3764990  34.4959997
  95.3479992 139.8554990  37.4789997  94.8559992 138.3354990  39.4229997
  91.1509992 141.7094990  39.3069997  92.1159992 142.5554990  39.5949997
  92.8599992 143.2104990  38.8969997  92.0019992 142.7694990  41.1039997
  91.0919992 142.2474990  41.4699997  91.8199992 143.8584990  41.2289997
  93.2519992 142.2524990  41.8099997  94.0909992 142.8974990  41.4719997
  93.3439992 141.1724990  41.5699997  92.9869992 142.3644990  43.2839997
  92.1499992 141.6844990  43.5519997  92.7189992 143.4234990  43.4869997
  94.2249992 142.1304990  44.1999997  94.9809992 142.8044990  43.7429997
  94.6079992 141.1234990  43.9269997  93.9919992 142.1594990  45.7119997
  94.9879992 141.9154990  46.1409997  93.2619992 141.3924990  46.0469997
  93.7009992 143.5384990  46.3059997  92.7799992 143.9414990  45.8309997
  94.5049992 144.2304990  45.9769997  93.2749992 143.6744990  47.7249997
  93.2119992 144.7384990  48.0369997  94.0419992 143.2634990  48.4159997
  91.8939992 143.1334990  48.1119997  91.1859992 143.3924990  47.3109997
  91.5939992 142.3944990  49.1229997  90.5529992 142.1024990  49.3269997
  92.5519992 141.8764990  50.1899997  93.5149992 141.6174990  49.6979997
  92.0129992 141.0324990  50.6709997  93.0699992 143.0634990  51.1269997
  93.4429992 143.9664990  50.5959997  93.9779992 142.6864990  51.6459997
  92.1089992 143.3884990  52.2689997  91.1489992 143.6954990  51.8009997
  92.5249992 144.2104990  52.8899997  91.6799992 142.2364990  53.0979997
  92.5579992 141.6974990  53.5119997  91.1249992 141.5064990  52.4719997
  90.7589992 142.6354990  54.2599997  89.8059992 142.9044990  53.7559997
  91.1699992 143.4994990  54.8249997  90.3929992 141.4564990  55.1109997
  91.2749992 141.2034990  55.7369997  90.2569992 140.5324990  54.5099997
  89.0159992 141.5554990  55.7869997  88.2109992 141.4554990  55.0269997
  88.9229992 142.4744990  56.4029997  88.8219992 140.2674990  56.6859997
  87.9379992 140.4244990  57.3409997  89.6879992 139.9494990  57.3059997
  88.6969992 139.4214990  55.9779997 109.2629992 128.6054990  58.1299997
 110.2009992 128.2404990  58.6019997 108.4729992 128.7884990  58.8889997
 109.4999992 129.5464990  57.5899997 108.8999992 127.5264990  57.1389997
 108.8309992 126.5794990  57.7159997 107.9749992 127.8264990  56.6019997
 109.9119992 127.0884990  56.0179997 110.8809992 126.8444990  56.5029997
 109.5859992 126.1664990  55.4919997 110.1019992 128.1414990  54.8619997
 109.1049992 128.2074990  54.3779997 110.3659992 129.1834990  55.1449997
 111.0249992 127.6274990  53.7199997 112.0109992 127.6234990  54.2319997
 110.7879992 126.5694990  53.4809997 111.1029992 128.4884990  52.3929997
 111.4919992 129.5164990  52.5549997 111.7499992 127.9244990  51.6879997
 109.6879992 128.7404990  51.6689997 109.4379992 127.7244990  51.2959997
 108.9569992 128.9524990  52.4779997 109.6939992 129.9244990  50.6429997
 108.6679992 130.3104990  50.4669997 110.2619992 130.7634990  51.0999997
 110.1889992 129.5844990  49.1929997 111.2929992 129.4614990  49.1729997
 109.7589992 128.5674990  49.0729997 109.7819992 130.5274990  48.0099997
 108.7149992 130.7644990  48.2109997 110.3569992 131.4204990  48.3349997
 110.1039992 130.0504990  46.6069997 109.8349992 130.8234990  45.8549997
 111.1749992 129.8044990  46.4429997 109.3009992 128.7734990  46.2839997
 109.4949992 127.9864990  47.0429997 108.2039992 128.9524990  46.2979997
 109.6759992 128.2334990  44.8679997 109.7589992 129.1054990  44.1849997
 110.6829992 127.7734990  44.9629997 108.5609992 127.3444990  44.2729997
 108.6409992 126.3534990  44.7689997 107.5269992 127.7224990  44.4229997
 108.7739992 127.1934990  42.7099997 108.4709992 128.1694990  42.2769997
 109.8219992 126.9534990  42.4269997 107.7379992 126.2454990  42.1259997
 106.6359992 125.9714990  42.5719997 108.2839992 125.6804990  41.0429997
 107.5219992 124.5554990  40.4789997 108.3149992 123.7974990  40.3059997
 106.9329992 123.9964990  41.2369997 106.8169992 124.9774990  39.1519997
 106.2759992 124.0274990  38.9589997 107.7089992 125.4504990  37.9139997
 108.4069992 126.2244990  38.2969997 108.2899992 124.5354990  37.6709997
 106.9039992 125.9604990  36.8499997 107.0069992 127.4314990  36.2909997
 107.1819992 128.3744990  37.5839997 106.9979992 129.8094990  37.5909997
 106.1349992 130.1274990  36.9679997 106.7599992 130.2564990  38.5799997
 108.1329992 130.5724990  36.8809997 108.1449992 130.1254990  35.8979997
 107.9399992 131.6264990  36.7439997 109.5859992 130.4204990  37.3959997
 109.6599992 130.7174990  38.8219997 110.6229992 130.5004990  39.2599997
 109.3649992 131.7254990  39.0729997 108.9139992 130.1054990  39.3059997
 110.0599992 128.9784990  37.2869997 109.4329992 128.4544990  37.9929997
 109.9099992 128.6254990  36.2769997 111.1019992 128.9644990  37.5699997
 110.5109992 131.3604990  36.6929997 111.5019992 130.9334990  36.7189997
 110.4939992 132.3534990  37.1189997 110.2079992 131.5774990  35.6799997
 108.1479992 127.5564990  35.3869997 105.6599992 127.5314990  35.6899997
 105.8679992 126.0584990  39.4389997 104.6879992 125.9844990  38.8529997
 104.2669992 125.0384990  38.1619997 103.9879992 127.3034990  39.1379997
 103.1729992 127.4634990  38.3999997 104.7139992 128.1404990  39.0519997
 103.4739992 127.2384990  40.5959997 104.2569992 126.8104990  41.2569997
 102.5759992 126.5854990  40.6389997 103.0689992 128.6224990  41.0409997
 102.2249992 128.8744990  40.3629997 103.9149992 129.3284990  40.8929997
 102.6759992 128.7254990  42.5329997 101.7809992 128.0744990  42.6339997
 102.4649992 129.7844990  42.7929997 103.7499992 128.3574990  43.5809997
 104.6389992 129.0074990  43.4329997 104.1169992 127.3424990  43.3159997
 103.3949992 128.4864990  45.0769997 102.3739992 128.1254990  45.3279997
 103.2299992 129.5844990  45.1239997 104.5579992 127.9904990  45.9869997
 104.3089992 128.3314990  47.0149997 105.4569992 128.6034990  45.7629997
 104.8359992 126.4724990  45.8789997 104.3619992 125.8844990  45.0789997
 105.7609992 125.8784990  46.6569997 105.9849992 124.8074990  46.5409997
 106.6059992 126.5574990  47.7169997 106.4909992 127.6514990  47.8699997
 107.6389992 126.3604990  47.3609997 106.3049992 125.8904990  49.1169997
 106.6129992 124.8264990  49.2029997 105.2149992 126.0724990  49.2319997
 106.9299992 126.5274990  50.3829997 106.4099992 127.4874990  50.5889997
 108.0359992 126.5934990  50.2929997 106.5359992 125.7114990  51.6689997
 107.1449992 124.7814990  51.6689997 105.5139992 125.2784990  51.6219997
 106.8909992 126.5064990  52.9289997 107.9849992 126.7004990  52.9049997
 106.8429992 125.7814990  53.7689997 106.0049992 127.7454990  53.2719997
 105.9329992 128.3844990  52.3659997 106.4299992 128.3334990  54.1129997
 104.5459992 127.3004990  53.6439997 104.7559992 126.6564990  54.5249997
 104.1289992 126.6084990  52.8819997 103.5499992 128.5064990  53.9339997
 103.5609992 129.2854990  53.1419997 103.7709992 129.0374990  54.8839997
 102.5119992 128.1124990  53.9909997 124.1619992 116.5234990  54.4249997
 124.2309992 117.4524990  55.0309997 125.1059992 115.9474990  54.5279997
 123.3479992 115.8334990  54.7359997 123.8159992 116.9304990  53.0049997
 124.6969992 117.4004990  52.5169997 123.6549992 116.0094990  52.4039997
 122.4769992 117.6724990  52.8899997 121.8249992 116.8564990  53.2699997
 122.4839992 118.4884990  53.6439997 122.0119992 118.0684990  51.5119997
 121.7429992 117.1574990  50.9369997 121.1829992 118.7954990  51.6499997
 123.1639992 118.7374990  50.7229997 123.6769992 119.3584990  51.4879997
 123.9079992 118.0544990  50.2599997 122.6939992 119.7414990  49.5709997
 122.0099992 120.4924990  50.0209997 123.6979992 120.1554990  49.3369997
 122.1069992 119.0474990  48.3609997 121.2999992 118.3954990  48.7579997
 121.7029992 119.7444990  47.5959997 123.1139992 118.2564990  47.5139997
 123.8389992 119.0124990  47.1449997 123.6939992 117.5534990  48.1509997
 122.5879992 117.4114990  46.3189997 123.4699992 116.9704990  45.8069997
 122.0259992 116.5724990  46.7809997 121.6869992 118.1874990  45.3529997
 120.7869992 118.4484990  45.9489997 122.2199992 119.1254990  45.0869997
 121.2899992 117.6404990  43.9629997 122.1939992 117.2764990  43.4309997
 120.5819992 116.7914990  44.0779997 120.7889992 118.7924990  43.0519997
 120.0099992 119.2524990  43.6979997 121.6169992 119.5094990  42.8689997
 120.3689992 118.0934990  41.7159997 121.1689992 117.4624990  41.2729997
 119.5209992 117.4304990  41.9899997 120.0189992 119.0954990  40.5239997
 120.9269992 119.6984990  40.3119997 119.8489992 118.4954990  39.6049997
 118.8839992 120.1104990  40.8689997 117.9339992 119.5564990  41.0289997
 119.1579992 120.7054990  41.7669997 118.7519992 121.0474990  39.7809997
 118.6659992 122.2764990  39.9479997 118.7049992 120.4694990  38.6139997
 118.1779992 121.1844990  37.4809997 117.3619992 120.6354990  36.9659997
 117.7279992 122.1544990  37.7839997 119.3579992 121.6164990  36.5729997
 118.8639992 122.1564990  35.7369997 120.1779992 120.4534990  36.0199997
 119.4299992 119.7224990  35.6449997 120.8439992 120.8874990  35.2439997
 120.9499992 119.7524990  37.0179997 121.5709992 118.3314990  36.6339997
 123.0929992 118.5004990  36.7799997 124.0409992 119.0054990  35.8339997
 124.9119992 118.3184990  35.7869997 123.6389992 118.9114990  34.8019997
 124.3759992 120.5104990  36.0839997 125.0979992 120.8314990  35.3489997
 123.4989992 121.0834990  35.8209997 124.7539992 120.9434990  37.4709997
 123.5809992 120.8034990  38.4339997 122.7029992 121.3044990  38.0529997
 123.4099992 119.7384990  38.3909997 123.9079992 121.1424990  39.4059997
 125.8589992 120.0684990  38.0339997 125.9659992 120.2674990  39.0899997
 125.6499992 119.0154990  37.9149997 126.7739992 120.4924990  37.6479997
 125.1309992 122.3784990  37.3719997 125.6039992 122.5214990  38.3319997
 124.2669992 122.9974990  37.1809997 125.9439992 122.5324990  36.6779997
 121.2079992 117.2724990  37.5889997 121.3039992 118.0294990  35.2229997
 120.2419992 122.4864990  37.3189997 120.7809992 123.4054990  36.6369997
 120.8379992 123.4634990  35.3949997 121.4719992 124.4034990  37.6239997
 121.2849992 125.3254990  37.0329997 122.5709992 124.2384990  37.6399997
 120.9769992 124.5634990  39.1059997 119.8729992 124.5924990  39.2209997
 121.4389992 125.5414990  39.3619997 121.5989992 123.4904990  39.9839997
 122.7039992 123.6064990  40.0009997 121.2769992 122.4954990  39.6079997
 121.0529992 123.6254990  41.4679997 120.0299992 123.1924990  41.5019997
 121.0829992 124.6754990  41.8289997 121.9669992 122.8724990  42.5259997
 123.0359992 123.1234990  42.6929997 121.9549992 121.7904990  42.2709997
 121.2939992 123.0354990  43.8519997 120.3299992 122.4904990  43.7639997
 121.2049992 124.1014990  44.1519997 121.9959992 122.4694990  45.0099997
 122.2499992 121.4204990  44.7469997 121.3649992 122.4004990  45.9209997
 123.3149992 123.2034990  45.2539997 124.0659992 123.1424990  44.4529997
 123.5449992 124.0084990  46.3269997 124.4779992 124.5824990  46.4179997
 122.4969992 124.2104990  47.4349997 121.4859992 123.8554990  47.1399997
 122.4449992 125.2994990  47.6519997 122.9119992 123.4574990  48.8059997
 123.8809992 123.9684990  48.9919997 123.0289992 122.3644990  48.6429997
 122.0389992 123.6964990  49.9939997 121.8479992 124.7894990  49.9399997
 122.4399992 123.4394990  50.9979997 120.6529992 122.9734990  49.8799997
 120.7319992 121.8664990  49.9279997 120.2009992 123.2234990  48.8959997
 119.7949992 123.4454990  51.0339997 119.7139992 124.5474990  50.9149997
 120.2909992 123.2644990  52.0119997 118.3059992 122.9744990  51.1059997
 117.7739992 123.2824990  50.1809997 117.8319992 123.5224990  51.9479997
 118.1139992 121.4084990  51.1569997 118.3509992 120.9324990  50.1819997
 117.0189992 121.3384990  51.3299997 118.7499992 120.6734990  52.3009997
 118.4459992 121.1264990  53.2689997 119.8559992 120.7774990  52.2919997
 118.4629992 119.6024990  52.2269997 114.6519992  11.0364990  56.7419997
 114.7119992  10.7554990  57.8149997 114.9729992  10.0984990  56.2409997
 113.5639992  11.1904990  56.5759997 115.5009992  12.2924990  56.6729997
 115.4969992  12.5314990  55.5879997 115.1359992  13.0474990  57.4009997
 116.9509992  11.9874990  57.0249997 116.8189992  11.7174990  58.0949997
 117.2889992  11.1464990  56.3829997 117.9979992  13.1784990  57.0369997
 117.4319992  14.1304990  57.1309997 118.7039992  13.0114990  57.8779997
 118.9859992  13.1234990  55.8209997 119.9439992  13.5374990  56.2029997
 119.2699992  12.0944990  55.5159997 118.6209992  14.0184990  54.6009997
 117.5339992  13.9074990  54.3979997 118.7489992  15.0634990  54.9569997
 119.4569992  13.7224990  53.3049997 120.5039992  13.8734990  53.6449997
 119.3769992  12.6304990  53.1209997 119.1159992  14.5454990  52.0949997
 118.4249992  15.3814990  52.3369997 120.0959992  15.0404990  51.9219997
 118.6869992  13.8484990  50.8959997 117.9709992  13.0544990  51.1959997
 118.1749992  14.5074990  50.1619997 119.8169992  13.1294990  50.0939997
 120.6949992  13.8104990  50.0849997 120.2609992  12.2894990  50.6699997
 119.3289992  12.6014990  48.7099997 119.7709992  11.6004990  48.5149997
 118.2869992  12.3094990  48.9599997 119.2769992  13.5924990  47.6359997
 118.9549992  14.6284990  47.8769997 120.3169992  13.8434990  47.3339997
 118.4889992  13.1074990  46.3649997 118.9389992  12.2694990  45.7899997
 117.5669992  12.5584990  46.6519997 118.2779992  14.2354990  45.4199997
 117.4369992  14.0244990  44.7259997 118.0319992  15.0484990  46.1349997
 119.3839992  14.7384990  44.5179997 119.0709992  15.6764990  44.0129997
 120.2879992  15.0624990  45.0769997 119.7939992  13.6304990  43.5829997
 120.6089992  12.7704990  43.8559997 119.1259992  13.6764990  42.4829997
 119.5429992  12.7614990  41.4799997 120.5579992  12.8824990  41.0449997
 119.4729992  11.7344990  41.8999997 118.5489992  12.6834990  40.2519997
 118.8569992  11.8314990  39.6089997 118.5689992  13.9404990  39.3889997
 118.6049992  14.8824990  39.9759997 119.5519992  13.9714990  38.8719997
 117.4319992  14.0764990  38.5599997 117.1919992  13.6124990  37.1239997
 117.2169992  12.0514990  37.2429997 118.1399992  11.1514990  36.6249997
 118.1309992  11.3004990  35.5239997 119.1459992  11.3144990  37.0659997
 117.6909992   9.7374990  37.0609997 118.4149992   9.1634990  36.5019997
 118.0379992   9.5784990  38.0719997 116.2799992   9.3374990  36.8249997
 115.7809992   9.8854990  35.5039997 114.8149992   9.4594990  35.2759997
 115.7599992  10.9644990  35.4629997 116.4759992   9.5234990  34.7609997
 116.1549992   7.8294990  36.7339997 115.9789992   7.4354990  37.7239997
 115.2999992   7.5874990  36.1199997 116.9799992   7.3154990  36.2629997
 115.2119992   9.7164990  37.8859997 114.2759992   9.2534990  37.6099997
 115.1399992  10.7834990  38.0369997 115.4559992   9.3544990  38.8739997
 115.8169992  14.0194990  36.6489997 118.3239992  14.0354990  36.2619997
 117.2289992  12.3874990  40.7209997 117.0359992  11.1784990  41.3359997
 117.8309992  10.2854990  41.3349997 115.6519992  11.2284990  42.0769997
 115.1459992  10.2454990  42.1739997 114.9899992  11.8124990  41.4019997
 115.8729992  11.9954990  43.4149997 116.4149992  12.9354990  43.1769997
 116.4489992  11.3664990  44.1269997 114.5589992  12.4134990  44.0129997
 114.0589992  12.8644990  43.1289997 114.7129992  13.3194990  44.6379997
 113.6279992  11.3974990  44.6809997 113.3509992  10.6834990  43.8769997
 112.6939992  11.9084990  44.9969997 114.1739992  10.5624990  45.8149997
 115.0419992  10.0284990  45.3729997 113.3379992   9.8624990  46.0299997
 114.6019992  11.3504990  47.0819997 113.7689992  12.0414990  47.3329997
 115.4609992  12.0464990  46.9709997 114.8849992  10.4454990  48.2739997
 115.4749992  11.0454990  48.9999997 115.6329992   9.6614990  48.0289997
 113.6739992   9.8764990  48.9639997 113.2219992   8.9574990  48.5629997
 113.1599992  10.5954990  50.0809997 112.1759992  10.3084990  50.4799997
 113.6219992  11.8544990  50.8289997 112.8239992  12.6184990  50.9429997
 114.3559992  12.5514990  50.3689997 113.8399992  11.6614990  52.3319997
 112.9039992  11.2444990  52.7609997 113.8499992  12.6564990  52.8259997
 115.0679992  10.8224990  52.8009997 114.9899992   9.7854990  52.4099997
 115.1109992  10.8014990  53.9109997 116.4419992  11.2774990  52.1549997
 116.6819992  12.2214990  52.6889997 116.0939992  11.6494990  51.1679997
 117.5009992  10.1954990  52.1619997 118.3699992  10.5364990  51.5599997
 117.1989992   9.2754990  51.6179997 117.9299992   9.8564990  53.5559997
 117.0459992   9.9404990  54.2239997 118.6129992  10.6184990  53.9889997
 118.3109992   8.3624990  53.7499997 119.0439992   8.1794990  52.9359997
 117.3869992   7.7604990  53.6179997 118.8449992   8.0554990  55.1149997
 119.7699992   8.6514990  55.2709997 118.9759992   6.9744990  55.3319997
 118.0639992   8.3594990  55.8439997 107.0239992   7.7714990  57.7199997
 106.2949992   7.2234990  57.0849997 106.5509992   8.7594990  57.9029997
 107.1889992   7.1644990  58.6359997 108.4019992   7.8584990  57.0199997
 108.8149992   6.8284990  56.9659997 108.2219992   8.4244990  56.0809997
 109.3559992   8.5824990  57.9559997 109.0429992   9.6474990  57.9999997
 109.1929992   8.2224990  58.9949997 110.8409992   8.6344990  57.6169997
 111.4349992   9.4064990  58.1509997 111.2789992   7.6564990  57.9069997
 111.1699992   8.7294990  56.1039997 112.1979992   8.3854990  55.8599997
 110.7239992   8.0054990  55.3899997 110.9199992  10.0944990  55.4969997
 109.8919992  10.4914990  55.3619997 111.3759992  10.9224990  56.0809997
 111.4989992  10.1894990  53.9889997 111.2409992  11.1604990  53.5139997
 112.6089992  10.2084990  54.0279997 111.0559992   8.9964990  53.0629997
 111.4629992   8.0484990  53.4759997 109.9539992   8.8614990  53.1019997
 111.4779992   9.2024990  51.5569997 111.3399992  10.2564990  51.2349997
 112.5689992   9.0194990  51.4499997 110.8019992   8.3664990  50.5149997
 111.0619992   7.3164990  50.7689997 109.7289992   8.6184990  50.6519997
 111.3089992   8.7544990  49.1229997 111.1529992   9.8324990  48.9069997
 112.4099992   8.6274990  49.2039997 110.7639992   7.7654990  48.1439997
 111.4339992   6.8884990  48.2699997 109.7199992   7.4044990  48.2599997
 110.8199992   8.2344990  46.6659997 111.8609992   8.5784990  46.4879997
 110.6749992   7.3454990  46.0159997 109.6989992   9.1994990  46.3439997
 108.6689992   8.7844990  46.3559997 109.6149992   9.9684990  47.1409997
 109.9789992  10.0134990  45.0519997 109.2419992  10.8454990  45.0439997
 110.9919992  10.4464990  44.9109997 109.5949992   9.2624990  43.8069997
 108.4529992   9.1084990  43.4079997 110.7279992   8.9084990  43.1649997
 110.8059992   8.3174990  41.8009997 109.9859992   8.6424990  41.1269997
 111.7139992   8.6294990  41.2419997 110.8629992   6.8164990  41.8029997
 111.7189992   6.5554990  42.4609997 111.0789992   6.2274990  40.3979997
 111.6339992   6.9694990  39.7849997 111.6479992   5.2874990  40.5589997
 109.8019992   5.9644990  39.7579997 109.7939992   5.3724990  38.3279997
 109.1829992   6.5664990  37.4649997 109.5239992   7.9284990  37.7589997
 109.3859992   8.1194990  38.8449997 110.5699992   8.1224990  37.4409997
 108.5709992   8.8144990  36.9389997 107.5299992   8.6874990  37.1959997
 108.8789992   9.8254990  37.1609997 108.7059992   8.8024990  35.4109997
 108.1369992   7.6334990  34.7079997 107.1179992   7.4834990  35.0309997
 108.2459992   7.7464990  33.6399997 108.7039992   6.7634990  35.0049997
 107.9069992   9.9194990  34.9169997 107.8209992   9.9184990  33.8399997
 106.9169992   9.7934990  35.3269997 108.4689992  10.8254990  35.0869997
 110.1909992   9.0794990  35.0269997 110.4329992  10.1304990  35.0799997
 110.3149992   8.8954990  33.9699997 110.7829992   8.3794990  35.5989997
 111.0949992   5.0454990  37.8289997 108.7079992   4.3394990  38.3319997
 109.5629992   6.3804990  42.3969997 109.6209992   5.0454990  42.7979997
 110.6329992   4.4254990  42.8709997 108.1999992   4.5524990  43.0589997
 108.2189992   3.4474990  42.9429997 107.4519992   4.9784990  42.3569997
 107.8039992   4.9014990  44.5459997 107.8829992   5.9464990  44.9139997
 108.5939992   4.3594990  45.1089997 106.3469992   4.3704990  44.8919997
 106.2949992   3.3664990  44.4189997 105.5639992   5.0064990  44.4279997
 106.0689992   3.9244990  46.3489997 106.9789992   3.5104990  46.8339997
 105.2099992   3.2414990  46.1719997 105.6059992   5.1704990  47.2109997
 105.1609992   4.8974990  48.1909997 104.7309992   5.7544990  46.8549997
 106.7749992   6.0854990  47.6639997 107.2379992   6.6634990  46.8359997
 107.5909992   5.4924990  48.1279997 106.2979992   7.2074990  48.7269997
 105.5089992   7.7714990  48.1859997 107.1029992   7.9514990  48.9049997
 105.6969992   6.6104990  49.9369997 104.7259992   6.9654990  50.3129997
 106.3439992   5.8404990  50.7769997 105.6809992   5.5324990  51.5989997
 107.7959992   5.3284990  50.7929997 108.4649992   5.6054990  49.9509997
 107.8499992   4.2184990  50.7899997 108.5499992   5.9614990  52.0379997
 108.4029992   7.0494990  51.8729997 109.6419992   5.7564990  52.0059997
 107.9659992   5.5984990  53.3999997 106.9959992   6.1234990  53.5349997
 108.6549992   6.0764990  54.1289997 107.7529992   4.1584990  53.8159997
 106.9489992   3.7964990  53.1419997 107.2599992   4.1944990  54.8109997
 109.0929992   3.4014990  53.8139997 109.5649992   3.4284990  52.8079997
 109.0369992   2.3154990  54.0409997 110.2149992   3.9274990  54.8229997
 110.4919992   4.9774990  54.5899997 111.1089992   3.2684990  54.8539997
 109.6709992   3.9024990  56.2919997 108.7789992   4.5314990  56.4989997
 110.5129992   4.2194990  56.9439997 109.3119992   2.5144990  56.8769997
 108.5549992   1.8804990  56.3679997 108.7429992   2.6884990  57.8149997
 110.2529992   1.9434990  57.0289997 114.5669992 125.4384990  57.6189997
 113.9559992 126.2434990  57.1569997 115.2539992 125.7924990  58.4169997
 113.8769992 124.6854990  58.0559997 115.5329992 124.8554990  56.5459997
 114.8259992 124.4394990  55.7959997 116.0699992 125.6784990  56.0279997
 116.4239992 123.6994990  56.9269997 117.3019992 124.0324990  57.5209997
 115.7389992 123.0534990  57.5169997 116.8259992 122.7824990  55.7199997
 117.4949992 121.9724990  56.0819997 115.9609992 122.3114990  55.2049997
 117.6629992 123.5554990  54.5849997 117.2889992 124.5914990  54.4379997
 118.7429992 123.5304990  54.8419997 117.4989992 122.8924990  53.1709997
 118.4619992 122.7834990  52.6279997 117.0989992 121.8864990  53.4249997
 116.4529992 123.4064990  52.1879997 115.4519992 123.3624990  52.6679997
 116.5949992 124.4944990  52.0149997 116.5529992 122.6734990  50.7829997
 117.5239992 122.9974990  50.3509997 116.5129992 121.5714990  50.9199997
 115.3819992 123.0904990  49.8739997 114.4059992 122.6904990  50.2209997
 115.2799992 124.1974990  49.8729997 115.5819992 122.7524990  48.3469997
 115.9429992 121.7174990  48.1669997 114.5279992 122.6494990  48.0139997
 116.3859992 123.8674990  47.6589997 115.7289992 124.7294990  47.4159997
 117.1009992 124.1284990  48.4679997 117.1569992 123.2964990  46.4149997
 118.0569992 123.9354990  46.2849997 117.5359992 122.2694990  46.6039997
 116.3399992 123.3334990  45.1119997 115.3499992 122.8594990  45.2869997
 116.2329992 124.3854990  44.7729997 117.1229992 122.5134990  43.9649997
 118.1319992 122.8974990  44.2279997 117.0769992 121.4114990  44.1019997
 116.7579992 122.8954990  42.5659997 116.6969992 124.0004990  42.4629997
 117.5789992 122.5054990  41.9259997 115.4499992 122.2224990  42.1989997
 115.1739992 121.0834990  42.6489997 114.7119992 122.9644990  41.4059997
 113.3679992 122.5204990  41.1819997 113.3709992 121.5614990  40.6219997
 112.9389992 122.4204990  42.2019997 112.5749992 123.5874990  40.3199997
 111.4979992 123.3424990  40.1999997 113.1939992 123.7774990  38.8919997
 113.0159992 122.8334990  38.3339997 112.6139992 124.5634990  38.3629997
 114.5999992 124.0014990  38.9589997 115.3019992 125.3594990  38.6659997
 116.1419992 125.0354990  37.3279997 117.0669992 123.9324990  37.2359997
 117.8869992 124.2244990  36.5459997 117.4649992 123.5974990  38.2179997
 116.4039992 122.6474990  36.5669997 117.2529992 121.9804990  36.5809997
 115.6459992 122.2764990  37.2399997 115.8079992 122.7524990  35.2319997
 114.7389992 123.7714990  35.2819997 115.0699992 124.6474990  35.8189997
 114.1899992 123.9014990  34.3599997 113.9869992 123.4074990  35.9659997
 116.7729992 123.2584990  34.1539997 117.1729992 124.1984990  34.5049997
 117.5169992 122.5364990  33.8509997 116.1109992 123.3994990  33.3119997
 115.3139992 121.3824990  34.9239997 114.5009992 121.1684990  35.6019997
 116.1609992 120.7184990  34.8399997 114.8029992 121.4194990  33.9729997
 114.2429992 126.3284990  38.3879997 116.2919992 125.7054990  39.7359997
 112.6109992 124.8714990  40.9329997 111.9749992 125.0514990  42.0919997
 111.3679992 124.2364990  42.7449997 112.4189992 126.4424990  42.5109997
 111.5489992 126.8824990  43.0439997 112.7299992 127.0124990  41.6099997
 113.6829992 126.3964990  43.3929997 114.6349992 126.1124990  42.8959997
 113.5249992 125.5834990  44.1339997 113.9189992 127.7114990  44.3339997
 113.9259992 128.5754990  43.6349997 114.9309992 127.6414990  44.7869997
 112.9839992 127.9634990  45.4779997 111.9959992 127.9224990  44.9699997
 113.0669992 129.0324990  45.7699997 113.0619992 126.9434990  46.5949997
 114.0799992 126.7824990  47.0089997 112.8609992 125.9154990  46.2229997
 112.1529992 127.2644990  47.7469997 111.1569992 127.2644990  47.2559997
 112.2979992 128.3214990  48.0559997 112.0889992 126.1984990  48.8759997
 111.8359992 125.1524990  48.5979997 111.2999992 126.5204990  49.5879997
 113.4749992 126.1214990  49.5919997 114.2869992 125.7474990  48.9509997
 113.6649992 126.3664990  50.9079997 114.7009992 126.2224990  51.2489997
 112.7469992 126.7464990  51.9899997 111.8459992 127.2804990  51.6179997
 113.2879992 127.4914990  52.6109997 112.3749992 125.5654990  52.9139997
 113.1909992 125.1774990  53.5609997 112.1679992 124.6864990  52.2669997
 111.1019992 125.7334990  53.6739997 110.4129992 126.2494990  52.9729997
 111.1699992 126.5274990  54.4479997 110.3849992 124.4124990  54.1019997
 110.2589992 123.7824990  53.1959997 109.3839992 124.7834990  54.4099997
 111.0139992 123.7254990  55.2669997 110.9259992 124.2664990  56.2339997
 112.1039992 123.7054990  55.0559997 110.5159992 122.2774990  55.5469997
 109.4589992 122.1784990  55.2199997 110.5079992 122.0724990  56.6389997
 111.3839992 121.2364990  54.8949997 111.7989992 121.7164990  53.9829997
 110.8369992 120.2984990  54.6579997 112.6229992 120.7954990  55.6879997
 113.3199992 121.6584990  55.7449997 113.1549992 120.0174990  55.1009997
 112.3849992 120.3174990  56.6629997 105.2789992   4.2784990  54.9439997
 105.6539992   5.3144990  54.8019997 105.8819992   3.7394990  55.7059997
 104.2659992   4.4044990  55.3819997 105.2869992   3.6084990  53.6349997
 106.3129992   3.4694990  53.2339997 104.9139992   2.5614990  53.6529997
 104.4489992   4.3094990  52.5169997 103.5379992   4.7434990  52.9819997
 105.0449992   5.1434990  52.0899997 104.0339992   3.3524990  51.3709997
 104.9319992   3.1434990  50.7499997 103.6959992   2.3714990  51.7689997
 102.9639992   3.9684990  50.4889997 101.9739992   3.9404990  50.9939997
 103.3099992   5.0244990  50.4939997 102.9749992   3.3394990  49.0959997
 103.9859992   3.5104990  48.6669997 102.8559992   2.2354990  49.1259997
 102.0339992   3.9464990  48.0129997 101.8549992   5.0204990  48.2349997
 102.4569992   3.8084990  46.9959997 100.6219992   3.3494990  48.0089997
 100.6079992   2.2914990  47.6719997 100.2599992   3.1874990  49.0469997
  99.6439992   4.2014990  47.2319997  99.1949992   4.9284990  47.9419997
 100.3349992   4.6894990  46.5109997  98.5269992   3.4284990  46.4379997
  98.1079992   2.7114990  47.1769997  97.6759992   4.0714990  46.1269997
  99.0969992   2.6074990  45.1999997 100.1329992   2.2524990  45.3849997
  98.3709992   1.7674990  45.1629997  98.9649992   3.3934990  43.8599997
  99.2289992   2.6294990  43.0979997  97.9059992   3.6804990  43.6859997
  99.8899992   4.6134990  43.9189997  99.5059992   5.4324990  44.5629997
 100.9039992   4.4224990  44.3319997 100.0319992   5.1494990  42.5389997
 100.5489992   4.4114990  41.8879997  99.0019992   5.3504990  42.1719997
 100.9199992   6.4574990  42.6469997 100.7099992   7.0004990  41.6999997
 100.5849992   7.0414990  43.5309997 102.4599992   6.1694990  42.7149997
 103.1679992   6.4044990  43.6949997 102.8769992   5.8024990  41.4949997
 104.2389992   5.4054990  41.3859997 104.7419992   6.0274990  40.6149997
 104.7939992   5.5354990  42.3399997 104.3069992   3.9384990  40.9499997
 105.3209992   3.4844990  40.9319997 103.7699992   3.6994990  39.4599997
 104.3669992   4.1864990  38.6589997 103.8479992   2.6274990  39.1769997
 102.5039992   4.2734990  39.2559997 101.2129992   3.3824990  39.1539997
 101.4009992   2.8094990  37.6509997 101.7299992   3.7764990  36.6539997
 100.9629992   4.5724990  36.5459997 102.7359992   4.2264990  36.7969997
 101.9139992   3.1114990  35.2989997 101.8459992   3.8394990  34.5039997
 102.9379992   2.7674990  35.3029997 101.0079992   1.9204990  34.9039997
 101.3919992   1.6574990  33.4009997 100.9269992   0.7234990  33.1219997
 100.9649992   2.4504990  32.8049997 102.4619992   1.5564990  33.2879997
 101.3809992   0.6864990  35.6739997 102.4229992   0.5144990  35.4449997
 101.2339992   0.6694990  36.7439997 100.8599992  -0.2105010  35.3729997
  99.5499992   2.3694990  35.1069997  99.3799992   3.2904990  34.5699997
  99.2959992   2.4624990  36.1529997  98.9109992   1.6734990  34.5839997
 101.2689992   2.2754990  40.1309997 100.0299992   4.2464990  39.2399997
 103.5539992   3.0514990  41.7779997 104.0239992   2.8294990  43.0439997
 104.9059992   3.4144990  43.5979997 103.2699992   1.6564990  43.6999997
 102.2999992   2.0134990  44.1069997 103.9289992   1.2284990  44.4859997
 103.0679992   0.5114990  42.6229997 104.0279992   0.0274990  42.3429997
 102.8669992   0.8084990  41.5719997 102.0819992  -0.5665010  43.1869997
 102.4399992  -0.8765010  44.1919997 102.1199992  -1.4505010  42.5149997
 100.7009992  -0.0125010  43.3539997 100.4209992   0.6234990  42.4879997
 100.6589992   0.5654990  44.3019997  99.5789992  -1.0575010  43.4609997
  99.5979992  -1.5805010  42.4809997  98.6739992  -0.4825010  43.7519997
  99.7939992  -2.0305010  44.6429997 100.7129992  -2.5465010  44.2939997
  99.0239992  -2.8305010  44.6959997 100.0889992  -1.4805010  46.0219997
  99.2739992  -0.7725010  46.2859997 100.8219992  -0.6455010  46.0229997
 100.6059992  -2.3375010  47.1199997 101.4699992  -2.9885010  46.9249997
  99.9129992  -2.5305010  48.3399997 100.2039992  -3.3025010  49.0669997
  98.6139992  -1.8875010  48.6999997  97.8319992  -2.6605010  48.8619997
  98.2439992  -1.0725010  48.0419997  98.7019992  -1.1535010  50.0409997
  98.8679992  -1.9005010  50.8459997  97.6859992  -0.7135010  50.1379997
  99.7839992  -0.0545010  50.0979997  99.9109992   0.4204990  49.1019997
 100.7589992  -0.5305010  50.3379997  99.5439992   1.1184990  51.0859997
  98.5479992   1.5764990  50.9009997 100.2769992   1.9364990  50.9179997
  99.5449992   0.6954990  52.4829997 100.5269992   0.1884990  52.5959997
  98.7259992  -0.0465010  52.6029997  99.3229992   1.7644990  53.5699997
  98.6369992   2.5794990  53.2549997 100.2549992   2.2814990  53.8869997
  98.7079992   1.2464990  54.8879997  97.8189992   0.5924990  54.7609997
  98.2839992   2.1834990  55.3089997  99.6119992   0.6154990  55.9379997
  98.9839992   0.2254990  56.7669997 100.2929992   1.3934990  56.3429997
 100.1619992  -0.2415010  55.4919997 127.2669992 111.4454990  54.4409997
 126.8679992 112.4824990  54.4279997 127.2659992 110.8924990  55.4039997
 126.4589992 110.8844990  53.9249997 128.4549992 111.2864990  53.5879997
 128.8819992 110.2924990  53.8399997 128.2599992 111.5484990  52.5259997
 129.5419992 112.3054990  54.0269997 129.0919992 113.3204990  54.0139997
 129.7849992 111.9964990  55.0669997 130.6659992 112.2764990  52.9259997
 130.3349992 112.9164990  52.0809997 131.6419992 112.6404990  53.3119997
 130.8949992 110.8954990  52.2309997 131.0319992 110.1624990  53.0549997
 130.0709992 110.3914990  51.6799997 132.1579992 110.8184990  51.3509997
 132.5759992 111.8374990  51.2029997 132.9289992 110.2564990  51.9199997
 131.9939992 110.3844990  49.9079997 132.9619992 110.1354990  49.4219997
 131.4219992 109.4324990  49.9329997 131.2569992 111.3924990  49.0239997
 130.2579992 111.5134990  49.4939997 131.6549992 112.4204990  49.1589997
 131.2329992 111.1224990  47.4739997 132.2059992 110.6834990  47.1639997
 130.6769992 110.1784990  47.2869997 130.9029992 112.2844990  46.5939997
 129.8599992 112.5284990  46.8879997 131.5889992 113.0844990  46.9449997
 130.9189992 112.1184990  45.0549997 130.4269992 112.9794990  44.5529997
 131.9899992 112.0554990  44.7649997 130.1919992 110.8954990  44.5109997
 130.6809992 110.0204990  44.9899997 129.1319992 110.8794990  44.8419997
 130.1399992 110.9074990  42.9889997 131.0489992 111.3954990  42.5759997
 130.2389992 109.8784990  42.5819997 128.8409992 111.5574990  42.3439997
 128.0189992 110.8104990  42.3839997 128.7629992 112.5024990  42.9219997
 128.9669992 112.1324990  40.9339997 129.5629992 113.0694990  40.9469997
 129.6159992 111.4344990  40.3639997 127.6919992 112.3714990  40.1979997
 126.8719992 113.1934990  40.5469997 127.7209992 111.7024990  39.0039997
 126.7109992 112.0304990  38.0449997 126.6879992 111.1444990  37.3739997
 125.7449992 112.0114990  38.5919997 126.9259992 113.3374990  37.1369997
 126.0559992 113.5234990  36.4719997 128.2349992 113.2734990  36.3419997
 128.9679992 112.9784990  37.1219997 128.3569992 112.4124990  35.6499997
 128.6089992 114.5304990  35.6979997 129.9839992 114.6164990  34.9309997
 130.9939992 114.8714990  36.1719997 130.7989992 115.9404990  37.0529997
 131.4959992 116.7704990  36.8089997 129.7679992 116.3434990  36.9599997
 131.0729992 115.3764990  38.4979997 130.5919992 115.9894990  39.2469997
 130.3689992 114.5604990  38.5609997 132.4529992 115.0124990  38.8939997
 132.9309992 113.9314990  37.9839997 132.1229992 113.2214990  38.0879997
 132.9649992 114.3654990  36.9959997 133.9379992 113.6404990  38.2439997
 133.4719992 116.0804990  38.5889997 133.2649992 116.4814990  37.6079997
 133.4629992 116.8934990  39.2999997 134.4589992 115.6464990  38.5299997
 132.5759992 114.7284990  40.3749997 133.5969992 114.4494990  40.5859997
 131.9149992 113.8824990  40.4969997 132.2609992 115.5924990  40.9419997
 130.3449992 113.3184990  34.3479997 129.8689992 115.8074990  33.9299997
 127.0979992 114.4764990  38.0659997 126.9099992 115.6874990  37.6919997
 126.4739992 116.1134990  36.6219997 127.4149992 116.6274990  38.8769997
 128.4469992 116.2714990  39.0809997 126.6589992 116.5624990  39.6889997
 127.5569992 118.1434990  38.4729997 126.5289992 118.4884990  38.2309997
 128.2179992 118.3434990  37.6029997 127.9979992 118.9934990  39.7329997
 127.1819992 118.6904990  40.4229997 127.9079992 120.0584990  39.4319997
 129.3859992 118.5724990  40.1789997 129.9239992 119.5364990  40.3029997
 129.9039992 118.0194990  39.3659997 129.6059992 117.6854990  41.3859997
 130.5409992 117.0924990  41.2879997 128.7009992 117.0734990  41.5869997
 129.7479992 118.5424990  42.7129997 128.6679992 118.7544990  42.8629997
 130.3749992 119.4274990  42.4719997 130.3549992 117.8384990  43.9069997
 130.3569992 118.5304990  44.7759997 131.3679992 117.4634990  43.6479997
 129.5409992 116.5404990  44.1339997 130.2179992 115.7184990  43.8559997
 128.3739992 116.3584990  44.7339997 127.8849992 115.3884990  44.5599997
 127.5109992 117.5014990  45.2819997 126.5039992 117.2604990  44.8779997
 127.7859992 118.4754990  44.8239997 127.3769992 117.4294990  46.8119997
 127.3209992 116.3814990  47.1749997 126.4189992 117.8724990  47.1559997
 128.5979992 118.0794990  47.5539997 128.7729992 119.1634990  47.3839997
 129.5279992 117.5034990  47.3589997 128.4959992 117.9254990  49.1359997
 128.4219992 116.8664990  49.4649997 127.4889992 118.3434990  49.3489997
 129.4949992 118.8014990  49.8949997 129.2319992 119.8424990  49.6069997
 130.4259992 118.6374990  49.3119997 129.4259992 118.5444990  51.3679997
 128.4649992 118.9444990  51.7559997 130.1899992 119.1414990  51.9119997
 129.4599992 117.0964990  51.9329997 130.3209992 116.5774990  51.4599997
 128.5309992 116.6354990  51.5349997 129.5759992 116.8324990  53.4309997
 129.2259992 117.7374990  53.9729997 130.6069992 116.5474990  53.7329997
 129.0439992 115.9014990  53.7199997 122.6869992  16.4314990  54.4509997
 122.2819992  15.3974990  54.4489997 122.0239992  17.0684990  55.0739997
 123.6679992  16.3484990  54.9649997 122.9859992  17.1014990  53.1249997
 123.5359992  18.0524990  53.2909997 123.6779992  16.5024990  52.4949997
 121.8049992  17.4104990  52.1909997 121.3059992  18.3494990  52.5119997
 122.1409992  17.5424990  51.1409997 120.6489992  16.3994990  52.1529997
 120.4439992  16.2464990  53.2349997 119.7509992  16.8334990  51.6639997
 120.9769992  15.0484990  51.5159997 121.7959992  14.4774990  52.0049997
 119.9929992  14.5354990  51.4579997 121.3359992  15.1194990  50.0229997
 120.6859992  15.8694990  49.5239997 122.3579992  15.5474990  49.9429997
 121.3359992  13.7064990  49.3789997 121.5369992  12.9764990  50.1919997
 120.2929992  13.4474990  49.0979997 122.4029992  13.4554990  48.2869997
 123.3689992  13.4514990  48.8349997 122.2659992  12.3714990  48.0889997
 122.5759992  14.3204990  47.1039997 121.6759992  14.5344990  46.4889997
 122.9899992  15.2994990  47.4269997 123.5949992  13.7614990  46.0789997
 124.5839992  13.8574990  46.5759997 123.4069992  12.6684990  46.0189997
 123.7769992  14.3074990  44.6319997 124.2009992  15.3334990  44.5849997
 124.4729992  13.6234990  44.1009997 122.5539992  14.1134990  43.6319997
 122.4499992  13.0144990  43.5099997 121.6649992  14.5884990  44.0979997
 122.8639992  14.6564990  42.2209997 123.6549992  14.0204990  41.7699997
 121.8909992  14.5784990  41.6909997 123.2849992  16.1624990  42.1849997
 122.8429992  16.7174990  43.0399997 124.3939992  16.2134990  42.2149997
 123.0259992  16.7264990  40.8309997 123.6979992  16.1824990  40.1329997
 121.9319992  16.7224990  40.6349997 123.4969992  18.1784990  40.8069997
 124.0899992  18.7194990  41.7369997 123.4759992  18.6254990  39.5089997
 124.2599992  19.7034990  39.1239997 123.6799992  20.3674990  38.4479997
 124.6379992  20.2534990  40.0119997 125.4709992  19.1964990  38.2439997
 126.0219992  20.0564990  37.8079997 124.9899992  18.1814990  37.1509997
 124.4419992  17.3514990  37.6439997 124.2449992  18.7614990  36.5649997
 126.0899992  17.7334990  36.3349997 125.8409992  16.4684990  35.4259997
 125.1459992  15.4124990  36.3379997 125.6809992  14.9784990  37.6239997
 126.4829992  14.2194990  37.5049997 126.1679992  15.8044990  38.1849997
 124.5839992  14.4994990  38.5719997 124.9959992  14.5224990  39.5699997
 123.7719992  15.2114990  38.5659997 124.0139992  13.0594990  38.3089997
 122.8879992  13.0914990  37.2739997 122.0789992  13.6904990  37.6639997
 123.1919992  13.4364990  36.2969997 122.4589992  12.1024990  37.2209997
 125.0409992  12.1234990  37.7169997 125.1049992  12.3154990  36.6559997
 126.0029992  12.2644990  38.1869997 124.8209992  11.0864990  37.9219997
 123.5679992  12.5344990  39.5799997 124.3589992  12.5614990  40.3139997
 123.2759992  11.4954990  39.5899997 122.7709992  13.1364990  39.9909997
 124.8779992  16.8864990  34.3779997 127.1529992  15.9294990  34.9199997
 126.3779992  18.4574990  39.0449997 127.1629992  19.0124990  39.9309997
 127.3619992  20.1854990  40.1749997 127.9159992  17.8474990  40.6699997
 128.6809992  17.5244990  39.9329997 127.2989992  16.9334990  40.8029997
 128.5529992  18.4284990  41.9499997 129.1749992  19.3154990  41.7059997
 129.2259992  17.6904990  42.4359997 127.7129992  18.8164990  43.1569997
 126.8439992  19.3844990  42.7619997 128.4219992  19.4534990  43.7269997
 127.2689992  17.6034990  44.0799997 128.0849992  17.0674990  44.6109997
 126.6779992  16.8814990  43.4759997 126.4189992  18.1384990  45.2509997
 125.4379992  18.4854990  44.8619997 126.8669992  19.0764990  45.6419997
 126.1919992  17.0814990  46.3309997 126.9909992  16.3334990  46.1389997
 125.2849992  16.4734990  46.1229997 126.4699992  17.5744990  47.7619997
 127.4589992  18.0724990  47.6739997 126.5469992  16.6264990  48.3359997
 125.5719992  18.5784990  48.4989997 124.5369992  18.2054990  48.5269997
 125.9329992  19.7754990  48.9849997 125.1329992  20.4454990  49.3319997
 127.2559992  20.4844990  49.0039997 127.2239992  21.4744990  49.5069997
 127.5979992  20.5524990  47.9489997 128.4709992  19.9124990  49.8259997
 129.1529992  20.7614990  49.6059997 128.9239992  19.0154990  49.3519997
 128.2439992  19.7514990  51.3049997 127.2449992  19.3384990  51.5609997
 128.3309992  20.7424990  51.7999997 129.2459992  18.6454990  51.8959997
 129.0519992  18.7034990  52.9879997 130.2469992  19.1194990  51.8079997
 129.0579992  17.1804990  51.4509997 129.3539992  17.1864990  50.3799997
 127.9959992  16.8744990  51.5579997 129.9889992  16.2674990  52.2239997
 130.9869992  16.5894990  51.8549997 129.8469992  15.2434990  51.8179997
 129.9049992  16.3614990  53.7379997 128.8719992  15.9684990  53.8499997
 130.0249992  17.4044990  54.1019997 130.8609992  15.4204990  54.5359997
 131.1299992  15.9484990  55.4759997 131.8569992  15.1544990  54.1219997
 130.3229992  14.4824990  54.7889997   5.2779992 104.7584990  53.2329997
   4.5359992 104.5674990  54.0369997   6.2239992 104.3984990  53.6919997
   4.9269992 104.1604990  52.3659997   5.1829992 106.3064990  53.1439997
   5.9819992 106.5764990  52.4199997   4.1929992 106.4924990  52.6749997
   5.5159992 107.0504990  54.4179997   4.9369992 106.6884990  55.2949997
   6.6019992 106.9074990  54.6039997   5.3419992 108.5854990  54.2119997
   4.2399992 108.7264990  54.2489997   5.7219992 109.1524990  55.0889997
   5.8909992 109.3164990  53.0109997   5.4659992 108.8164990  52.1139997
   5.5889992 110.3854990  53.0009997   7.3939992 109.1714990  52.8289997
   7.8989992 109.4334990  53.7829997   7.4229992 108.0664990  52.7179997
   8.0079992 109.8734990  51.5979997   8.1509992 110.9014990  51.9939997
   9.0479992 109.5374990  51.3949997   7.0799992 109.9114990  50.4149997
   6.9489992 108.8634990  50.0689997   6.0389992 110.2814990  50.5299997
   7.7469992 110.5524990  49.1719997   7.0669992 110.3284990  48.3229997
   7.8079992 111.6584990  49.2659997   9.0959992 109.9164990  48.8269997
   9.8879992 110.0844990  49.5879997   8.8659992 108.8324990  48.7419997
   9.7219992 110.5394990  47.5489997   9.6949992 111.6434990  47.6689997
  10.7609992 110.1734990  47.4039997   8.8899992 110.0894990  46.3659997
   8.6969992 108.9964990  46.3639997   7.9129992 110.6004990  46.5049997
   9.5699992 110.4864990  45.0869997   9.5999992 111.5854990  45.2479997
  10.6279992 110.1484990  45.0939997   8.8819992 110.0604990  43.7319997
   9.4509992 110.4754990  42.8729997   8.8359992 108.9664990  43.5469997
   7.5939992 110.8014990  43.5709997   6.8759992 110.4254990  44.3319997
   7.6869992 111.9054990  43.6609997   6.8719992 110.5584990  42.2299997
   5.8209992 111.0344990  41.9419997   7.6099992 109.7324990  41.4379997
   7.1789992 109.6954990  40.0579997   6.2679992 109.0674990  39.9629997
   6.9639992 110.7284990  39.7079997   8.2609992 109.1554990  39.1219997
   9.0049992 109.9784990  39.1829997   7.8299992 109.0694990  37.6209997
   6.8299992 108.6224990  37.4349997   7.7529992 110.1224990  37.2769997
   8.8859992 108.4134990  36.8479997   8.5259992 107.3734990  35.6829997
   7.5669992 106.3354990  36.2139997   7.7369992 104.9234990  36.3089997
   7.8009992 104.6264990  35.2409997   8.6629992 104.5174990  36.7679997
   6.4579992 104.2274990  36.9229997   5.6569992 104.3444990  36.2079997
   6.7149992 103.1804990  36.9789997   6.0159992 104.7694990  38.2939997
   5.5839992 106.2624990  38.3309997   5.2739992 106.5854990  39.3139997
   6.2549992 106.9004990  37.7759997   4.7049992 106.3574990  37.7109997
   4.8349992 103.9244990  38.6909997   3.9709992 104.1794990  38.0959997
   4.9509992 102.8584990  38.5629997   4.6119992 104.0984990  39.7329997
   7.0909992 104.5184990  39.2669997   7.2789992 103.4814990  39.5039997
   6.8599992 105.0084990  40.2019997   7.9579992 105.0594990  38.9169997
   7.8529992 108.1224990  34.5869997   9.7849992 106.6574990  35.3229997
   8.7249992 107.9474990  39.6019997  10.0239992 107.5494990  39.5219997
  10.9499992 108.1084990  38.9399997  10.2019992 106.1844990  40.1909997
  10.2209992 105.5784990  39.2599997   9.2979992 105.8454990  40.7409997
  11.4629992 106.1504990  41.0699997  12.3079992 106.6394990  40.5399997
  11.6069992 105.0514990  41.1419997  11.2299992 106.6014990  42.5689997
  10.7999992 107.6244990  42.6109997  12.2379992 106.6674990  43.0309997
  10.5029992 105.5894990  43.5149997  11.0179992 104.6084990  43.6019997
   9.5129992 105.4854990  43.0219997  10.1799992 106.0874990  44.9059997
   9.6819992 107.0804990  44.9029997  11.1539992 106.0884990  45.4399997
   9.1469992 105.1334990  45.4949997   9.7199992 104.2474990  45.8449997
   8.3979992 104.7704990  44.7579997   8.4999992 105.8544990  46.6789997
   8.0399992 106.7364990  46.1829997   9.2669992 106.3084990  47.3429997
   7.5969992 104.9654990  47.5909997   6.5499992 104.8194990  47.2879997
   7.8459992 104.3984990  48.7069997   7.0219992 103.7834990  49.0979997
   9.0469992 104.4014990  49.6029997   9.8019992 105.1324990  49.2439997
   9.5769992 103.4254990  49.6129997   8.4699992 104.8614990  51.0059997
   7.6619992 104.2204990  51.4199997   7.9849992 105.8554990  50.9049997
   9.4899992 105.0094990  52.1779997   9.0669992 105.7674990  52.8719997
  10.4689992 105.3744990  51.7999997   9.5589992 103.6944990  53.0069997
  10.2389992 103.0074990  52.4599997   8.5559992 103.2164990  53.0059997
   9.9999992 103.9544990  54.4569997  10.7039992 104.8134990  54.5049997
  10.4459992 103.0054990  54.8249997   8.9379992 104.4364990  55.4379997
   8.3959992 105.1444990  54.7749997   9.3919992 105.0744990  56.2259997
   7.9659992 103.3564990  55.9369997   8.4689992 102.6164990  56.5949997
   7.4519992 102.7894990  55.1309997   6.8629992 104.0344990  56.8359997
   6.6659992 105.0114990  56.3439997   7.2619992 104.1264990  57.8689997
   5.9619992 103.3884990  56.9029997   1.1169992  32.7914990  54.0999997
   2.2249992  32.7214990  54.1469997   0.5429992  31.9514990  54.5469997
   0.7929992  33.7214990  54.6149997   0.9519992  32.9774990  52.6139997
  -0.1040008  32.9484990  52.2709997   1.4719992  33.9154990  52.3249997
   1.6079992  31.9264990  51.7859997   2.5369992  31.6654990  52.3369997
   1.0709992  30.9554990  51.7359997   1.9489992  32.3714990  50.3369997
   2.0419992  31.3994990  49.8069997   1.1459992  33.0334990  49.9469997
   3.2479992  33.2354990  50.2659997   3.0479992  34.2064990  50.7679997
   4.0729992  32.7754990  50.8519997   3.6729992  33.4564990  48.8779997
   4.6479992  33.9854990  48.8059997   3.8829992  32.4754990  48.3989997
   2.6489992  34.0774990  47.9129997   1.6059992  33.7254990  48.0619997
   2.6049992  35.1804990  48.0399997   2.8199992  33.9034990  46.3979997
   3.1019992  32.8394990  46.2449997   1.8899992  34.2034990  45.8699997
   4.1289992  34.6244990  45.8179997   4.1639992  35.6244990  46.3009997
   4.8979992  33.9634990  46.2729997   4.2959992  34.6694990  44.3099997
   3.4389992  35.2214990  43.8689997   5.2659992  35.1134990  43.9999997
   4.2659992  33.2344990  43.7289997   4.9249992  32.6434990  44.3989997
   3.2109992  32.8894990  43.7749997   4.8629992  33.0404990  42.3299997
   4.2039992  33.3254990  41.4819997   5.7659992  33.6844990  42.2839997
   5.4089992  31.6054990  42.1409997   6.1829992  31.5464990  41.3459997
   5.9039992  31.2034990  43.0499997   4.2919992  30.6084990  41.8489997
   4.7579992  29.6024990  41.9259997   3.5709992  30.6164990  42.6939997
   3.6869992  30.7294990  40.3849997   3.7719992  31.7604990  39.9809997
   4.2449992  30.1054990  39.6539997   2.1749992  30.3114990  40.3749997
   1.8509992  29.1254990  40.4389997   1.3649992  31.2884990  40.2909997
  -0.0660008  30.9574990  40.2859997  -0.3090008  30.5484990  39.2829997
  -0.3440008  30.1584990  41.0059997  -0.9020008  32.2274990  40.5869997
  -1.9800008  32.0144990  40.4209997  -0.5990008  33.4784990  39.6279997
  -1.1180008  33.2644990  38.6689997  -0.9570008  34.4754990  39.9629997
   0.8189992  33.5874990  39.3529997   1.3509992  34.6804990  38.3249997
   0.9749992  34.0714990  36.9339997   0.7429992  32.6974990  36.6809997
  -0.1390008  32.2934990  37.2219997   0.4459992  32.6994990  35.6099997
   1.9959992  31.8314990  36.8589997   2.5369992  32.1964990  37.7199997
   1.7049992  30.8284990  37.1359997   2.9059992  31.6644990  35.6509997
   2.2389992  31.0754990  34.4469997   1.5159992  31.8104990  34.1239997
   3.0179992  30.8254990  33.7429997   1.6589992  30.2044990  34.7149997
   3.4649992  33.0444990  35.2349997   2.6259992  33.6394990  34.9059997
   3.9019992  33.6644990  36.0049997   4.2859992  32.9054990  34.5469997
   4.0299992  30.7774990  36.1589997   3.6089992  29.8214990  36.4329997
   4.2129992  31.2694990  37.1019997   4.8789992  30.6284990  35.5079997
   0.6059992  35.9084990  38.4429997   2.8219992  34.7634990  38.3849997
  -0.5810008  32.5704990  41.9529997  -1.6810008  33.0264990  42.6969997
  -2.7420008  33.2934990  42.1859997  -1.2750008  32.9914990  44.1919997
  -0.3150008  33.4914990  44.4429997  -1.1500008  31.9224990  44.4679997
  -2.3860008  33.4544990  45.0599997  -3.3290008  32.9814990  44.7109997
  -2.5030008  34.5554990  44.9679997  -2.2430008  33.1344990  46.5029997
  -3.1250008  33.5264990  47.0529997  -1.3660008  33.7154990  46.8589997
  -2.0290008  31.6974990  47.0399997  -0.9600008  31.4294990  46.9039997
  -2.7080008  31.0174990  46.4829997  -2.4310008  31.5014990  48.5829997
  -3.5270008  31.6584990  48.6819997  -1.8830008  32.2384990  49.2089997
  -2.2390008  30.0934990  49.1309997  -1.1470008  29.9384990  48.9979997
  -2.8490008  29.3354990  48.5939997  -2.5360008  29.9254990  50.6559997
  -2.0260008  30.8154990  51.0819997  -2.0350008  29.0334990  51.0909997
  -4.0670008  29.7994990  50.8759997  -4.6360008  30.6804990  50.5459997
  -4.5450008  28.7534990  51.5269997  -5.6210008  28.5714990  51.6599997
  -3.7890008  27.5754990  52.1789997  -2.9630008  27.1494990  51.5709997
  -4.4710008  26.7044990  52.2839997  -3.3040008  27.8924990  53.6069997
  -2.9500008  28.9414990  53.6969997  -2.4010008  27.3254990  53.9199997
  -4.2710008  27.5184990  54.6999997  -4.3130008  26.4194990  54.8569997
  -5.3110008  27.7224990  54.3679997  -3.8820008  28.3214990  55.9879997
  -4.6320008  28.2224990  56.8019997  -3.7390008  29.3654990  55.6389997
  -2.5420008  27.7284990  56.5859997  -1.8450008  27.5524990  55.7379997
  -2.6590008  26.7004990  56.9909997  -1.9700008  28.6044990  57.7149997
  -1.0200008  28.1604990  58.0829997  -2.7790008  28.5794990  58.4759997
  -1.6580008  30.0074990  57.3019997  -1.3310008  30.6184990  58.1699997
  -2.6080008  30.5414990  57.0829997  -0.6290008  30.3074990  56.1629997
  -0.4220008  31.3984990  56.1959997  -1.0930008  29.9124990  55.2339997
   0.2949992  29.7234990  56.3609997   9.7069992  20.3004990  55.9329997
   9.3749992  21.3564990  56.0279997  10.7769992  20.2914990  55.6359997
   9.4759992  19.7734990  56.8839997   8.9129992  19.5934990  54.8199997
   7.9159992  19.3084990  55.2169997   8.7289992  20.2894990  53.9729997
   9.7249992  18.4394990  54.2949997  10.7239992  18.6914990  53.8809997
   9.7409992  17.7594990  55.1739997   9.0879992  17.7354990  53.0009997
   9.8949992  17.1594990  52.5009997   8.3479992  17.0154990  53.4099997
   8.3039992  18.5974990  51.9659997   7.3739992  19.0024990  52.4189997
   8.8999992  19.5014990  51.7129997   7.8089992  17.7594990  50.7259997
   8.7129992  17.4784990  50.1439997   7.4729992  16.7914990  51.1549997
   6.8649992  18.5454990  49.9509997   6.0729992  18.8144990  50.6819997
   7.2609992  19.5174990  49.5859997   6.3429992  17.7404990  48.7129997
   6.0939992  16.7304990  49.1029997   5.3459992  18.0454990  48.3279997
   7.4119992  17.5904990  47.5709997   7.6429992  18.5724990  47.1059997
   8.3749992  17.1924990  47.9559997   7.0739992  16.6034990  46.4519997
   7.0109992  15.5614990  46.8339997   6.0979992  16.9114990  46.0209997
   8.0669992  16.6894990  45.2759997   9.0399992  16.4524990  45.7549997
   7.8649992  15.9244990  44.4959997   8.0069992  18.0494990  44.4889997
   6.9609992  18.4194990  44.4329997   8.5169992  18.8004990  45.1289997
   8.7969992  17.9984990  43.1499997   9.7139992  17.4004990  43.3399997
   8.1459992  17.4824990  42.4119997   9.4239992  19.2624990  42.6419997
  10.0039992  19.6464990  43.5089997  10.0079992  18.9724990  41.7419997
   8.3269992  20.2974990  42.2229997   7.8469992  20.0344990  41.2559997
   7.6209992  20.3094990  43.0799997   9.0109992  21.6044990  42.0069997
   9.7759992  21.9984990  42.8429997   8.5809992  22.1714990  40.9259997
   9.3589992  23.2454990  40.4379997   8.6449992  24.0264990  40.1019997
  10.0569992  23.7314990  41.1529997  10.2469992  22.7394990  39.2449997
  10.6889992  23.6194990  38.7319997   9.2999992  22.0094990  38.2449997
   8.3029992  22.4924990  38.1709997   9.7809992  21.9524990  37.2449997
   9.0549992  20.6554990  38.5949997   7.8439992  19.8844990  37.9899997
   8.4389992  18.5044990  37.4899997   9.5979992  17.9674990  38.0819997
   9.8159992  18.3944990  39.0839997   9.4109992  16.8724990  38.0879997
  10.9159992  18.2004990  37.2449997  11.1129992  19.2594990  37.3329997
  11.6529992  17.5034990  37.6149997  10.9079992  17.8704990  35.6629997
  10.2159992  19.0324990  34.9159997  10.2579992  18.9844990  33.8369997
   9.1729992  18.9924990  35.1919997  10.5959992  19.9834990  35.2579997
  12.2979992  17.7384990  35.1009997  12.7229992  16.8784990  35.5969997
  12.4029992  17.7014990  34.0269997  12.8359992  18.6004990  35.4679997
  10.0969992  16.5754990  35.5079997   9.0869992  16.8644990  35.7579997
  10.4369992  15.7844990  36.1599997  10.2499992  16.2694990  34.4839997
   6.8329992  19.5434990  39.0589997   7.3639992  20.6414990  36.8229997
  11.3709992  21.8674990  39.6979997  12.2559992  21.6194990  38.8269997
  12.3169992  22.1144990  37.7119997  13.3299992  20.6924990  39.3119997
  14.3219992  21.1794990  39.4259997  13.4529992  19.8944990  38.5489997
  12.8639992  19.9084990  40.5699997  11.8419992  19.4824990  40.4899997
  13.0319992  20.5584990  41.4559997  13.7569992  18.6274990  40.8879997
  14.8039992  18.9654990  41.0439997  13.8249992  18.0594990  39.9349997
  13.3089992  17.7054990  42.0089997  14.1489992  17.0704990  42.3609997
  12.3939992  17.1454990  41.7199997  12.8879992  18.5234990  43.2779997
  12.0669992  19.1914990  42.9379997  13.7239992  19.0814990  43.7509997
  12.4379992  17.5034990  44.3469997  13.2619992  16.7694990  44.4779997
  11.6679992  16.8624990  43.8669997  11.9379992  18.1104990  45.6659997
  11.5799992  17.2144990  46.2169997  11.0329992  18.6854990  45.3729997
  12.8059992  19.0464990  46.4459997  13.6409992  18.5894990  46.9979997
  12.6209992  20.4144990  46.6099997  13.2809992  21.0484990  47.2199997
  11.4569992  21.2904990  46.1099997  11.1889992  20.8164990  45.1409997
  11.7289992  22.3464990  45.8929997  10.3059992  20.9934990  47.0249997
  10.0599992  19.9254990  47.2099997   9.3979992  21.3604990  46.5009997
  10.3879992  21.9074990  48.2279997  10.5799992  22.9404990  47.8659997
  11.2529992  21.6764990  48.8859997   9.1679992  21.8784990  49.1169997
   8.7799992  20.8794990  49.4109997   8.3959992  22.3904990  48.5049997
   9.3699992  22.4824990  50.4999997   8.4729992  22.3524990  51.1419997
   9.4709992  23.5884990  50.4589997  10.6059992  22.0474990  51.2899997
  11.4789992  22.5304990  50.7999997  10.7199992  20.9554990  51.1229997
  10.7719992  22.4204990  52.7919997  11.7429992  21.9424990  53.0429997
   9.9669992  21.9324990  53.3819997  10.8199992  23.9414990  53.2309997
  11.8809992  24.2574990  53.3179997  10.3599992  24.2234990  54.2029997
  10.2639992  24.4824990  52.4349997  12.7339992 121.1974990  54.8059997
  12.8599992 122.1794990  54.3029997  13.1319992 121.3834990  55.8259997
  11.6239992 121.1414990  54.7939997  13.4099992 120.0664990  54.0919997
  14.5189992 120.1184990  54.0459997  13.2749992 119.0644990  54.5519997
  12.7819992 119.9254990  52.7089997  11.6869992 119.7604990  52.6219997
  12.9829992 120.9074990  52.2289997  13.4019992 118.7844990  51.8799997
  14.4799992 119.0474990  51.8209997  13.4769992 117.8344990  52.4499997
  12.7789992 118.5014990  50.5219997  11.7129992 118.1884990  50.5209997
  12.7819992 119.3814990  49.8429997  13.5879992 117.3104990  49.8099997
  13.5919992 116.4674990  50.5339997  13.0559992 116.8724990  48.9389997
  14.9329992 117.6624990  49.2829997  15.6349992 117.8814990  50.1159997
  15.3249992 116.7114990  48.8649997  14.9589992 118.7324990  48.2009997
  14.6109992 119.6824990  48.6599997  15.9759992 118.9294990  47.7999997
  13.8969992 118.5784990  47.0619997  13.8459992 117.5084990  46.7659997
  13.0009992 118.8704990  47.6509997  14.0619992 119.4134990  45.7719997
  14.8999992 119.0474990  45.1409997  13.1549992 119.1614990  45.1829997
  14.2939992 120.8514990  46.0669997  13.3479992 121.3074990  46.4299997
  15.0499992 120.9764990  46.8719997  14.9249992 121.3734990  44.7569997
  15.9999992 121.1124990  44.6519997  14.4079992 120.7924990  43.9639997
  14.8149992 122.8864990  44.7019997  13.7339992 123.1244990  44.7969997
  15.1599992 123.3824990  45.6339997  15.4269992 123.5744990  43.4279997
  14.8879992 124.5434990  43.3629997  16.5139992 123.7314990  43.5969997
  15.3679992 122.7504990  42.1989997  16.0079992 121.8444990  42.2669997
  14.3219992 122.3854990  42.1289997  15.7889992 123.5894990  40.9949997
  16.6879992 124.4044990  41.0689997  15.0359992 123.3354990  39.9209997
  15.4249992 124.1144990  38.7819997  14.4369992 124.1154990  38.2749997
  15.7369992 125.1274990  39.1169997  16.3949992 123.2744990  37.9589997
  16.6909992 123.7264990  36.9879997  15.8649992 121.8064990  37.7299997
  14.7949992 121.8834990  37.4419997  16.4609992 121.3784990  36.8959997
  16.0079992 121.0214990  38.9029997  15.9539992 119.4394990  39.0489997
  15.2859992 118.8774990  37.7059997  13.9509992 118.9894990  37.3419997
  13.3379992 118.1304990  37.6879997  13.5529992 119.9524990  37.7289997
  13.9189992 119.2294990  35.7579997  12.8619992 119.2594990  35.5399997
  14.2999992 120.2174990  35.5459997  14.6369992 118.2744990  34.8669997
  14.1329992 118.5504990  33.4449997  14.4109992 119.5874990  33.3309997
  14.5669992 117.8804990  32.7179997  13.0539992 118.5114990  33.4089997
  16.1489992 118.4744990  34.8909997  16.5159992 119.4704990  34.6929997
  16.4489992 118.1144990  35.8639997  16.4809992 117.8684990  34.0609997
  14.2519992 116.8404990  35.2339997  14.7259992 116.7574990  36.2009997
  14.6079992 116.0894990  34.5449997  13.1739992 116.7884990  35.1809997
  17.3699992 119.0664990  39.0429997  15.1829992 119.0714990  40.2329997
  17.6119992 123.1584990  38.7559997  18.6699992 122.7604990  38.0569997
  18.7379992 122.3984990  36.9019997  19.9319992 122.8504990  39.0129997
  19.7899992 123.8134990  39.5479997  20.8899992 123.0394990  38.4819997
  20.0629992 121.6804990  40.0299997  20.9729992 122.0354990  40.5579997
  20.3759992 120.7604990  39.4929997  19.0729992 121.4874990  41.1269997
  18.1179992 121.3724990  40.5709997  19.0299992 122.4194990  41.7309997
  19.3309992 120.3274990  42.0039997  20.2529992 120.6024990  42.5609997
  19.5169992 119.5134990  41.2709997  18.1619992 119.8654990  42.8599997
  17.3539992 119.3804990  42.2709997  17.7109992 120.6894990  43.4539997
  18.5629992 118.8754990  43.9499997  19.4469992 118.3504990  43.5289997
  17.6849992 118.2044990  44.0659997  18.9269992 119.4604990  45.3779997
  18.9919992 118.5434990  46.0009997  18.1149992 120.0934990  45.7949997
  20.2149992 120.2804990  45.5159997  21.0529992 119.6614990  45.8689997
  20.3429992 121.6584990  45.4159997  21.3029992 122.1844990  45.5249997
  19.2419992 122.6394990  45.1759997  18.3729992 122.1394990  44.6959997
  19.5039992 123.3644990  44.3759997  18.7269992 123.3044990  46.4989997
  17.7879992 123.8564990  46.2809997  19.5279992 124.0204990  46.7839997
  18.2619992 122.3664990  47.6339997  18.9949992 121.6554990  48.0709997
  17.4459992 121.7204990  47.2449997  17.7379992 123.2094990  48.7819997
  16.9399992 123.9114990  48.4589997  18.4949992 123.9734990  49.0619997
  17.4409992 122.4464990  50.0829997  18.2629992 121.7584990  50.3749997
  16.6019992 121.7604990  49.8359997  16.9359992 123.2624990  51.2979997
  16.0899992 123.9424990  51.0629997  17.7979992 123.8404990  51.6929997
  16.4529992 122.4334990  52.5469997  15.5219992 121.8804990  52.2989997
  16.2289992 123.2764990  53.2349997  17.3799992 121.3774990  53.0749997
  18.3379992 121.8224990  53.4199997  17.7239992 120.6944990  52.2689997
  16.9279992 120.8694990  53.9539997 132.8839992  17.9204990  58.2479997
 132.6089992  17.3424990  59.1559997 133.1769992  17.3104990  57.3669997
 131.9649992  18.3094990  57.7589997 134.0139992  19.0244990  58.3879997
 133.6869992  19.6694990  59.2319997 134.9109992  18.4204990  58.6429997
 134.1829992  19.8614990  57.1049997 135.2429992  19.9834990  56.7919997
 133.7559992  19.3094990  56.2409997 133.4039992  21.1744990  57.0029997
 132.3219992  20.9604990  56.8679997 133.4929992  21.6994990  57.9779997
 133.6829992  21.9494990  55.7929997 134.7209992  22.3374990  55.8629997
 133.6339992  21.2834990  54.9049997 132.7289992  23.1534990  55.5319997
 131.6559992  22.9064990  55.6849997 132.9369992  23.8854990  56.3409997
 132.8799992  23.8354990  54.1569997 132.2879992  24.7704990  54.2619997
 133.9109992  24.1684990  53.9119997 132.3049992  23.0344990  52.9569997
 132.9109992  22.1154990  52.8079997 131.3169992  22.6124990  53.2389997
 132.2229992  23.8164990  51.6589997 131.5819992  24.7164990  51.7789997
 133.2529992  24.1824990  51.4609997 131.7909992  22.7844990  50.5839997
 132.5119992  21.9514990  50.4399997 130.8259992  22.4014990  50.9779997
 131.4419992  23.3844990  49.1929997 130.4599992  23.8904990  49.3189997
 132.2739992  24.0844990  48.9629997 131.1719992  22.3894990  48.0319997
 130.4359992  21.7224990  48.5289997 130.7679992  23.0294990  47.2179997
 132.3219992  21.4884990  47.5749997 133.1269992  22.1504990  47.1909997
 132.7729992  20.8324990  48.3489997 131.7119992  20.5604990  46.4199997
 131.0879992  19.7584990  46.8689997 131.0759992  21.1524990  45.7279997
 132.6899992  19.8964990  45.5609997 133.4139992  20.6254990  45.1389997
 133.1359992  19.1024990  46.1969997 131.9589992  19.3654990  44.3109997
 130.7829992  19.4834990  44.1369997 132.7609992  18.7074990  43.5059997
 132.3159992  18.2284990  42.1979997 132.9479992  17.3614990  41.9089997
 131.2499992  17.9534990  42.3479997 132.2839992  19.2524990  41.1159997
 131.4779992  19.9574990  41.4119997 131.7969992  18.6694990  39.8109997
 132.2669992  17.6634990  39.7739997 130.6939992  18.5384990  39.7669997
 132.2269992  19.4084990  38.6809997 131.3199992  20.6694990  38.3649997
 131.9609992  21.1134990  37.0239997 133.2549992  21.7054990  36.8579997
 133.3409992  22.2994990  35.9229997 133.4399992  22.3844990  37.7169997
 134.3629992  20.5534990  36.8859997 135.3229992  21.0244990  37.0399997
 134.1819992  19.9384990  37.7539997 134.3849992  19.6844990  35.6589997
 133.0769992  18.9044990  35.5069997 132.9449992  18.2914990  36.3859997
 132.1789992  19.4974990  35.5909997 133.1399992  18.2184990  34.6749997
 134.6059992  20.5884990  34.4159997 133.5899992  20.8884990  34.2099997
 135.1549992  21.4664990  34.7259997 135.0679992  20.0044990  33.6339997
 135.4029992  18.6084990  35.7169997 135.2709992  17.9304990  34.8869997
 135.0739992  18.0654990  36.5909997 136.4129992  18.9734990  35.8359997
 129.8909992  20.2964990  38.0649997 131.4939992  21.7844990  39.2939997
 133.6339992  19.9104990  41.0349997 133.7829992  20.9754990  41.8089997
 132.9199992  21.5034990  42.5329997 135.1719992  21.3894990  41.5799997
 135.1689992  22.4124990  41.1459997 135.7519992  20.6634990  40.9699997
 135.9269992  21.5284990  42.8599997 135.2849992  22.1124990  43.5539997
 136.8609992  22.1254990  42.7829997 136.4319992  20.2084990  43.4569997
 137.1499992  19.7834990  42.7229997 135.6399992  19.4304990  43.4949997
 137.1319992  20.3914990  44.8469997 138.0979992  20.8754990  44.5889997
 137.5109992  19.3894990  45.1409997 136.3929992  21.0384990  45.9739997
 135.4019992  20.5674990  46.1509997 136.2189992  22.1194990  45.7849997
 136.9519992  20.9794990  47.4059997 136.3299992  21.5564990  48.1239997
 137.9159992  21.5244990  47.3249997 137.2549992  19.5554990  48.0299997
 137.5519992  19.7064990  49.0899997 138.1799992  19.1894990  47.5359997
 136.1839992  18.5424990  47.9069997 135.9209992  18.1694990  46.9059997
 135.4009992  17.9764990  48.8889997 134.7509992  17.1254990  48.6379997
 135.5639992  18.3464990  50.3599997 136.5819992  18.7374990  50.5739997
 135.3839992  17.4854990  51.0379997 134.6069992  19.4244990  50.8229997
 133.5759992  19.0654990  50.6169997 134.6939992  20.4204990  50.3369997
 134.6539992  19.7674990  52.2649997 134.1309992  20.7044990  52.5549997
 135.7029992  19.8604990  52.6169997 133.9099992  18.7204990  53.1239997
 134.1929992  18.9454990  54.1749997 134.2699992  17.6894990  52.9229997
 132.3809992  18.7884990  53.0309997 132.0119992  18.4864990  52.0269997
 132.1179992  19.8454990  53.2479997 131.6379992  17.9164990  54.0509997
 132.0229992  18.0444990  55.0849997 131.7219992  16.8224990  53.8769997
 130.1139992  18.1304990  53.9939997 129.6329992  17.8594990  53.0299997
 129.9919992  19.2324990  54.0609997 129.2849992  17.4434990  55.0489997
 129.6069992  17.8304990  56.0399997 129.3289992  16.3344990  55.0979997
 128.2079992  17.6464990  54.8699997  39.3049992 136.7064990  57.5339997
  39.1289992 136.0384990  56.6639997  38.6639992 136.4304990  58.3979997
  40.3739992 136.5974990  57.8169997  39.0589992 138.2224990  57.2319997
  39.2079992 138.8814990  58.1139997  39.9559992 138.5004990  56.6379997
  37.8239992 138.4904990  56.5399997  37.6419992 137.7224990  55.7589997
  37.0509992 138.2914990  57.3129997  37.6989992 139.9234990  55.9799997
  36.6799992 139.8794990  55.5409997  37.6709992 140.5114990  56.9219997
  38.7669992 140.5524990  55.0029997  38.7749992 141.6344990  55.2579997
  39.7139992 140.2594990  55.5049997  38.6439992 140.2704990  53.4799997
  39.6039992 140.5384990  52.9869997  38.6889992 139.1664990  53.3689997
  37.3309992 140.7264990  52.7659997  36.4259992 140.2854990  53.2359997
  37.1349992 141.8194990  52.8059997  37.2719992 140.1704990  51.3349997
  38.0779992 140.6854990  50.7699997  37.5079992 139.0864990  51.3759997
  35.9939992 140.6384990  50.6629997  35.0839992 140.2924990  51.1979997
  35.9519992 141.7464990  50.7349997  35.7299992 140.1114990  49.1959997
  35.5589992 139.0174990  49.2789997  34.8759992 140.6954990  48.7909997
  37.0269992 140.3184990  48.3059997  37.1669992 141.4074990  48.1379997
  37.9699992 139.8174990  48.6129997  36.7179992 139.6724990  46.9219997
  35.7189992 140.0014990  46.5649997  37.4379992 139.9854990  46.1369997
  36.7409992 138.0834990  46.8159997  36.9789992 137.6774990  47.8219997
  35.6619992 137.8864990  46.6389997  37.7319992 137.7264990  45.7369997
  38.6569992 138.2324990  46.0879997  37.8929992 136.6284990  45.6969997
  37.3259992 137.9964990  44.2529997  36.9999992 137.0684990  43.7369997
  36.3589992 138.5394990  44.1859997  38.5019992 138.6994990  43.4379997
  39.2869992 139.5094990  43.8449997  38.6089992 138.0684990  42.2329997
  39.6719992 138.5314990  41.3779997  39.1069992 139.1944990  40.6869997
  40.4139992 139.1544990  41.9209997  40.3259992 137.3714990  40.5859997
  41.1549992 136.9764990  41.2109997  40.8369992 137.9544990  39.2669997
  39.9609992 138.4594990  38.8069997  41.5999992 138.7454990  39.4279997
  41.3809992 136.9044990  38.4819997  40.8749992 136.8984990  36.8979997
  39.3029992 137.1084990  37.0979997  38.3899992 136.5114990  36.2019997
  38.4559992 136.9464990  35.1819997  38.5349992 135.4124990  36.1429997
  36.9089992 136.6704990  36.7699997  36.2389992 136.1554990  36.0979997
  36.9239992 136.1854990  37.7349997  36.5059992 138.0754990  37.0469997
  36.6139992 138.9524990  35.7909997  36.4289992 139.9544990  36.1489997
  37.5889992 138.8444990  35.3379997  35.9239992 138.5944990  35.0419997
  35.0419992 138.1114990  37.4779997  34.3969992 137.5644990  36.8059997
  34.8329992 137.6014990  38.4069997  34.7469992 139.1504990  37.4389997
  37.3199992 138.6584990  38.1959997  37.4479992 138.0574990  39.0849997
  36.9049992 139.6014990  38.5199997  38.2689992 138.8694990  37.7239997
  41.4859992 138.0774990  36.1439997  41.0179992 135.5144990  36.3649997
  39.3459992 136.3954990  40.4359997  39.6629992 135.0734990  40.4649997
  40.7779992 134.5944990  40.4779997  38.3679992 134.1604990  40.5719997
  38.6169992 133.1494990  40.1839997  37.6889992 134.6984990  39.8769997
  37.9629992 134.1094990  42.0279997  37.1459992 133.3594990  42.0969997
  37.5249992 135.0494990  42.4249997  39.0379992 133.4794990  43.0269997
  39.7259992 132.9084990  42.3679997  38.5739992 132.7364990  43.7099997
  39.7099992 134.5774990  43.8249997  38.9999992 134.8864990  44.6219997
  39.8059992 135.5254990  43.2539997  41.0439992 134.0144990  44.5249997
  41.6069992 133.5304990  43.6979997  40.7729992 133.1744990  45.1999997
  41.7609992 135.0064990  45.4759997  42.5189992 134.5524990  46.1499997
  40.9729992 135.2674990  46.2139997  42.1479992 136.4144990  44.8199997
  41.1849992 136.9334990  44.6279997  42.5629992 136.1754990  43.8179997
  43.1659992 137.0254990  45.7719997  44.2139992 136.7074990  45.6719997
  42.9359992 137.9444990  46.7249997  43.8269992 138.2584990  47.2879997
  41.5499992 138.5494990  46.9559997  40.8599992 138.2144990  46.1519997
  41.7349992 139.6444990  46.9869997  40.7279992 138.2634990  48.2539997
  39.7719992 138.8254990  48.1869997  41.3119992 138.6154990  49.1309997
  40.2619992 136.8024990  48.4839997  41.0969992 136.0704990  48.4559997
  39.5859992 136.6174990  47.6219997  39.6179992 136.5214990  49.8929997
  38.6419992 137.0284990  50.0479997  40.3829992 136.9014990  50.6039997
  39.3839992 135.0904990  50.1439997  40.2339992 134.4014990  49.9519997
  38.5029992 134.8754990  49.5019997  38.9969992 134.7824990  51.6539997
  39.6649992 135.3474990  52.3389997  39.1049992 133.6794990  51.7439997
  37.6109992 135.1544990  52.0149997  36.9199992 134.5484990  51.3919997
  37.3599992 136.2294990  51.8969997  37.3399992 134.9164990  53.5109997
  36.3519992 135.3724990  53.7339997  38.2259992 135.2154990  54.1119997
  37.4229992 133.8674990  53.8659997  30.2939992 133.9794990  53.3859997
  29.2729992 133.9624990  52.9489997  30.7579992 134.9614990  53.1489997
  30.2659992 133.9214990  54.4949997  31.1219992 132.8444990  52.7169997
  32.0839992 132.8524990  53.2729997  30.5929992 131.8694990  52.7909997
  31.3499992 133.0504990  51.2019997  31.6709992 134.1014990  51.0399997
  32.0569992 132.3224990  50.7499997  29.9819992 132.6394990  50.5209997
  30.0939992 131.6274990  50.0759997  29.1179992 132.7404990  51.2129997
  29.6259992 133.5744990  49.3819997  28.6409992 133.3064990  48.9439997
  29.4919992 134.6034990  49.7779997  30.5709992 133.7594990  48.2009997
  30.0909992 134.3304990  47.3779997  31.4549992 134.3494990  48.5239997
  31.1579992 132.5064990  47.4429997  31.7169992 131.9424990  48.2189997
  30.2859992 131.8744990  47.1679997  31.9909992 132.7304990  46.1179997
  31.5039992 132.2484990  45.2429997  31.8339992 133.8104990  45.9089997
  33.4049992 132.3424990  46.2479997  33.9859992 132.8304990  45.4359997
  33.8819992 132.7604990  47.1599997  33.6959992 130.8374990  46.1869997
  33.0509992 130.1174990  46.7339997  33.6499992 130.7044990  45.0849997
  35.1449992 130.4724990  46.5599997  35.3119992 130.6934990  47.6359997
  35.1159992 129.3884990  46.3169997  36.2839992 131.0914990  45.7609997
  36.4809992 132.1434990  46.0599997  37.1969992 130.4904990  45.9599997
  36.0529992 131.0744990  44.2699997  35.1519992 131.6634990  43.9939997
  36.9029992 131.6534990  43.8509997  35.9319992 129.6414990  43.6599997
  36.9269992 129.1674990  43.7959997  35.0819992 129.1014990  44.1309997
  35.4779992 129.6474990  42.1729997  36.1259992 130.3114990  41.5619997
  35.7869992 128.6894990  41.7019997  34.0379992 130.1194990  41.9219997
  33.1369992 129.9954990  42.7829997  33.9829992 130.7284990  40.7439997
  32.7529992 131.3094990  40.2979997  32.1759992 130.4884990  39.8219997
  32.1049992 131.6804990  41.1199997  32.8599992 132.4794990  39.3669997
  31.8939992 132.8594990  38.9719997  33.6959992 132.1274990  38.0799997
  34.4639992 131.3494990  38.2779997  32.9149992 131.5704990  37.5199997
  34.2479992 133.2814990  37.4569997  33.4259992 134.4574990  36.7009997
  32.5059992 135.1564990  37.7979997  31.8429992 136.3434990  37.3909997
  31.6609992 136.8914990  38.3399997  32.5019992 137.0594990  36.8539997
  30.5639992 136.0034990  36.5019997  30.0439992 136.8974990  36.1919997
  30.8419992 135.5214990  35.5769997  29.4259992 135.0834990  37.0679997
  28.3709992 135.0724990  36.0049997  28.0769992 136.0884990  35.7879997
  28.7349992 134.5984990  35.1049997  27.6079992 134.3784990  36.3269997
  29.8199992 133.6794990  37.3899997  29.1209992 133.3224990  38.1319997
  29.7479992 133.2544990  36.3999997  30.7519992 133.6424990  37.9349997
  28.8829992 135.7704990  38.3159997  27.9449992 135.3144990  38.5979997
  28.7399992 136.8094990  38.0589997  29.5449992 135.7174990  39.1679997
  34.3349992 135.4024990  36.0499997  32.5689992 133.6694990  35.7949997
  33.5149992 133.5764990  40.0909997  32.6639992 134.3394990  40.7569997
  31.4839992 134.1024990  40.8269997  33.5679992 135.4744990  41.3579997
  33.1129992 136.4864990  41.4209997  34.4339992 135.6234990  40.6789997
  34.1889992 135.0734990  42.7219997  34.5119992 134.0144990  42.6299997
  33.5339992 134.9834990  43.6149997  35.4039992 135.8654990  43.2219997
  35.1889992 136.9454990  43.3669997  36.2109992 135.9234990  42.4599997
  36.0939992 135.2394990  44.4449997  36.3709992 134.1824990  44.2469997
  35.4429992 135.1864990  45.3439997  37.3479992 136.0854990  44.9589997
  36.9829992 137.1094990  45.1859997  38.1699992 136.0404990  44.2139997
  37.9739992 135.4694990  46.2459997  38.9599992 135.9464990  46.4259997
  38.2709992 134.4114990  46.0809997  37.0799992 135.4224990  47.5329997
  37.5999992 134.7434990  48.2419997  36.2199992 134.7874990  47.2319997
  36.7079992 136.6394990  48.2629997  37.6119992 137.2274990  48.4769997
  35.5009992 137.1174990  48.6119997  35.5499992 138.0734990  49.1529997
  34.1299992 136.6064990  48.3969997  34.1419992 135.6894990  47.7699997
  33.4409992 137.3454990  47.9349997  33.4079992 136.2074990  49.6849997
  33.8759992 135.2594990  50.0269997  32.3189992 136.0764990  49.5099997
  33.5919992 137.2034990  50.8499997  33.1689992 138.2074990  50.6289997
  34.6649992 137.2574990  51.1329997  32.8339992 136.9114990  52.1479997
  33.3109992 136.1464990  52.7979997  31.8249992 136.4724990  51.9999997
  32.5219992 138.2094990  52.9809997  31.5919992 138.6654990  52.5809997
  33.3409992 138.9504990  53.0909997  32.1969992 137.8234990  54.4809997
  31.4209992 137.0304990  54.5409997  31.8279992 138.7114990  55.0369997
  33.3129992 137.0984990  55.2319997  33.8509992 136.3394990  54.6249997
  32.8919992 136.4694990  56.0459997  34.3519992 137.9494990  55.7469997
  35.1759992 137.3214990  56.1479997  33.9259992 138.6784990  56.4689997
  34.8739992 138.5454990  54.9689997 134.6189992 110.6014990  57.0849997
 135.2619992 111.4654990  56.8109997 135.4029992 110.0444990  57.6409997
 133.9219992 111.0544990  57.8229997 133.8539992 109.8884990  55.9949997
 133.0059992 109.4254990  56.5429997 133.4639992 110.6734990  55.3109997
 134.5739992 108.8214990  55.2219997 135.1549992 108.1584990  55.8979997
 133.7969992 108.1864990  54.7439997 135.5219992 109.3574990  54.1469997
 135.0389992 110.2094990  53.6229997 136.4819992 109.6854990  54.5999997
 135.9819992 108.1634990  53.2229997 136.2859992 107.2484990  53.7749997
 135.0229992 107.8854990  52.7379997 137.0269992 108.6914990  52.1329997
 136.6399992 109.6674990  51.7679997 138.0099992 108.8464990  52.6289997
 137.1169992 107.8124990  50.8709997 137.8079992 106.9874990  51.1479997
 136.0739992 107.5004990  50.6489997 137.7299992 108.6064990  49.7399997
 137.1289992 109.5184990  49.5389997 138.7679992 108.9564990  49.9249997
 137.7559992 107.8154990  48.4599997 138.5289992 107.0224990  48.5529997
 136.7519992 107.4254990  48.1839997 138.0579992 108.7604990  47.2619997
 137.3679992 109.6234990  47.3819997 139.0799992 109.1574990  47.4379997
 138.0099992 107.9834990  45.9149997 138.6399992 107.0814990  46.0729997
 136.9549992 107.6354990  45.9159997 138.5699992 108.5994990  44.7099997
 138.2439992 109.6334990  44.4669997 139.6649992 108.6394990  44.8909997
 138.3359992 107.7914990  43.3979997 139.0689992 108.2454990  42.6979997
 138.6329992 106.7204990  43.4229997 136.9039992 107.7714990  42.9079997
 136.6759992 106.6974990  42.7419997 136.2289992 108.2524990  43.6469997
 136.7529992 108.4924990  41.5719997 137.1009992 109.5404990  41.6899997
 137.3569992 108.0684990  40.7409997 135.3529992 108.7344990  40.9459997
 134.2619992 108.5534990  41.5249997 135.5409992 109.2224990  39.7769997
 134.3979992 109.4774990  38.9429997 134.3689992 108.8824990  38.0049997
 133.5009992 109.3714990  39.5909997 134.4389992 110.9654990  38.4229997
 133.4809992 111.1974990  37.9109997 135.5719992 111.3374990  37.4899997
 135.6059992 110.5534990  36.7039997 135.2529992 112.2534990  36.9469997
 136.6459992 111.4204990  38.3209997 138.0209992 111.8534990  37.7259997
 139.0809992 110.8054990  38.0639997 138.8089992 109.4354990  38.2689997
 139.6939992 108.9034990  38.6779997 138.0159992 109.2774990  39.0299997
 138.4629992 108.7774990  36.9249997 138.1679992 107.7704990  37.1799997
 137.5759992 109.2034990  36.4799997 139.5849992 108.5374990  35.8799997
 140.7699992 107.6724990  36.3799997 141.5249992 107.5784990  35.6129997
 141.1719992 108.0914990  37.2909997 140.3239992 106.7294990  36.6589997
 139.0559992 107.9444990  34.6089997 138.4039992 108.6464990  34.1109997
 139.7999992 107.7734990  33.8449997 138.5149992 107.0474990  34.8719997
 140.1409992 109.9464990  35.5269997 140.4089992 110.4554990  36.4409997
 139.2949992 110.4974990  35.1439997 140.9029992 109.9164990  34.7629997
 137.9189992 111.9524990  36.2919997 138.4819992 113.0864990  38.4779997
 134.4809992 111.6304990  39.7169997 134.3319992 112.9534990  39.6999997
 133.8129992 113.6234990  38.8819997 135.0669992 113.6004990  40.9189997
 134.4279992 114.4024990  41.3459997 136.0089992 113.9884990  40.4759997
 135.4429992 112.5094990  41.9389997 136.1819992 112.9714990  42.6279997
 135.9519992 111.6584990  41.4399997 134.2829992 112.0834990  42.8169997
 133.6919992 111.2524990  42.3769997 133.6879992 113.0194990  42.8899997
 134.8059992 111.6184990  44.1579997 135.7739992 111.1004990  43.9859997
 134.0679992 110.8904990  44.5569997 135.0249992 112.8214990  45.1009997
 134.2309992 113.5764990  44.9129997 135.9209992 113.3444990  44.7049997
 135.2689992 112.5794990  46.6229997 136.1829992 112.0044990  46.8839997
 134.4659992 111.9214990  47.0199997 135.4409992 113.8674990  47.4989997
 135.4799992 113.3424990  48.4779997 134.5809992 114.5654990  47.4149997
 136.6649992 114.6384990  47.0939997 136.6039992 115.2004990  46.1499997
 137.8639992 114.7164990  47.7619997 138.7219992 115.1764990  47.2489997
 138.3199992 114.0324990  48.9979997 139.3319992 113.7284990  48.6529997
 137.7689992 113.0884990  49.1959997 138.4359992 115.0064990  50.1189997
 137.4399992 115.4674990  50.2849997 139.2239992 115.7544990  49.8879997
 138.9159992 114.4544990  51.4849997 138.7589992 115.1794990  52.3129997
 140.0069992 114.2674990  51.5859997 138.1889992 113.0634990  51.9759997
 138.6839992 112.2124990  51.4619997 137.1309992 112.9084990  51.6729997
 138.1909992 113.0114990  53.5299997 137.6739992 112.0854990  53.8589997
 137.6439992 113.9244990  53.8509997 139.6179992 112.8074990  54.0649997
 140.3139992 113.5014990  53.5459997 140.0219992 111.7784990  53.9539997
 139.6689992 113.0414990  55.5879997 138.9539992 112.3424990  56.0739997
 139.4979992 114.1194990  55.7959997 141.0439992 112.7144990  56.1339997
 141.1199992 113.0524990  57.1899997 141.7199992 113.2564990  55.4389997
 141.2189992 111.6204990  56.0539997  20.0739992   3.2564990  52.8329997
  20.2409992   2.1674990  52.6939997  19.8329992   3.4294990  53.9029997
  20.9479992   3.8784990  52.5409997  19.0549992   3.7004990  51.9119997
  19.1349992   3.3464990  50.8619997  18.1269992   3.2124990  52.2799997
  18.9599992   5.1884990  51.8819997  18.2319992   5.5164990  52.6539997
  19.9399992   5.6984990  52.0019997  18.4079992   5.8194990  50.5559997
  19.0889992   5.3634990  49.8059997  17.3339992   5.5794990  50.4059997
  18.4279992   7.3234990  50.6499997  17.6509992   7.7324990  51.3309997
  19.4499992   7.6914990  50.8829997  18.2989992   8.0004990  49.2669997
  18.1469992   9.0954990  49.3689997  19.3069992   7.8704990  48.8169997
  17.1569992   7.3934990  48.3119997  17.3529992   6.2994990  48.3129997
  16.1319992   7.6324990  48.6659997  17.3739992   7.8394990  46.8289997
  17.1869992   8.9314990  46.7569997  18.4219992   7.5904990  46.5589997
  16.4529992   7.1074990  45.7909997  16.8619992   7.2524990  44.7679997
  16.5039992   6.0174990  45.9999997  14.9959992   7.6194990  45.9309997
  14.4969992   6.9584990  46.6719997  15.0589992   8.6744990  46.2749997
  14.1339992   7.4814990  44.6339997  13.0569992   7.7094990  44.7809997
  14.4699992   8.1584990  43.8189997  14.0759992   6.0694990  44.0859997
  15.0859992   5.7434990  43.7569997  13.7969992   5.3194990  44.8569997
  12.9329992   5.8434990  43.0369997  12.9709992   4.7864990  42.6979997
  11.9589992   5.9514990  43.5599997  12.8939992   6.8334990  41.8359997
  12.0259992   6.6354990  41.1699997  12.7279992   7.7614990  42.4239997
  14.1989992   6.7924990  40.9369997  14.9049992   5.9864990  41.2299997
  14.0869992   6.6394990  39.8419997  15.0449992   8.0744990  41.2489997
  14.5699992   9.2054990  41.4469997  16.3269992   7.7304990  41.1319997
  17.2139992   8.8464990  41.3819997  16.9449992   9.6824990  40.7019997
  17.1939992   9.0514990  42.4739997  18.6789992   8.4804990  40.9389997
  19.4309992   9.2084990  41.3129997  18.8219992   8.5744990  39.3449997
  18.5189992   9.5914990  39.0149997  19.9249992   8.4614990  39.2699997
  18.2429992   7.5444990  38.5879997  17.6419992   7.8934990  37.1669997
  17.0399992   6.4964990  36.6929997  16.2099992   5.7694990  37.6329997
  16.8789992   5.4234990  38.4489997  15.5269992   6.4654990  38.1659997
  15.4119992   4.6474990  36.9559997  14.5919992   4.2404990  37.5289997
  15.1649992   5.0944990  36.0039997  16.2809992   3.4614990  36.5799997
  15.6029992   2.4354990  35.6909997  14.5889992   2.3864990  36.0609997
  15.5369992   2.8704990  34.7039997  16.1409992   1.5004990  35.6399997
  17.4999992   3.8504990  35.7829997  17.2279992   4.1544990  34.7819997
  17.9339992   4.7364990  36.2209997  18.1279992   2.9724990  35.7719997
  16.7549992   2.8244990  37.8679997  16.9859992   3.5604990  38.6229997
  17.5099992   2.1314990  37.5279997  16.0349992   2.1404990  38.2919997
  16.5049992   8.7444990  37.3679997  18.6619992   8.2464990  36.1469997
  18.9399992   7.1694990  41.3789997  19.4859992   7.1234990  42.6529997
  19.6869992   8.0614990  43.4159997  19.7889992   5.6264990  42.8639997
  20.4149992   5.6194990  43.7829997  20.3729992   5.1854990  42.0289997
  18.5039992   4.8104990  43.2209997  18.0359992   4.5654990  42.2439997
  17.8429992   5.4624990  43.8309997  18.7709992   3.4764990  44.0189997
  19.6609992   2.9334990  43.6359997  17.8659992   2.8394990  43.9209997
  19.0509992   3.6634990  45.5139997  18.4919992   4.5654990  45.8459997
  20.1119992   3.9694990  45.6349997  18.8029992   2.4534990  46.3319997
  19.3659992   2.6714990  47.2639997  19.2529992   1.5444990  45.8779997
  17.3619992   2.3214990  46.8009997  16.6469992   2.1664990  45.9639997
  17.0889992   3.3294990  47.1779997  17.1469992   1.1124990  47.6669997
  17.6619992   0.3184990  47.0849997  16.0559992   0.9044990  47.6689997
  17.5459992   1.2044990  49.0889997  18.6169992   1.3584990  49.2859997
  16.7369992   1.3454990  50.1379997  17.1519992   1.5774990  51.1299997
  15.2209992   1.4244990  50.1429997  14.8189992   0.9864990  51.0809997
  14.8219992   0.7854990  49.3249997  14.7439992   2.8044990  49.8129997
  13.6369992   2.7174990  49.7699997  15.1119992   3.2214990  48.8509997
  15.0609992   3.7434990  50.9639997  14.8419992   4.7104990  50.4629997
  16.1249992   3.8144990  51.2749997  14.0859992   3.6474990  52.1659997
  14.3299992   2.7504990  52.7739997  13.0879992   3.3614990  51.7719997
  14.0109992   4.9394990  53.0459997  13.3569992   4.7264990  53.9179997
  13.5839992   5.7424990  52.4089997  15.4159992   5.3824990  53.5329997
  15.6279992   6.1614990  52.7699997  16.1979992   4.5944990  53.5779997
  15.4229992   6.0794990  54.9039997  14.4679992   6.6074990  55.1119997
  16.2389992   6.8304990  54.9839997  15.6519992   5.0624990  56.0809997
  14.9959992   4.1874990  55.8899997  15.3019992   5.6284990  56.9709997
  16.7489992   4.8854990  56.0549997  20.0229992 131.9094990  55.2919997
  20.2459992 132.8884990  55.7669997  20.5789992 131.0864990  55.7919997
  18.9489992 131.9064990  55.5769997  20.0379992 131.8134990  53.8239997
  19.5039992 130.8644990  53.6039997  19.4699992 132.6614990  53.3849997
  21.3899992 131.6224990  53.0729997  21.2299992 131.7534990  51.9809997
  21.9859992 132.5334990  53.2969997  22.0709992 130.3154990  53.4719997
  22.1639992 130.2094990  54.5739997  21.3169992 129.5324990  53.2409997
  23.3949992 129.9854990  52.7609997  24.1369992 130.6854990  53.2019997
  23.6219992 128.9774990  53.1709997  23.2199992 129.8854990  51.2219997
  22.7239992 130.7694990  50.7679997  24.2159992 129.8724990  50.7309997
  22.4359992 128.6124990  50.8099997  22.9279992 127.7454990  51.3009997
  21.3429992 128.6314990  51.0079997  22.4809992 128.2994990  49.3339997
  23.5009992 128.4094990  48.9079997  22.1359992 127.2454990  49.2759997
  21.4369992 129.1314990  48.5069997  20.4719992 128.9944990  49.0399997
  21.6939992 130.2104990  48.5739997  21.1959992 128.6544990  47.1079997
  20.3489992 127.9364990  47.1549997  20.7399992 129.4994990  46.5489997
  22.3819992 128.2454990  46.2339997  23.1719992 129.0244990  46.2899997
  22.7859992 127.2924990  46.6379997  22.1039992 128.0974990  44.6859997
  21.9129992 129.0984990  44.2439997  23.0259992 127.7384990  44.1809997
  20.9519992 127.0934990  44.3049997  20.9679992 126.2724990  45.0529997
  19.9379992 127.5464990  44.3389997  21.0889992 126.6974990  42.7979997
  22.1319992 126.3144990  42.8309997  20.5189992 125.7864990  42.5169997
  20.8879992 127.7764990  41.7749997  21.6939992 128.5304990  41.9019997
  21.0259992 127.3434990  40.7619997  19.5189992 128.4464990  41.8449997
  18.4759992 127.8694990  42.1039997  19.6869992 129.7524990  41.6609997
  18.5019992 130.5474990  41.2609997  17.7209992 129.9994990  40.6909997
  18.1129992 131.2184990  42.0569997  19.0449992 131.4374990  40.0429997
  18.2069992 132.0874990  39.7129997  19.3529992 130.5634990  38.8089997
  19.6709992 129.6374990  39.3339997  18.4109992 130.4794990  38.2259997
  20.3129992 131.1704990  38.0159997  21.3889992 130.3984990  37.1579997
  22.7599992 130.9994990  37.7209997  23.1739992 132.3544990  37.5409997
  22.7909992 132.8334990  36.6149997  22.7839992 132.9934990  38.3619997
  24.7269992 132.4074990  37.6159997  25.0809992 133.4204990  37.7369997
  24.9339992 131.8964990  38.5449997  25.5719992 131.6394990  36.5549997
  26.9939992 131.8124990  37.0379997  27.2039992 131.0234990  37.7439997
  27.7159992 131.6894990  36.2439997  27.1579992 132.7484990  37.5519997
  25.3049992 130.1404990  36.3959997  26.0989992 129.7124990  35.8029997
  25.1459992 129.6834990  37.3609997  24.4259992 130.0274990  35.7779997
  25.4559992 132.2494990  35.2169997  26.0629992 133.1414990  35.1559997
  24.4279992 132.5554990  35.0939997  25.8819992 131.5254990  34.5389997
  21.3929992 128.9574990  37.4949997  21.2069992 130.7164990  35.7199997
  20.1149992 132.2054990  40.4839997  19.8799992 133.2364990  41.2809997
  18.8009992 133.4834990  41.7419997  21.1269992 134.2154990  41.4199997
  20.9479992 135.0914990  40.7609997  22.0329992 133.6374990  41.1359997
  21.2949992 134.6904990  42.8189997  21.4529992 133.7884990  43.4489997
  20.2789992 135.0414990  43.1019997  22.3329992 135.8424990  42.9869997
  21.8559992 136.7234990  42.5069997  23.2449992 135.6374990  42.3849997
  22.7889992 136.0274990  44.4209997  21.8909992 135.8494990  45.0519997
  23.2479992 136.9944990  44.7179997  23.9159992 135.0104990  44.8079997
  24.7919992 135.0104990  44.1249997  23.3449992 134.0814990  45.0209997
  24.5479992 135.3834990  46.2099997  24.8839992 136.4394990  46.1209997
  25.5059992 134.8614990  46.4209997  23.5369992 135.4154990  47.4129997
  22.6619992 136.0174990  47.0899997  24.0869992 135.7924990  48.3019997
  23.0609992 133.9904990  47.7409997  22.0859992 133.6964990  47.3239997
  23.6769992 133.0934990  48.5529997  23.2249992 132.1554990  48.9059997
  24.9419992 133.3704990  49.2959997  25.2759992 134.4254990  49.1909997
  25.7829992 132.7964990  48.8509997  24.7829992 133.0034990  50.7089997
  24.8899992 131.8984990  50.7519997  23.8289992 133.3684990  51.1449997
  25.9699992 133.5904990  51.5719997  26.0569992 134.6724990  51.3339997
  26.8869992 133.0814990  51.2059997  25.9139992 133.5194990  53.1429997
  26.9089992 133.9034990  53.4559997  25.7069992 132.4714990  53.4499997
  24.7309992 134.2904990  53.6869997  23.7819992 134.0024990  53.1849997
  24.8359992 135.3464990  53.3589997  24.5029992 134.1914990  55.1699997
  23.5529992 134.7074990  55.4239997  25.2809992 134.6654990  55.8059997
  24.2469992 132.7524990  55.6459997  25.2429992 132.2624990  55.6029997
  23.4819992 132.2804990  54.9929997  23.6319992 132.6654990  57.0639997
  23.6019992 131.6234990  57.4479997  22.6399992 133.1414990  56.9099997
  24.2239992 133.2934990  57.7619997 111.1889992 140.8384990  54.3919997
 111.2139992 141.9454990  54.4759997 110.1229992 140.5524990  54.2669997
 111.7219992 140.6404990  53.4369997 111.6629992 140.0904990  55.6799997
 112.7159992 140.4334990  55.7659997 111.2109992 140.6144990  56.5499997
 111.7209992 138.5884990  55.6509997 112.3959992 138.1914990  56.4399997
 110.6769992 138.2454990  55.8169997 112.1999992 138.0374990  54.3009997
 111.3569992 138.2944990  53.6249997 113.1719992 138.4564990  53.9649997
 112.5129992 136.5264990  54.2639997 113.3479992 136.4104990  54.9869997
 111.6089992 135.9254990  54.5029997 112.8679992 135.9034990  52.8579997
 113.7829992 136.4524990  52.5509997 113.1279992 134.8354990  53.0179997
 111.7599992 136.0344990  51.7949997 111.1239992 135.1644990  52.0659997
 111.2309992 136.9614990  52.1029997 112.0509992 135.8414990  50.3049997
 112.8569992 135.0944990  50.1439997 111.1209992 135.4474990  49.8419997
 112.3239992 137.1044990  49.6199997 111.3969992 137.7164990  49.5909997
 113.1219992 137.7604990  50.0299997 112.7649992 137.0214990  48.1639997
 113.3889992 137.8264990  47.7209997 113.4259992 136.1354990  48.0499997
 111.6259992 136.7124990  47.1509997 112.0269992 136.4144990  46.1589997
 111.0149992 135.8564990  47.5109997 110.6609992 137.8834990  46.8329997
 109.8589992 137.4864990  46.1739997 110.0679992 138.0794990  47.7509997
 111.2809992 139.2614990  46.5079997 110.4649992 140.0104990  46.4229997
 111.8759992 139.5894990  47.3879997 112.2219992 139.3074990  45.2659997
 112.5779992 140.3594990  45.3089997 113.0969992 138.6264990  45.3279997
 111.5189992 138.8534990  43.9639997 111.1679992 137.8054990  43.8449997
 110.6939992 139.5614990  43.7349997 112.5169992 139.1384990  42.8179997
 113.5919992 139.6654990  42.9109997 111.9149992 138.9014990  41.5969997
 112.7069992 139.4164990  40.5089997 112.5879992 140.5194990  40.5679997
 113.7749992 139.1104990  40.5439997 112.1759992 138.7354990  39.1779997
 112.8919992 138.9794990  38.3649997 110.7859992 139.1274990  38.7609997
 110.5869992 140.2044990  38.9519997 110.7829992 139.0094990  37.6559997
 109.8839992 138.2934990  39.4699997 108.4759992 137.9764990  38.9929997
 108.7599992 137.0324990  37.8129997 107.6689992 136.4934990  37.0709997
 107.8109992 135.4004990  37.2049997 106.6809992 136.6454990  37.5559997
 107.7359992 136.8774990  35.5469997 107.2059992 136.0774990  35.0509997
 107.2779992 137.8344990  35.3419997 109.1369992 136.8094990  34.9119997
 108.9339992 136.8864990  33.4959997 108.4289992 135.9824990  33.1899997
 108.4649992 137.8184990  33.2169997 109.9479992 136.7984990  33.1339997
 109.8969992 138.0954990  35.3609997 109.4199992 138.9204990  34.8539997
 109.7719992 138.0114990  36.4309997 110.9489992 138.0244990  35.1279997
 109.7899992 135.5264990  35.3559997 110.0389992 135.6324990  36.4009997
 110.6539992 135.5204990  34.7069997 109.2549992 134.6264990  35.0909997
 107.8509992 137.2524990  40.1249997 107.8229992 139.1314990  38.3279997
 112.3389992 137.3244990  39.4559997 112.6759992 136.4844990  38.4259997
 112.9249992 136.7364990  37.2749997 112.8729992 135.1384990  39.0159997
 113.7559992 135.1544990  39.6889997 113.2449992 134.3874990  38.2859997
 111.7239992 134.6924990  39.8839997 110.8189992 134.5144990  39.2639997
 111.5079992 135.4704990  40.6459997 111.9209992 133.4794990  40.7819997
 112.8809992 133.6544990  41.3129997 112.1269992 132.5754990  40.1679997
 110.7229992 133.1164990  41.6489997 110.9039992 132.0594990  41.9399997
 109.8589992 133.1584990  40.9519997 110.5469992 134.0104990  42.8949997
 111.5789992 134.1054990  43.2959997 109.8369992 133.5844990  43.6359997
 109.8809992 135.4004990  42.6469997 109.4429992 135.4404990  41.6269997
 110.6699992 136.1824990  42.6569997 108.8739992 135.7074990  43.7859997
 109.4369992 135.5514990  44.7309997 108.0839992 134.9294990  43.8469997
 108.3289992 137.1124990  43.7109997 108.9909992 137.8024990  43.1659997
 107.2039992 137.5624990  44.2459997 106.9379992 138.6144990  44.0649997
 106.2919992 136.7654990  45.1039997 106.1949992 135.7534990  44.6569997
 105.2279992 137.0834990  45.1249997 106.6939992 136.6034990  46.6739997
 106.1869992 137.3954990  47.2669997 107.7829992 136.8114990  46.7509997
 106.5469992 135.1804990  47.3599997 107.2659992 134.5124990  46.8399997
 105.5389992 134.7944990  47.0999997 106.7819992 135.2004990  48.8809997
 106.6469992 134.1484990  49.2129997 105.9569992 135.7524990  49.3799997
 108.1779992 135.7554990  49.2549997 108.7249992 136.0114990  48.3219997
 108.7249992 135.0044990  49.8649997 108.3119992 137.0444990  50.0739997
 107.6209992 137.7704990  49.5939997 109.3459992 137.4394990  50.1599997
 107.8199992 136.8444990  51.5189997 108.4279992 135.9834990  51.8699997
 106.7289992 136.6424990  51.4819997 107.9089992 138.0724990  52.4299997
 107.1689992 138.7914990  52.0189997 108.9649992 138.4034990  52.5209997
 107.6149992 137.9244990  53.4909997   2.3299992  26.1834990  58.0559997
   2.6139992  27.1674990  58.4859997   2.4249992  25.4544990  58.8889997
   1.3609992  26.2024990  57.5119997   3.3589992  25.8044990  56.9649997
   4.2539992  26.1274990  57.5359997   3.4659992  24.7074990  56.8259997
   3.1909992  26.6054990  55.7069997   2.5579992  27.4674990  56.0079997
   4.2009992  27.0004990  55.4659997   2.5479992  25.8534990  54.6059997
   3.0539992  24.8664990  54.5479997   1.4829992  25.7004990  54.8819997
   2.6489992  26.4524990  53.1499997   3.6469992  26.8544990  52.8719997
   2.4939992  25.6284990  52.4209997   1.6369992  27.6694990  52.8739997
   0.5899992  27.3004990  52.9019997   1.7679992  28.3974990  53.7039997
   1.7119992  28.3504990  51.5269997   0.8659992  29.0644990  51.4279997
   2.6279992  28.9774990  51.5449997   1.9299992  27.4714990  50.3109997
   2.8749992  26.9064990  50.4639997   1.0819992  26.7544990  50.2809997
   2.0039992  28.3504990  49.0749997   0.9339992  28.6064990  48.9159997
   2.5289992  29.2894990  49.3519997   2.5289992  27.6684990  47.8549997
   3.5809992  27.3294990  47.9729997   1.8889992  26.7674990  47.7469997
   2.5479992  28.5234990  46.4769997   1.5369992  28.8224990  46.1249997
   3.1359992  29.4264990  46.7479997   3.1519992  27.8184990  45.2449997
   4.1299992  27.3564990  45.4959997   2.4009992  27.0374990  44.9979997
   3.3979992  28.6784990  43.9479997   2.3819992  28.9764990  43.6099997
   3.7989992  29.6764990  44.2259997   4.1939992  27.9264990  42.8549997
   5.1869992  27.7484990  43.3209997   3.8099992  26.9194990  42.5859997
   4.2969992  28.6724990  41.5049997   3.3049992  28.7654990  41.0139997
   4.5139992  29.7424990  41.7099997   5.4229992  28.0334990  40.6969997
   6.5809992  27.9784990  41.0839997   4.9289992  27.6314990  39.5559997
   5.7349992  26.7824990  38.8139997   5.2829992  26.7014990  37.8029997
   6.7109992  27.2474990  38.5559997   5.9459992  25.2634990  39.3449997
   6.9289992  25.2774990  39.8629997   5.9319992  24.2724990  38.1609997
   6.7169992  24.6024990  37.4469997   6.2169992  23.2214990  38.3789997
   4.6459992  24.4274990  37.5599997   4.4039992  23.9584990  36.0229997
   2.8679992  24.0104990  35.7829997   2.2179992  25.2264990  35.8159997
   2.8099992  26.0004990  35.2819997   1.2919992  25.0244990  35.2359997
   1.8639992  25.6974990  37.2209997   2.7709992  25.7014990  37.8079997
   1.4029992  26.6734990  37.1799997   0.8599992  24.8044990  38.0319997
   1.3989992  23.4084990  38.2019997   2.4539992  23.5104990  38.4069997
   0.9279992  22.9104990  39.0369997   1.2179992  22.8474990  37.2969997
   0.8929992  25.3574990  39.4549997   0.1499992  24.9384990  40.1169997
   1.8969992  25.3894990  39.8529997   0.5449992  26.3734990  39.3449997
  -0.5210008  24.7324990  37.3859997  -0.8770008  25.7394990  37.5449997
  -1.0450008  24.0084990  37.9919997  -0.5120008  24.4704990  36.3379997
   5.0599992  24.9494990  35.0869997   4.9289992  22.5934990  35.9079997
   4.8599992  24.9664990  40.1909997   5.1079992  23.8934990  41.0029997
   5.9019992  22.9894990  40.8049997   4.1549992  23.9714990  42.1619997
   3.1069992  24.2394990  41.9049997   4.6389992  24.6594990  42.8879997
   4.0599992  22.6734990  42.9929997   4.9939992  22.4694990  43.5589997
   3.8159992  21.7304990  42.4599997   2.8869992  22.7414990  44.0069997
   1.9179992  22.7354990  43.4639997   2.9249992  23.7744990  44.4159997
   3.0039992  21.5874990  44.9989997   3.2459992  20.6424990  44.4669997
   2.0209992  21.5034990  45.5089997   4.0279992  21.9984990  46.1079997
   4.9759992  22.2564990  45.5899997   4.2529992  21.0984990  46.7179997
   3.5059992  23.0374990  47.1519997   2.5689992  22.5824990  47.5379997
   3.1899992  23.9514990  46.6049997   4.5099992  23.5004990  48.2819997
   4.7119992  22.5434990  48.8079997   3.8789992  24.2084990  48.8619997
   5.7999992  24.0994990  47.7269997   6.0099992  23.6724990  46.7349997
   6.6599992  24.7864990  48.4199997   7.5039992  25.1864990  47.8389997
   6.4979992  25.1864990  49.8799997   5.4149992  25.0904990  50.1069997
   6.7029992  26.2784990  49.8809997   7.3729992  24.3774990  50.7989997
   8.4179992  24.6254990  50.5139997   7.2169992  23.2834990  50.6849997
   7.2009992  24.7724990  52.3059997   7.5349992  25.8064990  52.5359997
   7.8229992  24.0944990  52.9279997   5.8019992  24.7014990  52.8469997
   5.0559992  25.1994990  52.1919997   5.8989992  25.0584990  53.8939997
   5.1739992  23.3004990  52.9969997   5.0649992  22.7524990  52.0369997
   4.1529992  23.4714990  53.4009997   5.9109992  22.3354990  53.9699997
   5.9329992  22.7814990  54.9869997   6.9579992  22.1584990  53.6429997
   5.1949992  20.9694990  54.1319997   4.1679992  21.0924990  54.5359997
   5.6659992  20.4454990  54.9909997   5.2199992  19.9364990  52.9529997
   6.2809992  19.9104990  52.6239997   4.5949992  20.3514990  52.1329997
   4.7569992  18.9374990  53.1019997   8.9429992 116.6184990  57.5519997
   8.6289992 117.6754990  57.6939997   9.8429992 116.7704990  56.9189997
   9.2409992 116.4324990  58.6059997   7.7299992 115.7344990  57.1369997
   7.9909992 114.6604990  57.2499997   6.8309992 115.8534990  57.7779997
   7.2139992 115.7954990  55.6609997   6.7689992 116.8044990  55.5239997
   8.0769992 115.7504990  54.9629997   6.2429992 114.8434990  54.9869997
   6.6809992 113.8254990  54.9109997   5.2939992 114.7614990  55.5589997
   5.8459992 115.3914990  53.5779997   5.5729992 116.4584990  53.7239997
   6.7159992 115.3504990  52.8889997   4.6519992 114.7284990  52.9979997
   5.0159992 113.7784990  52.5519997   3.9659992 114.4734990  53.8349997
   3.8649992 115.5524990  51.9029997   4.4989992 115.7204990  51.0069997
   3.1209992 114.8554990  51.4619997   3.1059992 116.8794990  52.2749997
   2.3769992 116.7484990  53.1039997   3.8659992 117.6074990  52.6309997
   2.3049992 117.4664990  51.0969997   1.5049992 116.7124990  50.9409997
   1.8449992 118.4644990  51.2619997   3.0559992 117.8154990  49.7799997
   2.8099992 118.8364990  49.4159997   4.1319992 117.9004990  50.0459997
   2.8809992 116.8554990  48.6499997   3.2019992 115.8314990  48.9359997
   1.7769992 116.7324990  48.6389997   3.3929992 117.1944990  47.2159997
   3.1679992 118.2804990  47.1549997   4.4719992 116.9594990  47.0869997
   2.5179992 116.6074990  46.1209997   2.6199992 115.5014990  46.0749997
   1.4399992 116.7234990  46.3649997   2.7629992 117.2284990  44.6999997
   2.2209992 118.1974990  44.6459997   3.8379992 117.5024990  44.6509997
   2.4639992 116.3884990  43.4859997   3.0579992 115.4544990  43.5809997
   1.3669992 116.2154990  43.4479997   2.9469992 117.1334990  42.2139997
   3.2169992 118.2964990  42.0999997   2.9829992 116.1664990  41.2439997
   3.1909992 116.8114990  39.9169997   2.2909992 116.6934990  39.2759997
   3.2969992 117.9144990  39.8379997   4.3739992 116.2134990  39.0749997
   4.4139992 116.8784990  38.1859997   4.1099992 114.7424990  38.6969997
   3.5359992 114.2554990  39.5139997   3.4599992 114.9224990  37.8149997
   5.2969992 114.0194990  38.3629997   5.4759992 113.4084990  36.8459997
   7.0059992 113.4914990  36.5549997   8.0589992 113.4374990  37.4709997
   7.9129992 112.7644990  38.3429997   8.9329992 112.9964990  36.9459997
   8.4099992 114.8394990  37.9589997   7.6309992 115.2194990  38.6039997
   9.2699992 114.7344990  38.6029997   8.7409992 115.8704990  36.8709997
   7.5639992 116.1954990  36.0249997   7.8559992 116.7904990  35.1729997
   7.2889992 115.2514990  35.5779997   6.7499992 116.6934990  36.5319997
   9.1519992 117.0834990  37.6259997   9.0829992 117.9134990  36.9379997
   8.4709992 117.1504990  38.4619997  10.1779992 116.9134990  37.9169997
   9.9069992 115.3944990  36.0509997   9.9749992 114.3264990  35.9069997
  10.7779992 115.7214990  36.5999997   9.9369992 115.8674990  35.0809997
   5.2079992 111.9674990  36.8229997   4.8569992 114.3524990  35.8819997
   5.7099992 116.2344990  39.7419997   6.1929992 117.3754990  40.2099997
   5.6859992 118.4574990  40.1959997   7.4729992 116.9684990  40.9719997
   8.3629992 117.5274990  40.6129997   7.7419992 115.8984990  40.8449997
   7.1859992 117.2024990  42.4499997   6.0999992 117.0264990  42.6049997
   7.1779992 118.2854990  42.6989997   7.9339992 116.4084990  43.4559997
   7.8979992 116.9534990  44.4229997   9.0409992 116.4324990  43.3719997
   7.4799992 114.9684990  43.6979997   8.1829992 114.4314990  44.3689997
   7.3629992 114.3604990  42.7759997   6.1209992 114.9294990  44.2879997
   5.3599992 115.2614990  43.5489997   6.0499992 115.7174990  45.0679997
   5.9579992 113.5154990  44.9029997   6.7089992 113.1404990  45.6309997
   6.1439992 112.8284990  44.0489997   4.4709992 113.2514990  45.3539997
   3.9409992 112.9894990  44.4129997   4.0959992 114.1484990  45.8909997
   4.3509992 112.0944990  46.4119997   3.8949992 111.1634990  46.0449997
   4.6369992 112.1034990  47.7189997   4.4759992 111.2534990  48.3989997
   5.1969992 113.2694990  48.4839997   4.6669992 113.3504990  49.4569997
   5.1309992 114.2004990  47.8809997   6.6769992 113.0444990  48.7409997
   7.2869992 113.1374990  47.8169997   6.9139992 112.0004990  49.0359997
   7.4239992 114.0784990  49.6869997   8.4889992 113.7764990  49.5869997
   7.0129992 114.0104990  50.7159997   7.2869992 115.5064990  49.2249997
   6.2969992 115.8954990  49.5449997   7.2659992 115.5544990  48.1149997
   8.4019992 116.4694990  49.5509997   8.0959992 117.4634990  49.1579997
   9.3309992 116.1864990  49.0119997   8.7529992 116.6624990  51.0509997
   9.4259992 115.8004990  51.2439997   7.8819992 116.5484990  51.7309997
   9.5769992 117.9834990  51.2729997   8.8829992 118.8194990  51.0399997
  10.4459992 117.8934990  50.5859997   9.9569992 118.1794990  52.7489997
  10.6489992 119.0424990  52.8499997  10.3809992 117.2564990  53.1989997
   9.0429992 118.3624990  53.3529997   5.0659992  10.3904990  54.1449997
   4.2619992  11.1424990  54.2929997   4.7319992   9.5424990  53.5089997
   5.8179992  10.8644990  53.4779997   5.7099992   9.9124990  55.4459997
   6.1819992  10.8214990  55.8739997   4.9789992   9.4544990  56.1469997
   6.8929992   8.9384990  55.2009997   7.1569992   8.4894990  56.1819997
   6.3259992   8.1474990  54.6639997   8.0099992   9.5354990  54.3919997
   7.5369992   9.5784990  53.3869997   8.2269992  10.6004990  54.6239997
   9.2409992   8.6454990  54.4479997  10.1019992   9.1604990  53.9709997
   9.4409992   8.3884990  55.5109997   9.0539992   7.3324990  53.7049997
   9.7279992   6.6024990  54.2019997   8.0239992   6.9324990  53.8189997
   9.5869992   7.5004990  52.2189997  10.5949992   7.9654990  52.2509997
   9.7089992   6.4624990  51.8399997   8.6489992   8.3094990  51.3799997
   7.6299992   8.0814990  51.7609997   8.8829992   9.3714990  51.6099997
   8.6169992   7.9924990  49.8919997   9.6769992   8.0654990  49.5679997
   8.1629992   6.9854990  49.7739997   7.6699992   8.9004990  49.0609997
   6.7059992   8.4184990  49.3299997   7.6749992   9.9144990  49.5139997
   7.8409992   8.7474990  47.5299997   8.7709992   9.2444990  47.1809997
   8.0499992   7.6944990  47.2439997   6.7289992   9.3914990  46.5989997
   5.8499992   8.7124990  46.6349997   6.4799992  10.3614990  47.0799997
   7.1649992   9.4914990  45.0919997   8.1489992   9.9984990  44.9939997
   7.2959992   8.4434990  44.7449997   5.9959992  10.1544990  44.2119997
   5.1899992   9.4034990  44.0709997   5.6139992  11.0384990  44.7669997
   6.4899992  10.4514990  42.7869997   7.0959992   9.6124990  42.3829997
   5.5989992  10.6774990  42.1619997   7.3639992  11.6844990  42.7429997
   7.3519992  12.4254990  43.6679997   7.9919992  11.6934990  41.5759997
   9.0529992  12.6024990  41.5379997   8.6229992  13.5954990  41.2859997
   9.5419992  12.6284990  42.5349997  10.0659992  12.2444990  40.4939997
  10.9849992  12.8064990  40.7649997   9.5929992  12.4584990  39.0249997
   9.7469992  13.5394990  38.8199997  10.3059992  11.8864990  38.3939997
   8.2689992  11.9764990  38.7599997   7.6339992  12.1144990  37.3909997
   8.2279992  10.7534990  36.7069997   8.0879992   9.4754990  37.4239997
   7.4249992   9.4674990  38.3149997   7.5189992   8.8124990  36.7379997
   9.5339992   8.8654990  37.5979997  10.1389992   9.3614990  38.3419997
   9.3129992   7.8824990  37.9869997  10.4679992   8.6964990  36.3689997
   9.7909992   7.7944990  35.3839997   8.9479992   8.3444990  34.9939997
  10.4389992   7.3904990  34.6209997   9.3559992   6.9624990  35.9179997
  10.8329992  10.0174990  35.7679997  10.3279992  10.1614990  34.8239997
  10.6179992  10.8284990  36.4469997  11.8669992   9.9044990  35.4769997
  11.7049992   8.0964990  36.9209997  12.3959992   7.7774990  36.1549997
  11.4139992   7.2244990  37.4869997  12.2259992   8.7434990  37.6119997
   6.1449992  12.0014990  37.4579997   8.2959992  13.2404990  36.6919997
  10.3999992  10.8324990  40.5749997  11.1479992  10.4604990  41.5109997
  11.8709992  11.2244990  42.1409997  11.1709992   8.9764990  41.5729997
  12.1029992   8.5214990  41.1729997  10.3449992   8.6504990  40.9049997
  10.9679992   8.5264990  43.0149997  10.7789992   7.4384990  42.8929997
  10.1409992   9.0984990  43.4869997  12.1569992   8.6894990  43.9709997
  12.5459992   9.7274990  43.9069997  13.0729992   8.1164990  43.7139997
  11.6839992   8.3894990  45.3889997  11.1349992   7.4234990  45.3749997
  10.9119992   9.1844990  45.4669997  12.7989992   8.6084990  46.4069997
  13.3669992   9.5494990  46.2459997  13.4349992   7.7024990  46.3089997
  12.2139992   8.7654990  47.8589997  11.7119992   7.8074990  48.1149997
  11.3969992   9.5174990  47.8849997  13.2149992   9.1394990  48.8719997
  13.9619992   9.9164990  48.6039997  13.8819992   8.2534990  48.9399997
  12.6929992   9.4124990  50.2409997  12.9339992   8.6574990  51.0049997
  12.0689992  10.5494990  50.7439997  11.8119992  10.7014990  51.8029997
  11.7209992  11.7994990  49.9519997  12.0989992  11.8884990  48.9109997
  12.0669992  12.7044990  50.4969997  10.2099992  11.9764990  49.9769997
   9.8369992  10.9514990  49.7619997   9.9569992  12.6104990  49.1009997
   9.5359992  12.7724990  51.1489997   9.6769992  12.1444990  52.0549997
   8.4879992  12.9604990  50.8329997  10.0149992  14.1974990  51.3519997
   9.5599992  14.8144990  50.5479997  11.0829992  14.2574990  51.0519997
   9.6639992  14.8054990  52.7729997   8.5579992  14.6974990  52.7709997
   9.9199992  15.8604990  53.0079997  10.1299992  14.0084990  53.9449997
  10.3209992  12.9434990  53.6929997   9.4229992  14.0774990  54.7999997
  11.5659992  14.4494990  54.4189997  11.8709992  13.9174990  55.3459997
  11.3189992  15.5044990  54.6649997  12.7439992  14.2924990  53.4079997
  12.7239992  13.2884990  52.9329997  13.7149992  14.4374990  53.9269997
  12.6839992  14.8824990  52.4679997  14.5429992 124.9054990  54.8539997
  13.6439992 124.8974990  55.5069997  15.2579992 125.6944990  55.1729997
  15.0659992 123.9914990  55.2069997  14.2329992 124.9974990  53.3899997
  15.1209992 124.6454990  52.8209997  13.3899992 124.3064990  53.1759997
  13.7659992 126.3754990  53.0329997  12.7249992 126.5844990  53.3589997
  14.4329992 127.1854990  53.4009997  13.6369992 126.6464990  51.4669997
  14.6819992 126.5394990  51.1059997  13.0389992 125.7854990  51.0959997
  13.0919992 127.9984990  51.0939997  12.0059992 127.8844990  50.8899997
  13.1819992 128.5874990  52.0319997  13.7269992 128.7704990  49.9339997
  14.5179992 129.3944990  50.4029997  14.1509992 127.9874990  49.2699997
  12.8439992 129.8184990  49.2699997  11.9099992 129.3564990  48.8849997
  12.5649992 130.6644990  49.9339997  13.4739992 130.4134990  48.0719997
  14.3519992 131.0314990  48.3579997  13.7769992 129.5704990  47.4139997
  12.4669992 131.1644990  47.2349997  11.4519992 130.7184990  47.1609997
  12.1339992 132.0074990  47.8789997  12.8569992 131.5974990  45.7879997
  11.9229992 131.8434990  45.2369997  13.4079992 132.5544990  45.9099997
  13.6239992 130.6014990  44.8649997  14.6629992 130.5594990  45.2559997
  13.1429992 129.6044990  44.9599997  13.7609992 131.1854990  43.4269997
  12.8049992 131.2214990  42.8629997  14.0989992 132.2424990  43.4719997
  14.7929992 130.3104990  42.6579997  14.3999992 129.2704990  42.6699997
  14.7419992 130.6544990  41.6029997  16.2509992 130.5564990  43.0759997
  16.4759992 131.6284990  43.2629997  16.2849992 130.2134990  44.1319997
  17.3169992 129.9984990  42.1139997  17.2899992 130.2494990  41.0319997
  18.3419992 130.3954990  42.2749997  17.4279992 128.4394990  42.2599997
  17.6589992 127.8514990  43.3289997  17.2439992 127.8724990  41.1199997
  17.3319992 126.4204990  41.0679997  18.0179992 126.2414990  40.2129997
  17.8189992 125.9754990  41.9619997  15.9329992 125.7824990  40.7059997
  16.0719992 124.6964990  40.5189997  15.2819992 126.3194990  39.4239997
  15.3859992 127.4244990  39.4649997  15.9429992 125.8344990  38.6729997
  13.9589992 125.9974990  39.1559997  13.4039992 126.3874990  37.6849997
  14.7059992 126.9354990  36.9069997  14.7569992 128.3584990  36.7819997
  13.7459992 128.7134990  36.4859997  15.0259992 128.7904990  37.7699997
  15.9449992 128.7894990  35.8479997  15.7999992 128.5344990  34.8089997
  15.9369992 129.8684990  35.7919997  17.3819992 128.4284990  36.2429997
  18.3059992 129.1904990  35.3569997  18.0709992 128.7954990  34.3789997
  18.0699992 130.2434990  35.3979997  19.2989992 128.8644990  35.6299997
  17.5949992 128.7434990  37.6329997  17.3929992 129.7964990  37.7619997
  16.9499992 128.2754990  38.3629997  18.6449992 128.5804990  37.8239997
  17.5609992 126.9324990  36.0019997  18.6119992 126.7004990  35.9189997
  17.1409992 126.8434990  35.0119997  17.1379992 126.3554990  36.8119997
  13.0119992 125.0964990  37.0739997  12.3729992 127.4594990  37.7849997
  15.0319992 125.9884990  41.7449997  15.1689992 125.2284990  42.8389997
  16.0329992 124.3894990  42.9679997  14.0049992 125.4784990  43.8339997
  13.0569992 125.1934990  43.3299997  13.8589992 126.5354990  44.1419997
  14.1469992 124.7384990  45.2389997  14.1759992 123.6414990  45.0709997
  13.2289992 125.1044990  45.7469997  15.3969992 125.2914990  46.0119997
  16.2589992 125.5644990  45.3659997  15.6069992 124.4904990  46.7519997
  15.0779992 126.5504990  46.7869997  14.3799992 126.3234990  47.6219997
  14.6699992 127.2244990  46.0039997  16.3099992 127.1834990  47.4509997
  16.9609992 126.4034990  47.8999997  15.9739992 127.9104990  48.2209997
  17.3199992 127.7984990  46.4749997  16.7889992 128.5134990  45.8099997
  17.6879992 127.0564990  45.7349997  18.5209992 128.5364990  47.0409997
  19.1759992 128.8634990  46.2059997  18.9369992 127.7864990  47.7469997
  18.1059992 129.6924990  47.8829997  17.2069992 130.1964990  47.4979997
  18.7969992 130.0854990  48.9529997  18.5129992 130.9694990  49.5429997
  20.0739992 129.3914990  49.4659997  20.7599992 130.1954990  49.8079997
  20.6459992 128.8774990  48.6639997  19.8169992 128.3034990  50.5469997
  20.8289992 127.9274990  50.8069997  19.3219992 127.4614990  50.0179997
  19.1299992 128.7334990  51.8909997  19.5549992 129.7084990  52.2129997
  19.3099992 127.9824990  52.6879997  17.6099992 128.8954990  51.7329997
  17.1469992 128.2194990  50.9819997  17.3939992 129.8884990  51.2839997
  16.8919992 128.6994990  53.0379997  17.3809992 127.8154990  53.5019997
  15.8699992 128.4034990  52.7189997  17.0419992 129.8214990  54.0439997
  16.8139992 130.7894990  53.5489997  18.1129992 129.8834990  54.3329997
  16.2089992 129.7594990  55.2699997  15.1689992 129.7084990  54.8839997
  16.3199992 130.6684990  55.8999997  16.5139992 128.6254990  56.1859997
  16.3929992 127.6284990  55.7099997  15.7909992 128.5594990  57.0269997
  17.5279992 128.5894990  56.6379997 120.0939992 130.3764990  53.4419997
 119.0399992 130.0384990  53.3449997 120.4249992 130.4644990  54.4989997
 120.7029992 129.5154990  53.0939997 120.4729992 131.6154990  52.6259997
 121.4989992 131.9764990  52.8529997 120.3679992 131.2624990  51.5779997
 119.6309992 132.9684990  52.8739997 118.5969992 132.7834990  52.5109997
 119.7059992 133.1694990  53.9639997 120.1109992 134.1784990  52.1339997
 120.5619992 134.9504990  52.7939997 120.9229992 133.9234990  51.4209997
 118.9849992 135.0324990  51.3389997 118.1179992 135.2494990  51.9989997
 119.4099992 135.9624990  50.9049997 118.6909992 134.2914990  50.0159997
 119.5289992 134.2294990  49.2889997 118.3819992 133.2374990  50.1889997
 117.5399992 134.9344990  49.2789997 116.6279992 134.7644990  49.8899997
 117.7219992 136.0304990  49.2439997 117.4379992 134.3024990  47.8719997
 118.4399992 134.4734990  47.4259997 117.2229992 133.2234990  48.0289997
 116.3099992 134.8464990  46.9339997 115.3559992 134.4254990  47.3159997
 116.3519992 135.9504990  47.0559997 116.4509992 134.5534990  45.4859997
 117.3999992 135.0004990  45.1209997 116.4949992 133.4434990  45.4619997
 115.1749992 135.0074990  44.7559997 114.2629992 134.6044990  45.2459997
 115.1499992 136.1004990  44.9579997 115.0549992 134.6884990  43.3179997
 115.0599992 133.5974990  43.1119997 114.0959992 135.1034990  42.9399997
 116.1109992 135.3314990  42.4289997 117.0839992 135.1674990  42.9399997
 116.1329992 134.7024990  41.5129997 115.9029992 136.8234990  42.0949997
 115.2119992 136.8764990  41.2269997 115.4479992 137.3294990  42.9739997
 117.2439992 137.4534990  41.6469997 117.2369992 138.5644990  41.6749997
 118.0839992 137.0834990  42.2729997 117.4319992 137.1124990  40.1059997
 116.5819992 137.3734990  39.2819997 118.5489992 136.4514990  39.9359997
 118.9549992 136.0634990  38.5809997 118.0419992 135.8354990  37.9899997
 119.5619992 136.8024990  38.0149997 119.9899992 134.9244990  38.7499997
 121.0369992 135.1844990  39.0179997 120.1159992 134.1694990  37.3859997
 120.5189992 134.9224990  36.6759997 120.8609992 133.3454990  37.3809997
 118.8719992 133.7514990  36.9419997 118.5129992 132.9114990  35.6159997
 116.9709992 132.8494990  35.7169997 116.1339992 133.8844990  36.3159997
 116.7759992 134.5014990  36.9799997 115.7689992 134.4624990  35.4399997
 114.9589992 133.2094990  37.0919997 114.3929992 134.0884990  37.3649997
 114.4519992 132.5634990  36.3899997 115.3599992 132.4894990  38.3259997
 116.4399992 133.1534990  39.0859997 116.1609992 134.1914990  39.1899997
 116.4489992 132.7294990  40.0789997 117.4049992 133.1334990  38.6019997
 114.1379992 132.4214990  39.1679997 113.4009992 131.7484990  38.7549997
 114.4009992 131.9624990  40.1089997 113.7199992 133.4154990  39.2199997
 115.8289992 131.0994990  37.9329997 114.9959992 130.5764990  37.4859997
 116.2719992 130.5384990  38.7409997 116.6139992 131.1894990  37.1969997
 118.9709992 133.6814990  34.4859997 119.0899992 131.5834990  35.7899997
 119.5069992 134.0094990  39.7369997 119.9989992 134.0214990  40.9929997
 120.8229992 134.7684990  41.4909997 119.3699992 132.8174990  41.7669997
 119.2879992 131.9784990  41.0419997 118.3719992 133.1924990  42.0809997
 120.3179992 132.5284990  42.9439997 120.3389992 133.4184990  43.6089997
 121.3319992 132.3854990  42.5139997 120.0119992 131.3014990  43.6869997
 120.7149992 130.5584990  43.2529997 118.9469992 131.0154990  43.5549997
 120.1179992 131.4654990  45.1989997 119.3969992 132.1934990  45.6279997
 121.0529992 132.0224990  45.4229997 119.9739992 130.1274990  45.9229997
 120.3519992 130.2834990  46.9559997 120.4169992 129.3304990  45.2889997
 118.4769992 129.7134990  46.0669997 118.0029992 129.7414990  45.0629997
 117.9309992 130.4524990  46.6919997 118.2219992 128.2964990  46.6569997
 118.3879992 127.6104990  45.7999997 117.1179992 128.3874990  46.7489997
 118.9319992 127.9454990  47.9609997 119.4619992 126.9834990  48.0209997
 118.7639992 128.5754990  49.1579997 119.4549992 128.2804990  49.9609997
 117.9199992 129.8114990  49.5489997 117.2209992 130.1074990  48.7379997
 118.6309992 130.6454990  49.7289997 117.2719992 129.5634990  50.9129997
 118.1259992 129.4774990  51.6179997 116.6479992 128.6434990  50.9149997
 116.3249992 130.7534990  51.1809997 115.5159992 130.9274990  50.4389997
 116.9749992 131.6214990  51.4259997 115.5859992 130.6214990  52.4949997
 116.3739992 130.5754990  53.2769997 114.9869992 129.6944990  52.6179997
 114.7889992 131.9124990  52.8629997 113.8749992 131.5704990  53.3939997
 114.4789992 132.5094990  51.9779997 115.6049992 132.9794990  53.7389997
 116.5039992 133.3484990  53.2009997 115.8219992 132.5664990  54.7469997
 114.6949992 134.1814990  53.9499997 113.6479992 133.8564990  54.1299997
 114.5919992 134.7354990  52.9929997 115.2109992 134.9924990  55.1219997
 114.9469992 136.0694990  55.0549997 116.3119992 135.0494990  54.9779997
 114.8809992 134.5534990  56.0869997 133.1939992 123.1854990  55.4819997
 133.5959992 122.7334990  56.4139997 133.7989992 124.0694990  55.1899997
 133.3959992 122.4844990  54.6449997 131.7299992 123.4104990  55.7259997
 131.1949992 122.4384990  55.6839997 131.6249992 123.7434990  56.7799997
 131.1159992 124.4044990  54.6999997 130.1439992 123.9994990  54.3459997
 130.9399992 125.4064990  55.1469997 131.9009992 124.5394990  53.3409997
 132.9169992 124.9304990  53.5619997 132.0639992 123.5774990  52.8099997
 131.3059992 125.5584990  52.3209997 130.2779992 125.2474990  52.0359997
 131.1699992 126.5544990  52.7949997 132.1439992 125.7514990  51.0219997
 133.1049992 126.2724990  51.2169997 132.4699992 124.7624990  50.6339997
 131.3929992 126.6624990  50.0209997 130.5169992 126.0614990  49.6959997
 131.0419992 127.5704990  50.5579997 132.1909992 127.0694990  48.7889997
 133.0539992 127.6194990  49.2199997 132.4719992 126.0974990  48.3289997
 131.4739992 127.8484990  47.7109997 131.1269992 128.7934990  48.1819997
 132.2709992 128.1254990  46.9879997 130.2839992 127.1454990  47.0349997
 129.7789992 126.6844990  47.9109997 129.6999992 128.0044990  46.6429997
 130.5639992 126.1784990  45.9349997 131.0319992 125.3054990  46.4379997
 129.6879992 125.7024990  45.4439997 131.5109992 126.5834990  44.7879997
 130.9729992 127.1504990  43.9979997 132.2679992 127.3234990  45.1229997
 132.2229992 125.4734990  44.1749997 132.9859992 125.0704990  44.8739997
 131.4479992 124.7434990  43.8579997 132.9579992 125.7644990  42.8809997
 132.1959992 125.5564990  42.0999997 133.2559992 126.8344990  42.8769997
 134.2129992 124.9524990  42.4549997 134.9629992 125.1094990  43.2599997
 134.1159992 123.8524990  42.3349997 135.0349992 125.6044990  41.2959997
 134.8869992 126.6964990  40.8049997 135.8969992 124.6164990  40.7829997
 136.6759992 124.8824990  39.6149997 136.7569992 125.9234990  39.2369997
 137.6349992 124.3344990  39.7339997 135.9529992 124.2504990  38.4029997
 136.7029992 124.3964990  37.5969997 134.6169992 124.9184990  38.0809997
 134.7649992 125.9934990  38.3159997 134.5329992 124.8254990  36.9769997
 133.4629992 124.3974990  38.6359997 131.9519992 124.8794990  38.2869997
 131.8659992 124.2984990  36.8769997 130.6909992 124.2544990  36.0979997
 129.9799992 125.0834990  36.3019997 130.8779992 124.2334990  35.0029997
 129.8819992 122.9714990  36.4249997 130.0109992 122.9344990  37.4969997
 128.8679992 123.1074990  36.0799997 130.3599992 121.6644990  35.8439997
 129.9499992 121.6924990  34.3539997 130.4559992 122.5434990  33.9209997
 130.3179992 120.7774990  33.9129997 128.8749992 121.6954990  34.2569997
 131.8539992 121.5844990  36.0139997 131.9229992 121.4954990  37.0879997
 132.1129992 120.6054990  35.6389997 132.4279992 122.3874990  35.5759997
 129.7039992 120.5084990  36.5129997 129.8329992 119.6134990  35.9209997
 128.6569992 120.6354990  36.7479997 130.1559992 120.4154990  37.4889997
 130.9699992 124.3294990  39.2389997 131.8959992 126.3784990  38.1849997
 135.8559992 122.8644990  38.6469997 135.5549992 122.1684990  37.4999997
 135.3889992 122.7234990  36.4099997 135.2249992 120.6834990  37.7569997
 136.1519992 120.1284990  37.4999997 134.3769992 120.2984990  37.1509997
 134.8799992 120.3544990  39.2359997 135.6379992 120.7664990  39.9359997
 134.6729992 119.2754990  39.4049997 133.5569992 121.0564990  39.6619997
 132.7779992 120.9634990  38.8759997 133.8279992 122.1324990  39.7169997
 133.0249992 120.5574990  41.0209997 133.8999992 120.5724990  41.7049997
 132.8049992 119.4704990  40.9549997 131.7279992 121.2754990  41.3559997
 130.9399992 120.8614990  40.6909997 131.9059992 122.3624990  41.2099997
 131.2139992 121.2374990  42.8039997 131.0119992 120.1814990  43.0829997
 130.3299992 121.9034990  42.7009997 132.2059992 121.6284990  43.8449997
 132.5549992 122.6554990  43.6069997 133.1029992 120.9734990  43.8699997
 131.6059992 121.6524990  45.2429997 130.6039992 122.1054990  45.2309997
 132.0899992 121.2574990  46.4119997 131.3619992 121.2044990  47.2349997
 133.4749992 120.6304990  46.6409997 134.1729992 121.0694990  45.8959997
 133.4939992 119.5204990  46.6199997 134.1839992 120.8824990  48.0649997
 134.1769992 121.9924990  48.1179997 135.2329992 120.5664990  47.8809997
 133.5779992 120.0444990  49.2069997 133.6379992 118.9734990  48.9159997
 132.5349992 120.3814990  49.3879997 134.4169992 120.1234990  50.4749997
 135.4439992 119.7264990  50.3259997 133.9429992 119.5104990  51.2699997
 134.3289992 121.5614990  51.0019997 133.3929992 121.6214990  51.5979997
 134.3529992 122.3504990  50.2199997 135.4969992 121.8524990  52.0419997
 135.2719992 122.8924990  52.3619997 136.5079992 121.8674990  51.5829997
 135.3919992 120.9574990  53.2209997 135.6989992 119.9224990  52.9579997
 134.3309992 120.8574990  53.5339997 136.2729992 121.3914990  54.4499997
 136.2079992 120.5794990  55.2049997 135.8829992 122.3424990  54.8719997
 137.3259992 121.5254990  54.1219997 126.9379992 127.2834990  58.4169997
 127.6229992 127.7374990  59.1639997 127.6489992 126.6414990  57.8539997
 126.2019992 126.6824990  58.9919997 126.2519992 128.3234990  57.5129997
 125.8099992 129.2194990  57.9999997 127.0249992 128.7924990  56.8689997
 125.2279992 127.6804990  56.6419997 124.3939992 127.3894990  57.3149997
 124.9149992 128.3604990  55.8209997 125.6679992 126.4384990  55.8929997
 126.5259992 126.6574990  55.2229997 125.9239992 125.5544990  56.5149997
 124.5759992 125.8634990  54.9479997 123.8249992 125.2934990  55.5359997
 124.0889992 126.7874990  54.5699997 124.9979992 125.1354990  53.6079997
 125.4889992 125.7624990  52.8329997 125.6229992 124.2304990  53.7659997
 123.7029992 124.6104990  52.9529997 123.0719992 124.0484990  53.6739997
 123.1179992 125.5164990  52.6859997 123.8049992 123.9634990  51.5369997
 124.4079992 123.0544990  51.7499997 122.7979992 123.6384990  51.1959997
 124.2719992 124.9674990  50.4239997 123.6979992 125.9184990  50.4259997
 125.3159992 125.2704990  50.6539997 124.0189992 124.4944990  48.9959997
 124.3289992 123.4294990  49.0569997 122.9499992 124.4444990  48.6969997
 124.8949992 125.1954990  47.8639997 124.3759992 126.1324990  47.5679997
 125.8429992 125.4334990  48.3929997 125.0809992 124.2024990  46.7659997
 125.4389992 123.2594990  47.2319997 124.0759992 124.0274990  46.3239997
 126.1659992 124.6284990  45.7719997 127.1279992 124.4514990  46.2979997
 126.1109992 123.9244990  44.9139997 126.1539992 126.1144990  45.1389997
 125.0809992 126.4024990  45.0979997 126.6539992 126.7174990  45.9259997
 126.9509992 126.3394990  43.8309997 127.1329992 127.4254990  43.6819997
 127.9639992 125.9104990  43.9869997 126.2459992 125.7854990  42.6279997
 125.2359992 125.1514990  42.5929997 126.9219992 126.1744990  41.4949997
 126.4029992 125.6874990  40.2249997 127.2509992 125.6224990  39.5099997
 126.0079992 124.6514990  40.2979997 125.4589992 126.7324990  39.5979997
 125.3039992 126.5034990  38.5219997 126.2059992 128.0884990  39.5489997
 126.5259992 128.3754990  40.5739997 127.0559992 127.9104990  38.8569997
 125.4099992 129.0994990  39.0269997 125.4919992 129.8614990  37.6669997
 124.1409992 129.5064990  36.8679997 122.9459992 129.1274990  37.6349997
 123.0019992 129.2864990  38.7329997 122.1049992 129.7264990  37.2219997
 122.5069992 127.6134990  37.4429997 123.1339992 127.0534990  38.1199997
 121.4939992 127.6814990  37.8109997 122.5989992 126.7824990  36.1339997
 122.3399992 125.2924990  36.3559997 122.2399992 124.8874990  35.3609997
 123.2019992 124.8274990  36.8109997 121.3559992 125.0524990  36.7309997
 121.7539992 127.2544990  34.9529997 121.9859992 126.6104990  34.1169997
 120.7509992 127.1314990  35.3339997 121.9219992 128.2804990  34.6629997
 124.1129992 126.8934990  35.7119997 124.1829992 126.2674990  34.8359997
 124.7959992 126.5364990  36.4679997 124.3629992 127.9314990  35.5459997
 125.5749992 131.3354990  37.7909997 126.5769992 129.2544990  36.8859997
 124.1959992 126.8014990  40.3269997 123.4179992 125.7554990  40.3879997
 123.6759992 124.6574990  39.9029997 122.0839992 126.1174990  41.0339997
 121.3699992 125.3114990  40.7589997 121.7909992 127.1184990  40.6519997
 122.2719992 126.1014990  42.5159997 123.1589992 126.7024990  42.8109997
 122.5129992 125.0944990  42.9169997 121.0279992 126.6884990  43.1759997
 120.1169992 126.2254990  42.7399997 121.0189992 127.6994990  42.7149997
 121.0429992 126.7814990  44.6639997 120.9709992 125.8144990  45.2069997
 120.1429992 127.2884990  45.0719997 122.2599992 127.6384990  45.2669997
 122.5149992 128.4344990  44.5359997 123.0719992 126.8804990  45.2789997
 122.0329992 128.3274990  46.6219997 122.1819992 127.6734990  47.5079997
 121.0189992 128.7754990  46.7059997 122.8829992 129.5414990  46.6859997
 122.5869992 130.1294990  47.5809997 122.7259992 130.2044990  45.8089997
 124.3469992 129.1984990  46.8439997 124.7339992 128.5404990  46.0519997
 125.0159992 129.3534990  47.9579997 126.0219992 128.9094990  47.9649997
 124.5469992 129.9194990  49.2499997 123.8809992 130.7574990  48.9539997
 125.4659992 130.3474990  49.7039997 123.8949992 128.8754990  50.1249997
 124.6279992 128.1054990  50.4469997 123.1319992 128.4804990  49.4199997
 123.1629992 129.4754990  51.3719997 122.1289992 129.7304990  51.0539997
 123.5699992 130.4554990  51.6989997 123.1639992 128.5284990  52.6069997
 124.2339992 128.2944990  52.7919997 122.5629992 127.6284990  52.3559997
 122.6449992 129.1034990  53.8699997 123.1829992 130.0304990  54.1629997
 122.6099992 128.2884990  54.6239997 121.1889992 129.4794990  53.6869997
 120.5489992 128.6744990  53.2669997 121.1919992 130.2204990  52.8589997
 120.5409992 130.2494990  54.9019997 121.3429992 130.8504990  55.3819997
 120.1709992 129.3524990  55.4439997 119.4369992 131.2134990  54.5279997
 118.5359992 130.6824990  54.1539997 119.8309992 131.7914990  53.6659997
 119.2109992 131.8304990  55.4249997 125.1169992   7.1654990  58.0799997
 125.8929992   6.8744990  58.8189997 124.6649992   6.1954990  57.7779997
 124.3779992   7.7174990  58.6989997 125.5079992   8.0204990  56.8759997
 125.1589992   9.0584990  57.0659997 126.5829992   7.9354990  56.6079997
 124.6959992   7.9144990  55.5729997 123.6529992   8.1784990  55.8509997
 125.1159992   8.6074990  54.8129997 124.8319992   6.6264990  54.8219997
 124.5389992   5.7654990  55.4599997 124.1269992   6.6044990  53.9629997
 126.3049992   6.2794990  54.4419997 126.8819992   6.3884990  55.3849997
 126.2899992   5.2694990  53.9789997 126.7789992   7.2254990  53.2959997
 125.9899992   7.2824990  52.5149997 126.9319992   8.2754990  53.6269997
 128.0569992   6.7074990  52.6309997 128.8079992   6.7164990  53.4499997
 128.0649992   5.6314990  52.3549997 128.5229992   7.6674990  51.4479997
 128.6419992   8.6274990  51.9949997 129.5329992   7.3684990  51.0929997
 127.4889992   7.7914990  50.3379997 127.2369992   6.7974990  49.9109997
 126.5689992   8.2224990  50.7889997 127.9629992   8.7264990  49.2419997
 128.1179992   9.7384990  49.6749997 128.9359992   8.3354990  48.8759997
 127.0489992   8.9384990  48.0459997 126.1599992   9.5084990  48.3899997
 127.6569992   9.4434990  47.2649997 126.4729992   7.6304990  47.5659997
 127.1169992   6.7274990  47.6179997 125.6259992   7.3304990  48.2199997
 125.9339992   7.7094990  46.1209997 125.1939992   6.8884990  46.0089997
 125.3059992   8.6234990  46.0479997 126.8659992   7.6044990  44.9199997
 126.2779992   7.3714990  44.0069997 127.3499992   8.5554990  44.6109997
 127.8399992   6.4274990  45.0529997 128.6859992   6.7234990  45.7089997
 127.3649992   5.6084990  45.6339997 128.2699992   5.9344990  43.6869997
 128.9069992   6.5514990  42.8399997 127.8419992   4.7384990  43.5579997
 128.2019992   4.0114990  42.3689997 129.1299992   4.4144990  41.9099997
 128.3849992   2.9554990  42.6609997 127.1679992   3.9354990  41.1599997
 127.7229992   3.4734990  40.3159997 126.6959992   5.3914990  40.7029997
 126.1169992   5.8044990  41.5559997 127.6169992   5.9894990  40.5369997
 125.8739992   5.3044990  39.4809997 125.2699992   6.6764990  39.0529997
 124.2919992   6.2134990  37.9219997 124.8789992   5.5614990  36.7669997
 125.9319992   5.2644990  36.9609997 124.2709992   4.6344990  36.6909997
 124.9349992   6.5184990  35.5449997 125.5589992   7.3784990  35.7379997
 125.4929992   6.0374990  34.7549997 123.5589992   7.0574990  34.9489997
 122.8079992   7.8684990  36.0039997 123.5329992   8.6584990  36.1359997
 121.9129992   8.3034990  35.5849997 122.7099992   7.1684990  36.8209997
 124.1409992   7.8044990  33.6929997 123.3339992   8.2024990  33.0959997
 124.7349992   8.6474990  34.0159997 124.8009992   7.0624990  33.2699997
 122.7399992   5.9204990  34.4809997 121.7719992   6.2634990  34.1479997
 122.5489992   5.1764990  35.2399997 123.2009992   5.4284990  33.6369997
 124.4299992   7.2334990  40.1209997 126.2689992   7.5944990  38.4559997
 126.1159992   3.1924990  41.5919997 125.4399992   2.4754990  40.6889997
 125.7649992   2.3304990  39.5319997 124.1189992   1.9444990  41.2569997
 123.9729992   1.0664990  40.5909997 123.3189992   2.6904990  41.0639997
 124.2909992   1.5874990  42.7549997 124.3269992   2.5794990  43.2539997
 125.1939992   1.0114990  43.0499997 123.0169992   0.8934990  43.3249997
 123.1969992   0.6704990  44.3979997 122.7509992   0.0304990  42.6779997
 121.7509992   1.7914990  43.4559997 120.8409992   1.1704990  43.3059997
 121.7589992   2.4734990  42.5789997 121.6709992   2.6444990  44.7519997
 120.9379992   3.4504990  44.5339997 122.6669992   3.1104990  44.9109997
 121.1639992   1.9294990  46.1119997 121.7899992   1.0114990  46.1399997
 120.0979992   1.6504990  45.9709997 121.4369992   2.8044990  47.3639997
 122.5329992   2.9904990  47.3639997 121.0729992   2.1984990  48.2219997
 120.8209992   4.1644990  47.3209997 119.7209992   4.1674990  47.3349997
 121.3859992   5.4024990  47.4949997 120.8359992   6.3554990  47.5099997
 122.8309992   5.7294990  47.7619997 123.1149992   6.5584990  47.0789997
 123.5909992   4.9324990  47.6139997 123.1389992   6.1684990  49.2409997
 122.4689992   7.0274990  49.4569997 124.2109992   6.4434990  49.3489997
 122.8419992   5.0194990  50.1749997 123.2939992   4.0804990  49.7869997
 121.7469992   4.8654990  50.2849997 123.3819992   5.2254990  51.6329997
 122.6689992   5.9294990  52.1119997 124.3289992   5.8064990  51.6109997
 123.4999992   3.9114990  52.4589997 122.6029992   3.2994990  52.2239997
 123.3319992   4.2394990  53.5069997 124.7799992   3.2184990  52.2409997
 125.6119992   3.7134990  52.7859997 124.9919992   3.2414990  51.1509997
 124.8409992   1.8144990  52.8449997 125.9369992   1.6384990  52.8169997
 124.4249992   1.0224990  52.1869997 124.2799992   1.6554990  54.2869997
 124.8259992   2.2054990  55.0829997 124.4179992   0.5824990  54.5389997
 123.2259992   1.9814990  54.1539997 118.3899992   3.5714990  55.5289997
 117.5309992   4.1374990  55.9469997 118.8529992   4.3344990  54.8669997
 119.1579992   3.3264990  56.2939997 117.7519992   2.4064990  54.6869997
 118.4789992   1.9474990  53.9839997 117.4539992   1.6024990  55.3929997
 116.4359992   2.7534990  53.9679997 116.0729992   1.8944990  53.3639997
 115.6319992   2.8194990  54.7319997 116.5769992   3.8534990  52.9509997
 116.7239992   4.8594990  53.3979997 117.4419992   3.6194990  52.2949997
 115.3919992   3.8034990  52.0139997 115.1349992   2.7624990  51.7229997
 114.5099992   4.1054990  52.6189997 115.6789992   4.7064990  50.8699997
 115.6659992   5.7544990  51.2379997 116.7489992   4.6624990  50.5739997
 114.7179992   4.6724990  49.7139997 114.5259992   3.6874990  49.2359997
 113.7009992   4.9074990  50.0949997 115.1559992   5.6824990  48.5899997
 115.3469992   6.6924990  49.0109997 116.1199992   5.3104990  48.1809997
 114.1929992   5.7824990  47.3639997 113.2539992   6.1984990  47.7879997
 114.5759992   6.5594990  46.6679997 113.8419992   4.5004990  46.6219997
 113.4579992   3.7624990  47.3579997 113.0549992   4.7844990  45.8909997
 115.0339992   3.8294990  45.7829997 115.8109992   3.4774990  46.4959997
 114.7199992   2.9504990  45.1799997 115.7639992   4.7414990  44.7789997
 115.0289992   5.2634990  44.1279997 116.2829992   5.5024990  45.3989997
 116.7589992   3.9514990  44.0359997 117.4299992   3.3594990  44.6949997
 116.3099992   3.1544990  43.4049997 117.6989992   4.8994990  43.1359997
 117.1399992   5.4734990  42.3669997 118.2109992   5.6224990  43.8069997
 118.8169992   4.2024990  42.3859997 119.5009992   3.6744990  43.0839997
 118.4509992   3.3174990  41.8219997 119.5169992   5.1384990  41.4249997
 119.2389992   6.3024990  41.3459997 120.2549992   4.3774990  40.6179997
 120.8729992   5.0984990  39.4859997 120.9399992   6.2034990  39.5839997
 121.9439992   4.8074990  39.4269997 120.0979992   4.8204990  38.1679997
 120.6989992   5.2314990  37.3279997 118.6509992   5.3764990  38.1269997
 118.8429992   6.4684990  38.2049997 118.2509992   5.3374990  37.0909997
 117.7979992   4.8104990  39.0599997 116.5449992   3.9284990  38.7519997
 117.0669992   2.7614990  37.7739997 116.0469992   1.8134990  37.4519997
 115.7719992   1.3414990  38.4189997 115.1819992   2.3784990  37.0429997
 116.6409992   0.7964990  36.3699997 117.3219992   0.1634990  36.9199997
 115.8109992   0.1684990  36.0799997 117.2769992   1.2344990  35.0739997
 116.3479992   2.0224990  34.2349997 116.1449992   2.9584990  34.7339997
 116.7519992   2.1514990  33.2419997 115.3659992   1.5734990  34.2309997
 118.5149992   2.0244990  35.3349997 119.1519992   1.5984990  36.0959997
 119.0709992   2.2654990  34.4409997 118.0969992   2.9244990  35.7629997
 117.5579992  -0.0665010  34.3139997 118.0279992   0.2264990  33.3869997
 116.6559992  -0.6265010  34.1129997 118.2159992  -0.6425010  34.9489997
 116.2499992   3.3474990  40.0789997 115.5689992   4.8024990  38.0259997
 119.9249992   3.4034990  38.0649997 121.0589992   2.6894990  37.6719997
 122.0399992   3.3104990  37.2339997 121.0659992   1.1624990  38.0849997
 122.1279992   0.9274990  37.8559997 120.3149992   0.6604990  37.4379997
 120.7849992   0.9734990  39.5659997 121.4579992   1.6414990  40.1449997
 121.2539992  -0.0185010  39.7419997 119.3929992   0.9174990  39.9619997
 118.8079992   0.2584990  39.2859997 118.9099992   1.9154990  40.0319997
 119.1939992   0.2564990  41.2809997 119.6249992   0.9434990  42.0399997
 119.6979992  -0.7335010  41.2609997 117.6799992   0.0934990  41.6389997
 117.1799992  -0.3385010  40.7459997 117.2239992   1.0994990  41.7579997
 117.3219992  -0.7155010  42.8349997 117.6749992  -1.7355010  42.5709997
 116.2249992  -0.8825010  42.8899997 117.8159992  -0.2845010  44.2099997
 117.3159992  -0.9445010  44.9489997 117.5569992   0.7744990  44.4259997
 119.2709992  -0.6395010  44.5279997 119.5069992  -1.7135010  44.5559997
 120.2049992   0.1834990  45.0099997 121.2489992  -0.1275010  45.1659997
 120.0789992   1.6594990  45.4059997 119.2419992   2.1814990  44.8939997
 121.0159992   2.0824990  44.9859997 119.9479992   2.0354990  46.8439997
 120.7129992   1.5124990  47.4569997 118.9699992   1.6034990  47.1489997
 120.0729992   3.5464990  47.1679997 119.6739992   4.0714990  46.2739997
 121.1169992   3.9134990  47.2639997 119.3329992   3.9484990  48.4409997
 118.2479992   3.7494990  48.3079997 119.4439992   5.0404990  48.6109997
 119.7749992   3.2734990  49.8119997 119.4499992   2.2114990  49.8069997
 119.4339992   3.8994990  50.6639997 121.2599992   3.5724990  50.1249997
 121.6309992   4.6094990  49.9759997 121.7399992   2.9124990  49.3709997
 121.7009992   3.1064990  51.5479997 122.7599992   3.4194990  51.6659997
 121.6849992   1.9964990  51.4989997 121.0089992   3.5424990  52.7899997
 121.0919992   4.6504990  52.8289997 121.5099992   3.1004990  53.6779997
 119.9959992   3.1004990  52.6809997 131.8309992   8.3584990  58.5459997
 131.4119992   7.3654990  58.2749997 131.2039992   9.0744990  57.9719997
 131.6629992   8.5294990  59.6309997 133.2999992   8.4264990  58.2729997
 133.7159992   9.3224990  58.7819997 133.6359992   7.3924990  58.4999997
 133.5279992   8.6364990  56.7329997 133.2319992   9.6114990  56.2909997
 134.6379992   8.6764990  56.7209997 133.0219992   7.4294990  55.9229997
 133.3719992   6.4764990  56.3759997 131.9149992   7.4474990  56.0089997
 133.3639992   7.4514990  54.3899997 134.3919992   7.7834990  54.1319997
 133.1779992   6.4374990  53.9739997 132.3889992   8.3724990  53.5489997
 132.6429992   9.4214990  53.8119997 132.6609992   8.2654990  52.4769997
 130.9059992   8.0994990  53.7919997 130.7119992   7.0084990  53.7049997
 130.6279992   8.4934990  54.7929997 129.9419992   8.9514990  52.8469997
 128.9559992   8.9324990  53.3579997 130.1909992  10.0334990  52.8509997
 129.8249992   8.3564990  51.4289997 129.8979992   7.2534990  51.5319997
 128.7929992   8.6804990  51.1749997 130.8579992   8.9764990  50.3839997
 131.8399992   8.4554990  50.3889997 130.3409992   8.8454990  49.4089997
 131.1799992  10.5594990  50.4579997 130.2199992  11.1074990  50.3429997
 131.7389992  10.8184990  51.3829997 131.9909992  10.9234990  49.2419997
 132.2499992  12.0034990  49.2789997 133.0039992  10.4664990  49.2669997
 131.1859992  10.9924990  47.8759997 130.1069992  10.7664990  48.0199997
 131.2809992  11.9974990  47.4139997 131.6329992   9.8744990  46.8609997
 131.8589992   8.9384990  47.4149997 130.7999992   9.6284990  46.1679997
 132.9109992  10.2614990  46.0689997 132.7119992  11.2494990  45.6009997
 133.9139992  10.4524990  46.5079997 133.1139992   9.2754990  44.8689997
 133.5639992   8.1414990  44.9439997 132.7939992   9.9424990  43.7969997
 133.1959992   9.5464990  42.5209997 134.2819992   9.7364990  42.3779997
 133.2869992   8.4554990  42.3299997 132.3279992  10.1564990  41.4419997
 131.3329992   9.7224990  41.6789997 132.7709992   9.6834990  40.0399997
 132.8589992   8.5774990  39.9859997 131.9599992   9.9534990  39.3309997
 133.9989992  10.0504990  39.6469997 134.5109992  10.2534990  38.1789997
 133.1619992  10.7984990  37.5049997 132.8199992  10.1654990  36.2929997
 133.4379992  10.5634990  35.4599997 132.9189992   9.0654990  36.4119997
 131.3329992  10.3864990  35.9369997 131.3629992   9.9184990  34.9639997
 130.7489992   9.7974990  36.6289997 130.7509992  11.8284990  35.8079997
 130.8519992  12.6044990  37.1289997 131.8409992  12.7084990  37.5499997
 130.4339992  13.5854990  36.9599997 130.2609992  12.1114990  37.8879997
 131.3619992  12.4994990  34.5949997 132.4279992  12.5494990  34.7629997
 131.0879992  11.8484990  33.7779997 130.9939992  13.4914990  34.3829997
 129.2739992  11.7734990  35.5359997 129.1359992  11.0244990  34.7699997
 128.9529992  12.7264990  35.1409997 128.7039992  11.5444990  36.4239997
 135.6039992  11.2944990  38.1619997 134.8299992   8.9344990  37.6789997
 132.3189992  11.5294990  41.6089997 131.5889992  12.2504990  40.8079997
 130.8619992  11.8344990  39.9159997 131.8229992  13.7954990  40.9749997
 131.8919992  14.1484990  39.9239997 132.6129992  14.1724990  41.6589997
 130.4609992  14.4444990  41.4219997 129.5799992  13.9734990  40.9339997
 130.6209992  15.4734990  41.0369997 130.2839992  14.4574990  42.9809997
 130.0819992  13.4304990  43.3529997 129.4399992  15.1334990  43.2359997
 131.5279992  14.8834990  43.8469997 131.8369992  15.8854990  43.4809997
 132.3239992  14.1194990  43.7079997 131.1789992  15.0974990  45.3099997
 130.1149992  14.8024990  45.4339997 131.1589992  16.1834990  45.5429997
 132.0729992  14.2894990  46.2599997 131.9279992  13.2004990  46.0969997
 131.6849992  14.3954990  47.2949997 133.5699992  14.6974990  46.1969997
 133.5979992  15.6644990  46.7419997 133.9639992  14.7294990  45.1589997
 134.3849992  13.6994990  46.9479997 134.5189992  12.7964990  46.3339997
 135.1909992  13.6794990  48.0519997 135.7559992  12.7994990  48.3919997
 135.4459992  14.9784990  48.8649997 135.1779992  15.9534990  48.4039997
 136.5339992  15.0674990  49.0729997 134.6659992  15.0694990  50.1769997
 135.0469992  15.9164990  50.7869997 134.9939992  14.1654990  50.7339997
 133.1629992  15.1314990  50.0369997 132.8459992  14.2294990  49.4719997
 132.8239992  15.9974990  49.4289997 132.4499992  15.2364990  51.4089997
 131.3899992  15.5254990  51.2439997 132.9479992  15.9364990  52.1139997
 132.2779992  13.8294990  51.9979997 133.2749992  13.4014990  52.2339997
 131.6509992  13.1444990  51.3869997 131.6129992  14.0104990  53.4029997
 130.5049992  14.0094990  53.3179997 131.8039992  15.0334990  53.7919997
 131.9979992  13.1214990  54.6159997 131.8349992  13.7094990  55.5439997
 133.0219992  12.6984990  54.5299997 131.0959992  11.8454990  54.6949997
 130.0109992  11.9554990  54.9059997 131.5279992  11.2784990  55.5479997
 131.2479992  11.3374990  53.7179997 137.9479992 117.4014990  57.7249997
 136.9159992 117.6264990  57.3789997 138.4189992 118.2524990  58.2609997
 137.7289992 116.5974990  58.4609997 138.8859992 116.9584990  56.6029997
 139.8059992 116.5914990  57.1069997 138.4299992 116.1404990  56.0049997
 139.2399992 118.2164990  55.7069997 138.2809992 118.6964990  55.4159997
 139.8649992 118.8314990  56.3889997 140.1679992 117.7464990  54.5179997
 140.3789992 118.6744990  53.9449997 141.1419992 117.3724990  54.9009997
 139.3979992 116.8674990  53.4999997 139.3779992 115.8404990  53.9239997
 138.4139992 117.3824990  53.4729997 139.9539992 116.9394990  52.0649997
 139.7049992 117.9004990  51.5659997 141.0649992 116.9324990  52.0549997
 139.4079992 115.7294990  51.2099997 139.9969992 115.6894990  50.2679997
 139.7259992 114.8034990  51.7339997 137.8909992 115.6064990  50.9439997
 137.6039992 114.6754990  50.4099997 137.3259992 115.5224990  51.8959997
 137.2769992 116.8904990  50.3679997 137.4409992 117.7514990  51.0499997
 137.8459992 117.1444990  49.4479997 135.7599992 116.8454990  50.0809997
 135.7799992 116.2584990  49.1379997 135.3349992 116.1814990  50.8639997
 134.9679992 118.0954990  50.0689997 133.8819992 118.0344990  49.8389997
 134.9469992 118.6064990  51.0549997 135.5199992 119.2114990  49.2039997
 135.1589992 120.1684990  49.6389997 136.6279992 119.2924990  49.2019997
 134.9799992 119.2954990  47.7379997 133.8699992 119.3394990  47.7259997
 135.2429992 120.2594990  47.2519997 135.5399992 118.2484990  46.7599997
 136.6259992 118.0954990  46.9349997 134.9559992 117.3354990  47.0059997
 135.2059992 118.8494990  45.3039997 134.1009992 118.7994990  45.1999997
 135.5429992 119.9074990  45.2519997 135.7819992 117.9594990  44.2649997
 136.4179992 116.9604990  44.5249997 135.3769992 118.2954990  43.0229997
 135.5879992 117.4444990  41.9259997 135.9529992 116.4444990  42.2419997
 134.5919992 117.3154990  41.4499997 136.5809992 118.0084990  40.8549997
 136.0109992 118.8234990  40.3609997 137.0859992 116.9394990  39.8259997
 137.7329992 116.2374990  40.3949997 136.2279992 116.2944990  39.5399997
 137.8449992 117.3574990  38.6999997 137.1409992 118.0004990  37.4579997
 138.3109992 118.7634990  36.7439997 139.5929992 118.2794990  36.4569997
 140.0359992 117.8614990  37.3849997 139.5639992 117.5164990  35.6489997
 140.5029992 119.3614990  35.7959997 141.4949992 118.9404990  35.7279997
 140.0819992 119.7324990  34.8739997 140.6939992 120.7174990  36.5409997
 141.1819992 120.5224990  38.0019997 141.3469992 121.4624990  38.5069997
 140.4689992 119.9044990  38.5269997 142.1419992 120.0294990  37.9529997
 141.7519992 121.4244990  35.7839997 142.6649992 120.9644990  36.1319997
 141.6789992 121.3664990  34.7079997 141.7139992 122.4754990  36.0319997
 139.4199992 121.4904990  36.5249997 139.1959992 121.8534990  35.5319997
 139.4489992 122.2924990  37.2479997 138.7729992 120.6844990  36.8379997
 136.8009992 116.8634990  36.6319997 136.0619992 119.0154990  37.8329997
 137.7169992 118.5664990  41.5829997 138.5039992 119.4824990  41.1239997
 138.3759992 119.9734990  40.0279997 139.5039992 119.8014990  42.1529997
 140.1939992 120.5904990  41.7849997 139.9729992 118.8464990  42.4699997
 138.8469992 120.3794990  43.3829997 138.2849992 119.5654990  43.8879997
 138.0669992 121.1524990  43.2169997 139.8559992 121.0134990  44.4279997
 140.2089992 121.9244990  43.8989997 140.6919992 120.3184990  44.6569997
 139.0929992 121.5114990  45.6589997 138.6969992 120.5234990  45.9779997
 138.1849992 122.1114990  45.4369997 140.0429992 122.3044990  46.5829997
 140.3009992 123.2154990  46.0009997 140.9699992 121.6954990  46.6449997
 139.4929992 122.7244990  47.9659997 138.7389992 123.5254990  47.8069997
 140.3339992 123.3164990  48.3849997 138.9439992 121.5704990  48.8449997
 138.1729992 121.0144990  48.2699997 138.3499992 122.0734990  49.6369997
 140.0279992 120.7004990  49.4769997 139.9469992 119.6564990  49.1389997
 141.0389992 121.0584990  50.3319997 141.6539992 120.2344990  50.7229997
 141.5039992 122.3884990  50.9409997 141.8529992 123.0544990  50.1229997
 142.3939992 122.2824990  51.5969997 140.3599992 123.1264990  51.7579997
 139.4379992 123.2204990  51.1449997 140.6669992 124.1864990  51.8909997
 140.0529992 122.5154990  53.1659997 140.9429992 122.4364990  53.8259997
 139.5839992 121.5174990  53.0359997 139.1329992 123.3974990  54.0919997
 139.7009992 124.3394990  54.2459997 139.0079992 122.8274990  55.0369997
 137.7729992 123.6304990  53.4539997 137.9239992 124.2644990  52.5549997
 137.2309992 124.1904990  54.2449997 136.9569992 122.4104990  52.9889997
 137.6399992 121.9944990  52.2169997 136.0149992 122.6884990  52.4689997
 136.7139992 121.4314990  54.1169997 136.1039992 121.9344990  54.8979997
 137.6139992 121.0994990  54.6779997 135.9359992 120.2154990  53.7179997
 134.9609992 120.4424990  53.2359997 135.8129992 119.5894990  54.6279997
 136.6269992 119.7074990  53.0109997  -0.0500008  15.3064990  59.0939997
  -0.0310008  16.2844990  58.5659997   1.0189992  15.0054990  59.1169997
  -0.3660008  15.3904990  60.1559997  -0.9800008  14.2064990  58.4219997
  -0.9440008  13.3404990  59.1169997  -1.9930008  14.6094990  58.2049997
  -0.4800008  13.8444990  57.0319997   0.5339992  13.3914990  57.0529997
  -1.1750008  13.2034990  56.4479997  -0.3700008  15.1094990  55.9979997
  -1.1910008  15.8554990  56.0719997   0.5399992  15.6434990  56.3449997
  -0.2960008  14.8204990  54.4859997  -1.2630008  14.5264990  54.0239997
  -0.0470008  15.7734990  53.9709997   0.7689992  13.7604990  54.1099997
   1.6359992  13.8734990  54.7959997   0.3409992  12.7364990  54.1719997
   1.4149992  13.8034990  52.6539997   1.8439992  14.8244990  52.5679997
   2.2809992  13.1064990  52.6359997   0.4079992  13.2254990  51.7079997
  -0.1650008  12.3574990  52.0979997  -0.3730008  14.0144990  51.6639997
   1.0229992  13.0474990  50.3149997   1.6939992  12.1634990  50.3629997
   0.2489992  12.8104990  49.5539997   1.6499992  14.3844990  49.7179997
   0.7729992  15.0524990  49.8589997   2.6119992  14.5304990  50.2559997
   2.0949992  14.2454990  48.2599997   2.9659992  13.5574990  48.2379997
   1.4049992  13.8264990  47.4959997   2.8419992  15.5114990  47.8429997
   2.0319992  16.2624990  47.7209997   3.4999992  15.9694990  48.6109997
   3.6259992  15.2294990  46.6049997   4.3879992  14.4404990  46.7789997
   2.8549992  14.7914990  45.9349997   4.3799992  16.4414990  46.0769997
   4.7429992  16.8474990  47.0449997   5.2539992  16.0984990  45.4829997
   3.6919992  17.4264990  45.0759997   2.6879992  17.6264990  45.5049997
   4.2649992  18.3754990  45.1429997   3.5299992  17.0264990  43.5979997
   4.0439992  15.9494990  43.2309997   2.8459992  17.9084990  42.9219997
   2.5119992  17.6394990  41.5499997   1.9949992  18.4964990  41.0679997
   3.4689992  17.5564990  40.9909997   1.5819992  16.4864990  41.3909997
   2.2139992  15.6134990  41.6619997   1.2399992  16.2514990  39.8829997
   0.8249992  17.1324990  39.3479997   2.2039992  16.0884990  39.3549997
   0.4839992  15.1384990  39.7079997  -0.1410008  14.5154990  38.3089997
   0.8629992  15.0644990  37.1679997   1.8599992  14.2764990  36.6519997
   2.6619992  13.8734990  37.3059997   1.2879992  13.4054990  36.2669997
   2.5799992  14.9424990  35.4169997   3.3239992  14.2314990  35.0889997
   1.8889992  15.2194990  34.6339997   3.3499992  16.2354990  35.6179997
   4.0369992  16.0934990  36.9469997   4.2339992  17.0394990  37.4309997
   3.4859992  15.3784990  37.5399997   5.0129992  15.7254990  36.6659997
   4.4579992  16.2694990  34.6429997   4.2449992  16.4684990  33.6039997
   5.1769992  17.0494990  34.8449997   4.9489992  15.3104990  34.5649997
   2.3979992  17.3724990  35.5379997   2.0549992  17.6524990  34.5529997
   2.9129992  18.2414990  35.9219997   1.5309992  17.0964990  36.1199997
  -0.1710008  13.0704990  38.3349997  -1.4510008  15.1934990  38.1369997
   0.4289992  16.7524990  42.1449997  -0.1590008  15.6004990  42.5729997
   0.1339992  14.4254990  42.2659997  -1.4390008  16.0054990  43.3769997
  -2.3340008  16.1984990  42.7469997  -1.1490008  16.9474990  43.8899997
  -1.6760008  14.8774990  44.4049997  -0.7070008  14.6554990  44.9009997
  -2.0590008  14.0334990  43.7909997  -2.6510008  15.1744990  45.5489997
  -3.3970008  14.3524990  45.5789997  -3.3870008  15.9084990  45.1569997
  -1.9880008  15.3544990  46.9489997  -1.2420008  14.5454990  47.1079997
  -2.6560008  15.2204990  47.8269997  -1.0350008  16.5864990  47.1289997
  -0.3010008  16.4744990  46.3029997  -0.5110008  16.4804990  48.1029997
  -1.8050008  17.8714990  47.0039997  -2.8150008  17.5874990  47.3689997
  -1.9080008  18.1994990  45.9469997  -1.2940008  18.9444990  47.9489997
  -1.3360008  18.5384990  48.9819997  -1.8570008  19.9024990  47.9209997
   0.0779992  19.1744990  47.5139997   0.2569992  19.4464990  46.4629997
   1.2819992  19.0384990  48.2109997   2.2019992  19.3654990  47.7049997
   1.4369992  18.6284990  49.6559997   1.6989992  17.5624990  49.8289997
   0.5559992  18.8284990  50.3019997   2.4369992  19.6624990  50.2289997
   1.9129992  20.6414990  50.1759997   3.4369992  19.5844990  49.7509997
   2.4069992  19.4624990  51.7449997   1.3389992  19.4574990  52.0529997
   2.8339992  20.3824990  52.1989997   3.0539992  18.1544990  52.3219997
   4.1429992  18.1074990  52.1079997   2.4019992  17.3744990  51.8729997
   3.0109992  18.1864990  53.8819997   1.9309992  18.3324990  54.0999997
   3.5839992  19.0784990  54.2139997   3.4649992  16.8794990  54.6909997
   4.5099992  16.5224990  54.5719997   2.7299992  16.1094990  54.3739997
   3.2839992  17.1054990  56.1799997   2.2229992  17.4064990  56.3159997
   3.9259992  17.9784990  56.4229997   3.5699992  15.9304990  57.1409997
   4.5819992  15.6134990  56.8089997   2.8299992  15.1334990  56.9129997
   3.4689992  16.2814990  58.1899997   7.0829992 120.3604990  56.1849997
   7.5389992 119.7654990  57.0039997   7.7469992 120.2514990  55.2999997
   6.0909992 119.9044990  55.9799997   7.1979992 121.8034990  56.6589997
   6.4419992 121.9584990  57.4579997   8.1479992 122.0274990  57.1889997
   6.8859992 122.8194990  55.5209997   5.8179992 122.6164990  55.2889997
   6.9769992 123.8564990  55.9079997   7.7439992 122.6914990  54.1489997
   8.8159992 122.7934990  54.4189997   7.5809992 121.7364990  53.6039997
   7.4639992 123.7224990  53.0279997   8.0339992 124.6314990  53.3159997
   7.8999992 123.4074990  52.0559997   5.9999992 124.0364990  52.8619997
   5.4809992 123.1334990  52.4729997   5.5699992 124.4634990  53.7919997
   5.9119992 125.0624990  51.7359997   6.3599992 126.0114990  52.1009997
   6.2929992 124.6034990  50.7989997   4.4639992 125.4514990  51.2899997
   4.0389992 124.5374990  50.8199997   3.8579992 125.6114990  52.2069997
   4.3639992 126.6714990  50.3579997   3.2989992 126.7974990  50.0679997
   4.7619992 127.5244990  50.9489997   5.2009992 126.6114990  49.0469997
   5.0079992 127.5834990  48.5449997   6.2909992 126.4474990  49.1799997
   4.8529992 125.4994990  48.0329997   5.5449992 124.6394990  48.1579997
   3.7589992 125.3234990  48.1229997   5.1839992 126.0324990  46.6029997
   4.7439992 125.2444990  45.9549997   4.8239992 127.0604990  46.3829997
   6.6699992 125.9994990  46.2559997   7.2859992 126.6584990  46.9049997
   6.9449992 124.9474990  46.4859997   7.0079992 126.1374990  44.7409997
   8.0529992 125.8054990  44.5659997   6.2859992 125.5904990  44.0979997
   6.8469992 127.6404990  44.3109997   5.7419992 127.7004990  44.2159997
   7.0919992 128.4124990  45.0719997   7.5479992 127.8474990  42.9179997
   7.3529992 128.8594990  42.3339997   8.3249992 126.9214990  42.5879997
   9.2069992 127.1354990  41.4639997   8.5999992 127.4734990  40.5979997
   9.9129992 127.9694990  41.6659997   9.9039992 125.8124990  41.0599997
  10.6119992 126.0214990  40.2299997   8.8159992 124.8364990  40.4879997
   8.1879992 124.6164990  41.3779997   8.2069992 125.4234990  39.7679997
   9.3939992 123.7494990  39.8289997   9.2899992 123.3874990  38.3029997
   7.8709992 122.7534990  38.1839997   6.6459992 123.4274990  37.8329997
   5.8149992 122.8974990  38.3459997   6.5689992 124.4084990  38.3479997
   6.4859992 123.6714990  36.2739997   5.6299992 124.3154990  36.1379997
   7.3489992 124.2394990  35.9579997   6.3249992 122.3924990  35.3739997
   7.5719992 121.5034990  35.4159997   7.3669992 120.7284990  34.6919997
   8.4509992 122.0394990  35.0899997   7.6279992 121.0624990  36.4009997
   5.0539992 121.6304990  35.7729997   5.2719992 121.1114990  36.6939997
   4.2109992 122.3044990  35.8109997   4.8399992 120.9124990  34.9949997
   6.1439992 122.8044990  33.8829997   6.3589992 121.9214990  33.2989997
   6.6599992 123.6984990  33.5649997   5.1059992 123.0154990  33.6699997
   9.2519992 124.7064990  37.6389997  10.4279992 122.4844990  37.9639997
  10.6539992 125.2524990  42.1529997  11.8659992 125.6964990  42.3929997
  12.4539992 126.5074990  41.7279997  12.4399992 125.0774990  43.7279997
  12.1719992 125.7274990  44.5879997  13.5479992 125.0754990  43.6499997
  11.7949992 123.7154990  44.1399997  12.0509992 122.9824990  43.3449997
  10.6969992 123.7004990  43.9679997  12.2559992 123.0574990  45.4779997
  12.1039992 123.9264990  46.1529997  13.3599992 123.0524990  45.3529997
  11.6419992 121.6554990  45.7349997  12.0119992 121.1084990  44.8409997
  10.5359992 121.5674990  45.7929997  12.2649992 121.0384990  47.0369997
  13.3199992 120.8784990  46.7259997  11.7089992 120.1234990  47.3329997
  12.2509992 122.0054990  48.2899997  12.7259992 122.9954990  48.1159997
  12.7999992 121.5694990  49.1519997  10.8109992 122.1834990  48.8659997
  10.9999992 122.5474990  49.8989997  10.3839992 121.1634990  48.9629997
   9.9619992 123.1644990  48.0889997   9.8029992 122.8814990  47.0379997
   9.4929992 124.3574990  48.4679997   8.9929992 125.0304990  47.7559997
   9.7309992 124.9764990  49.7889997  10.2309992 124.3204990  50.5329997
   8.7369992 125.1834990  50.2409997  10.4729992 126.3574990  49.7749997
   9.8859992 127.2094990  49.3719997  11.1909992 126.2174990  48.9389997
  11.2279992 126.5904990  51.0749997  12.0139992 127.3334990  50.8209997
  11.8609992 125.7644990  51.4629997  10.2659992 127.0704990  52.1809997
   9.4439992 126.3234990  52.1509997   9.8279992 128.0644990  51.9489997
  10.8609992 127.1244990  53.7029997  11.5249992 127.9424990  54.0569997
  11.3519992 126.1434990  53.8789997   9.8309992 127.2704990  54.7629997
   8.9009992 126.6794990  54.6219997   9.5109992 128.3344990  54.7829997
  10.4319992 126.8454990  56.1439997  11.1899992 127.5324990  56.5769997
  11.1109992 125.9804990  55.9879997   9.3969992 126.5074990  57.2559997
   9.8269992 126.2404990  58.2449997   8.7819992 125.7014990  56.8019997
   8.6559992 127.3344990  57.2969997  24.7229992 143.2334990  55.2479997
  25.3929992 143.8474990  55.8879997  25.2489992 142.3294990  54.8749997
  23.8489992 142.8364990  55.8059997  23.8949992 144.0444990  54.2059997
  23.0979992 144.6154990  54.7289997  24.5449992 144.7674990  53.6699997
  23.1049992 143.2004990  53.1749997  22.7099992 142.3234990  53.7319997
  22.2509992 143.8604990  52.9099997  23.8739992 142.7724990  51.8749997
  24.5049992 143.6564990  51.6419997  24.5539992 141.9474990  52.1759997
  22.9769992 142.3534990  50.6899997  22.1269992 143.0574990  50.5599997
  23.5759992 142.4304990  49.7579997  22.4939992 140.9094990  50.6879997
  23.2219992 140.1674990  51.0799997  21.6029992 140.8804990  51.3509997
  22.2709992 140.2614990  49.3599997  23.1759992 140.3634990  48.7239997
  22.0249992 139.1914990  49.5309997  21.1959992 140.9714990  48.4849997
  20.3319992 141.2404990  49.1299997  21.5499992 141.9544990  48.1069997
  20.7199992 140.2344990  47.1929997  20.2199992 139.2784990  47.4599997
  19.9089992 140.8824990  46.7969997  21.8649992 139.9834990  46.1949997
  22.4409992 140.9334990  46.1849997  22.6429992 139.2994990  46.5949997
  21.4489992 139.4894990  44.7669997  22.4179992 139.2594990  44.2739997
  20.7359992 138.6394990  44.8359997  20.7149992 140.5314990  43.9369997
  19.7499992 140.7764990  44.4299997  21.3499992 141.4384990  43.8439997
  20.4239992 140.1254990  42.4759997  21.3639992 140.3014990  41.9099997
  20.2639992 139.0264990  42.4929997  19.3319992 140.9274990  41.7209997
  18.8369992 140.3554990  40.9059997  18.5619992 141.0354990  42.5139997
  19.7989992 142.2734990  41.2079997  18.8999992 142.8974990  41.0189997
  20.3839992 142.8974990  41.9179997  20.6419992 142.0804990  39.9209997
  20.7039992 141.1394990  39.1859997  21.1749992 143.2764990  39.6899997
  21.7849992 143.6054990  38.4349997  21.3839992 142.8734990  37.7009997
  21.4879992 144.6354990  38.1429997  23.3559992 143.6594990  38.4919997
  23.6109992 144.6354990  38.9559997  23.9889992 143.6854990  37.0769997
  23.4789992 144.5194990  36.5489997  25.0029992 144.1214990  37.2019997
  23.7869992 142.5494990  36.3089997  24.8949992 141.3724990  36.2759997
  24.5299992 140.5534990  37.5489997  24.9509992 139.2054990  37.6679997
  25.9319992 139.0044990  37.1879997  25.0599992 139.0664990  38.7649997
  23.9699992 138.1494990  37.0079997  24.0609992 138.0914990  35.9329997
  24.4119992 137.2274990  37.3539997  22.5269992 138.0954990  37.4289997
  21.7159992 139.2394990  36.8659997  21.7699992 139.1974990  35.7879997
  20.7219992 139.3074990  37.2819997  22.1929992 140.1674990  37.1459997
  21.9089992 136.7864990  36.9099997  20.8649992 136.7224990  37.1789997
  22.0539992 136.7774990  35.8399997  22.5009992 135.9374990  37.2209997
  22.3459992 138.0794990  38.8919997  22.9309992 138.7844990  39.4649997
  22.6069992 137.0644990  39.1529997  21.2959992 138.1324990  39.1389997
  24.6029992 140.5054990  35.0969997  26.2549992 141.7744990  36.4679997
  23.7439992 142.5534990  39.4069997  25.0119992 142.8154990  39.8939997
  25.6279992 143.8574990  39.7629997  25.5159992 141.5834990  40.6049997
  26.2979992 141.7934990  41.3669997  25.9589992 140.8874990  39.8609997
  24.3659992 140.8174990  41.3319997  23.5299992 140.6044990  40.6319997
  23.8359992 141.4214990  42.0989997  24.7959992 139.4854990  42.0609997
  25.1019992 138.7974990  41.2439997  23.8679992 139.1534990  42.5739997
  25.7729992 139.5614990  43.2009997  26.7709992 139.9494990  42.9069997
  25.9979992 138.4934990  43.4079997  25.3589992 140.5194990  44.3499997
  24.4629992 140.0634990  44.8229997  25.1299992 141.5744990  44.0859997
  26.4779992 140.5344990  45.3839997  27.4029992 141.0754990  45.0919997
  26.6879992 139.4514990  45.5139997  25.9279992 141.1294990  46.7299997
  25.0369992 140.5704990  47.0879997  25.7199992 142.2034990  46.5359997
  26.9969992 141.1974990  47.8229997  27.8859992 141.7824990  47.5409997
  27.0789992 140.5734990  48.9769997  27.9789992 140.6754990  49.6009997
  26.1059992 139.5094990  49.4329997  25.2329992 139.3544990  48.7639997
  25.6599992 139.7714990  50.4159997  26.6189992 138.0434990  49.6889997
  27.1429992 137.8974990  48.7209997  25.6489992 137.5024990  49.7349997
  27.6619992 137.7744990  50.8439997  28.4319992 138.5744990  50.8899997
  28.1769992 136.8704990  50.4539997  26.9129992 137.4554990  52.1499997
  27.6979992 137.2224990  52.9009997  26.4289992 136.4644990  52.0189997
  26.0969992 138.6354990  52.6659997  25.1319992 138.8214990  52.1499997
  26.7749992 139.5164990  52.6789997  25.7669992 138.2044990  54.0989997
  26.6029992 138.2514990  54.8299997  25.4689992 137.1344990  54.1149997
  24.4649992 138.8144990  54.6959997  23.6239992 138.5214990  54.0319997
  24.6269992 139.9134990  54.6969997  24.1619992 138.5404990  56.1309997
  24.0749992 137.4394990  56.2539997  23.1459992 138.9604990  56.2889997
  24.9589992 139.0534990  56.7099997   5.4679992   2.5884990  54.0819997
   5.7499992   1.5164990  54.0009997   4.5789992   2.9934990  53.5539997
   5.2179992   2.6794990  55.1609997   6.5629992   3.5574990  53.8149997
   6.2569992   4.5934990  53.5539997   7.2259992   3.7004990  54.6949997
   7.4169992   3.0164990  52.6779997   8.2529992   3.7124990  52.4509997
   7.7739992   2.0094990  52.9809997   6.6749992   2.7854990  51.3159997
   5.6199992   2.4574990  51.4279997   6.5629992   3.7904990  50.8539997
   7.4429992   1.9044990  50.3679997   7.6579992   0.9184990  50.8339997
   6.7599992   1.6774990  49.5219997   8.6339992   2.5254990  49.7699997
   8.4619992   3.6224990  49.7959997   9.5369992   2.3434990  50.3909997
   8.8349992   2.2244990  48.2359997   8.6679992   1.1504990  48.0089997
   7.9889992   2.7314990  47.7229997  10.1109992   2.7574990  47.6739997
  10.1199992   3.8564990  47.8359997  10.9459992   2.4024990  48.3139997
  10.3359992   2.4274990  46.1709997  11.3969992   2.6744990  45.9529997
  10.2979992   1.3304990  45.9969997   9.3259992   3.1824990  45.2639997
   8.3709992   2.6184990  45.3269997   9.1869992   4.2024990  45.6819997
   9.7709992   3.4004990  43.8019997   9.0139992   4.0954990  43.3819997
  10.8179992   3.7404990  43.6539997   9.6829992   2.0604990  42.9289997
   9.1059992   1.3324990  43.5389997   9.0299992   2.2544990  42.0509997
  11.0559992   1.4334990  42.4919997  11.4259992   2.2394990  41.8229997
  11.6649992   1.4634990  43.4209997  11.0629992   0.0364990  41.8949997
  12.1009992  -0.3315010  41.7469997  10.5929992  -0.6815010  42.5999997
  10.1419992  -0.0435010  40.6669997   9.1489992   0.1904990  41.1059997
  10.3689992   0.7084990  39.8819997  10.3529992  -1.4825010  40.0439997
  11.0649992  -2.3895010  40.4789997   9.4449992  -1.6065010  39.1049997
   9.4229992  -2.8105010  38.3699997  10.4579992  -3.0905010  38.0799997
   9.1769992  -3.7265010  38.9479997   8.4789992  -2.7755010  37.1459997
   8.5119992  -3.7425010  36.5989997   8.8919992  -1.6785010  36.0619997
   9.9709992  -1.7855010  35.8209997   8.3929992  -1.9845010  35.1179997
   8.6579992  -0.3325010  36.4359997   9.2299992   0.7674990  35.3889997
   9.1349992   2.0694990  36.2679997   9.2949992   1.9994990  37.7069997
  10.0479992   1.2574990  38.0499997   9.6549992   3.0154990  37.9759997
   7.9989992   1.7474990  38.5559997   7.6179992   0.7514990  38.3869997
   8.2659992   1.9574990  39.5809997   6.7189992   2.6084990  38.2299997
   6.0079992   2.2844990  36.9329997   5.4149992   1.3864990  37.0189997
   5.3519992   3.1144990  36.7149997   6.7399992   2.2304990  36.1399997
   5.8319992   2.5014990  39.4079997   6.3499992   2.8904990  40.2719997
   4.9129992   3.0364990  39.2179997   5.6409992   1.4534990  39.5859997
   7.1209992   4.0614990  38.3049997   7.6549992   4.5504990  37.5029997
   7.6599992   4.2844990  39.2139997   6.1839992   4.5934990  38.3719997
  10.6389992   0.4054990  35.0619997   8.3619992   0.9164990  34.1789997
   7.1129992  -2.5695010  37.6369997   6.0659992  -2.8105010  36.8149997
   6.0699992  -3.2945010  35.7029997   4.7079992  -2.3495010  37.5709997
   4.1399992  -3.1515010  38.0879997   4.0559992  -2.0925010  36.7089997
   4.8759992  -1.0805010  38.3689997   4.0229992  -0.4535010  38.0319997
   5.7339992  -0.4455010  38.0609997   4.7849992  -1.2495010  39.8869997
   4.0799992  -2.0585010  40.1729997   4.3689992  -0.2785010  40.2299997
   6.0709992  -1.4675010  40.6239997   6.4849992  -0.4775010  40.9119997
   6.7689992  -2.0705010  40.0039997   6.0819992  -2.3345010  41.9119997
   7.1179992  -2.3955010  42.3079997   5.9439992  -3.3815010  41.5679997
   5.1609992  -1.9825010  43.1379997   5.1499992  -2.8145010  43.8739997
   4.1869992  -2.0085010  42.6029997   5.3519992  -0.5495010  43.7379997
   4.4959992  -0.2735010  44.3889997   5.3049992   0.1394990  42.8679997
   6.7089992  -0.3105010  44.3809997   7.3569992   0.1084990  43.5969997
   7.1829992  -0.5015010  45.5719997   8.2579992  -0.3735010  45.7669997
   6.3599992  -1.1145010  46.7559997   5.3069992  -1.2215010  46.4199997
   6.5189992  -0.5115010  47.6759997   6.8669992  -2.4845010  47.1969997
   6.9119992  -3.1655010  46.3199997   6.2089992  -2.9765010  47.9449997
   8.3519992  -2.3475010  47.7199997   8.9969992  -1.8775010  46.9479997
   8.6959992  -3.3955010  47.8509997   8.5309992  -1.7515010  49.1129997
   7.8619992  -2.3625010  49.7559997   8.2599992  -0.6735010  49.1249997
   9.9719992  -1.6775010  49.6549997  10.6989992  -1.0175010  49.1349997
  10.2899992  -2.7195010  49.4379997  10.1909992  -1.2245010  51.1589997
   9.9019992  -1.9715010  51.9279997   9.6189992  -0.3045010  51.4029997
  11.7249992  -0.7695010  51.4949997  12.0179992  -0.0215010  50.7269997
  12.2929992  -1.7225010  51.4399997  12.0049992  -0.2835010  52.9429997
  11.4299992   0.6404990  53.1639997  13.0779992  -0.1105010  53.1719997
  11.7019992  -0.9865010  53.7489997  17.7599992 137.7444990  53.9379997
  17.9549992 136.6924990  54.2369997  17.5149992 138.3634990  54.8279997
  18.7449992 138.0964990  53.5629997  16.6059992 137.8864990  52.9909997
  16.5689992 138.7764990  52.3259997  16.7019992 137.0174990  52.3049997
  15.2429992 137.6144990  53.7159997  15.3619992 136.7244990  54.3699997
  15.1359992 138.4764990  54.4089997  13.9599992 137.5504990  52.8179997
  13.0859992 137.6414990  53.4979997  13.9999992 138.4184990  52.1259997
  13.9049992 136.2084990  51.9789997  14.9369992 135.8784990  51.7359997
  13.4839992 135.4114990  52.6279997  13.0869992 136.1774990  50.7429997
  13.1959992 135.1874990  50.2509997  12.0719992 136.4114990  51.1289997
  13.3829992 137.2994990  49.6569997  12.5719992 137.1304990  48.9169997
  13.1589992 138.2614990  50.1639997  14.7899992 137.2454990  48.9639997
  15.5279992 137.4794990  49.7609997  15.0579992 136.2354990  48.5849997
  15.0629992 138.1864990  47.7859997  15.1479992 139.2434990  48.1159997
  16.0329992 137.8054990  47.3999997  14.0539992 138.1874990  46.6329997
  13.7459992 137.1764990  46.2919997  13.1229992 138.4374990  47.1869997
  14.1439992 139.3504990  45.6279997  13.1679992 139.2734990  45.1029997
  14.2999992 140.3204990  46.1459997  15.2249992 139.1614990  44.6209997
  15.2809992 140.1234990  44.0679997  16.2249992 138.8454990  44.9879997
  15.0039992 137.9654990  43.5659997  14.8649992 137.0424990  44.1689997
  14.1199992 138.1664990  42.9229997  16.2179992 137.8524990  42.5699997
  15.8579992 136.9984990  41.9569997  16.2179992 138.6254990  41.7709997
  17.5819992 137.5764990  43.2299997  17.9649992 138.5644990  43.5649997
  17.4219992 136.9544990  44.1369997  18.6429992 136.9214990  42.2799997
  19.4039992 135.9954990  42.4589997  18.5169992 137.5754990  41.0779997
  19.2939992 137.1234990  39.9359997  19.8279992 138.0054990  39.5219997
  19.9279992 136.2454990  40.1819997  18.2929992 136.7014990  38.8439997
  18.8119992 136.5434990  37.8739997  17.1709992 137.8484990  38.6149997
  17.5359992 138.8884990  38.7529997  17.0449992 137.7154990  37.5189997
  15.9819992 137.8144990  39.3729997  14.8239992 136.8294990  38.9809997
  15.4749992 136.0314990  37.7289997  14.8469992 134.9134990  37.2599997
  14.8329992 134.1144990  38.0319997  13.7969992 135.1014990  36.9489997
  15.6539992 134.3364990  36.0279997  16.5299992 133.9114990  36.4959997
  15.0229992 133.5294990  35.6869997  15.9759992 135.2944990  34.8729997
  17.1559992 136.2064990  35.2919997  17.9919992 135.5764990  35.5589997
  17.2729992 136.8964990  34.4689997  16.8499992 136.6644990  36.2209997
  16.4359992 134.5794990  33.6989997  15.5579992 134.1364990  33.2509997
  17.0029992 135.1904990  33.0119997  17.0069992 133.7304990  34.0449997
  14.7309992 136.0584990  34.4059997  14.3139992 136.2714990  35.3789997
  14.0849992 135.3374990  33.9279997  14.9159992 136.9124990  33.7709997
  14.7229992 135.8404990  40.1349997  13.5519992 137.5534990  38.6959997
  17.6909992 135.4734990  39.2739997  18.3079992 134.3354990  39.1629997
  19.4589992 134.1724990  38.6499997  17.5409992 133.1704990  39.7019997
  17.8379992 132.2394990  39.1729997  16.4659992 133.3734990  39.5089997
  18.0189992 133.0094990  41.2019997  17.6269992 133.9194990  41.7049997
  19.1289992 133.0494990  41.2409997  17.5149992 131.8574990  42.0029997
  18.0969992 131.7364990  42.9419997  17.7079992 130.8744990  41.5219997
  16.0189992 131.8344990  42.2689997  15.5099992 130.8774990  42.0269997
  15.5539992 132.5634990  41.5719997  15.6699992 132.2454990  43.7379997
  14.5619992 132.1914990  43.6719997  15.9139992 133.3274990  43.7989997
  16.1459992 131.2784990  44.8119997  17.2389992 131.2404990  45.0049997
  15.7569992 130.2784990  44.5259997  15.5879992 131.6724990  46.2119997
  16.0289992 130.9834990  46.9649997  14.4809992 131.5874990  46.1759997
  15.7659992 133.1284990  46.6299997  15.0219992 133.7344990  46.0929997
  16.6089992 133.6364990  47.5609997  16.6959992 134.7224990  47.7109997
  17.5599992 132.8584990  48.3889997  17.3669992 131.7644990  48.4099997
  17.5229992 133.0524990  49.4819997  19.0689992 133.0304990  47.8829997
  19.1449992 132.4084990  46.9659997  19.7079992 132.4794990  48.6049997
  19.5439992 134.4744990  47.5859997  19.0179992 134.8044990  46.6639997
  20.5949992 134.3614990  47.2449997  19.4059992 135.4684990  48.6849997
  18.4829992 135.6224990  49.2839997  19.4779992 136.4604990  48.1889997
  20.6059992 135.4174990  49.6759997  20.8819992 136.3834990  50.1499997
  21.5269992 134.9614990  49.2549997  20.4109992 134.4464990  50.9349997
  21.2009992 134.6454990  51.6899997  20.5709992 133.3614990  50.7519997
  19.0879992 134.4734990  51.6699997  18.3809992 133.7644990  51.1879997
  18.6179992 135.4764990  51.7559997  19.2349992 134.0184990  53.1229997
  18.3199992 133.8304990  53.7249997  19.8449992 134.7504990  53.6949997
  19.8069992 133.0664990  53.1119997   1.2209992   8.6294990  57.5399997
   1.4639992   9.3794990  56.7579997   1.9849992   7.8284990  57.4479997
   1.4509992   8.9464990  58.5799997  -0.2910008   8.2584990  57.3209997
  -0.4690008   7.5094990  58.1219997  -0.8900008   9.1714990  57.5279997
  -0.6660008   7.6244990  55.9709997  -0.6930008   6.5134990  55.9889997
  -1.6770008   8.0584990  55.8169997   0.2439992   8.0334990  54.8519997
   0.4419992   9.1254990  54.8909997   1.2009992   7.4724990  54.9149997
  -0.3600008   7.7364990  53.4449997  -0.6740008   6.6704990  53.4599997
  -1.3340008   8.2634990  53.3549997   0.4679992   8.0164990  52.1089997
   0.7559992   9.0894990  52.1389997   1.2679992   7.2664990  52.2859997
  -0.2940008   7.7664990  50.8319997  -0.7460008   6.7724990  51.0409997
  -1.1480008   8.4664990  50.7129997   0.6139992   7.8154990  49.6059997
   1.0089992   8.8544990  49.6179997   1.5389992   7.2404990  49.8209997
  -0.1700008   7.4084990  48.3889997  -0.9030008   8.2214990  48.1979997
   0.6009992   7.4304990  47.5899997  -0.8080008   6.0514990  48.3239997
  -1.7480008   6.0364990  48.9159997  -1.1360008   5.9604990  47.2659997
   0.1139992   4.8984990  48.6879997   1.1019992   4.9504990  48.1839997
   0.2289992   4.8234990  49.7899997  -0.5060008   3.4514990  48.3159997
   0.1399992   2.5984990  48.6149997  -1.4460008   3.4504990  48.9079997
  -0.8570008   3.3934990  46.8039997  -1.3640008   2.4494990  46.5099997
  -1.5230008   4.2234990  46.4859997   0.3189992   3.3524990  45.8949997
   1.0149992   4.2174990  45.9039997   0.8919992   2.4254990  46.1129997
  -0.1730008   3.2024990  44.4499997   0.6519992   2.7934990  43.8279997
  -0.9590008   2.4174990  44.4719997  -0.7110008   4.5354990  43.9939997
  -0.5180008   5.5884990  44.5119997  -1.2150008   4.3284990  42.8359997
  -1.2810008   5.4814990  41.9829997  -2.2350008   5.4644990  41.4139997
  -1.3930008   6.4944990  42.4249997  -0.1510008   5.3894990  40.8909997
  -0.1060008   6.2934990  40.2479997  -0.2130008   4.2034990  39.9349997
  -0.4840008   3.3284990  40.5629997  -1.0440008   4.4384990  39.2369997
   1.0649992   3.9774990  39.3419997   1.1109992   3.8974990  37.7269997
   0.8419992   5.4364990  37.2239997   1.9439992   6.3674990  37.2609997
   1.9939992   6.8694990  38.2509997   2.9129992   5.8604990  37.0629997
   1.8829992   7.3274990  36.0609997   2.8419992   7.7034990  35.7399997
   1.4819992   6.7104990  35.2699997   0.9519992   8.4904990  36.0849997
   1.1769992   9.2674990  34.7389997   0.3919992  10.0084990  34.6969997
   2.1709992   9.6884990  34.7019997   1.2329992   8.5154990  33.9659997
  -0.4660008   8.1164990  36.2129997  -0.7100008   7.5494990  35.3269997
  -0.5810008   7.5194990  37.1059997  -1.0890008   8.9984990  36.2349997
   1.3259992   9.5024990  37.2139997   2.2369992  10.0594990  37.0549997
   1.3359992   8.9064990  38.1149997   0.4679992  10.1254990  37.4209997
   2.4579992   3.4954990  37.3199997  -0.0100008   3.0984990  37.2849997
   1.1939992   5.4644990  41.5529997   1.5679992   6.6744990  41.9629997
   1.0139992   7.7494990  41.7659997   2.8669992   6.4354990  42.7599997
   3.5519992   7.3094990  42.8079997   3.4879992   5.7524990  42.1419997
   2.6869992   5.7824990  44.1599997   1.9719992   4.9434990  44.0269997
   2.2519992   6.5824990  44.7969997   3.9479992   5.3324990  44.8589997
   4.8079992   5.8614990  44.3939997   4.1339992   4.2674990  44.6019997
   3.9889992   5.6094990  46.4409997   3.1809992   5.0254990  46.9309997
   3.8029992   6.7014990  46.5379997   5.3579992   5.4954990  47.1799997
   5.2319992   6.0204990  48.1509997   6.0599992   6.0904990  46.5579997
   5.8309992   4.0464990  47.3289997   6.8959992   3.8514990  47.0799997
   5.2569992   3.4674990  46.5749997   5.6289992   3.5944990  48.7599997
   5.7179992   2.4894990  48.6799997   4.5559992   3.6874990  49.0309997
   6.5749992   4.2604990  49.7959997   7.5789992   4.5394990  49.4429997
   6.2149992   4.8164990  50.9529997   7.0259992   5.1554990  51.6139997
   4.7559992   4.8164990  51.4189997   4.0749992   5.0434990  50.5719997
   4.6689992   5.6644990  52.1319997   4.2749992   3.4744990  52.1469997
   4.6459992   3.3734990  53.1889997   4.6239992   2.5654990  51.6129997
   2.7179992   3.3984990  52.2269997   2.3359992   3.5144990  51.1909997
   2.3629992   4.2544990  52.8389997   2.2089992   1.9874990  52.7339997
   2.7939992   1.2174990  52.1879997   1.1509992   1.9254990  52.4029997
   2.5399992   1.7974990  54.2719997   3.5599992   1.3714990  54.3859997
   1.8309992   1.0634990  54.7109997   2.2709992   3.0254990  55.2279997
   1.2769992   3.4564990  54.9799997   3.1399992   3.7074990  55.1159997
   2.0129992   2.6734990  56.7249997   2.9879992   2.4624990  57.2159997
   1.4599992   1.7104990  56.7329997   1.3099992   3.7334990  57.5049997
   1.9819992   4.3724990  58.1169997   0.4349992   3.4984990  58.1489997
   0.9419992   4.5334990  56.8289997 132.9179992 129.8784990  56.3559997
 133.0979992 129.2664990  57.2649997 132.5059992 129.3734990  55.4569997
 132.2409992 130.7304990  56.5819997 134.2679992 130.4794990  55.9549997
 134.8059992 131.0244990  56.7599997 134.9539992 129.6324990  55.7399997
 134.1749992 131.4244990  54.7539997 134.0939992 130.8724990  53.7929997
 133.2659992 132.0624990  54.7329997 135.3619992 132.3964990  54.7949997
 135.5389992 132.9064990  55.7669997 136.2579992 131.7504990  54.6789997
 135.4889992 133.4024990  53.6519997 134.8639992 134.2834990  53.9099997
 136.5289992 133.7864990  53.7319997 135.3319992 132.8754990  52.2249997
 135.9259992 133.4554990  51.4869997 135.6849992 131.8244990  52.1609997
 133.8159992 132.8874990  51.7059997 133.8319992 132.1664990  50.8609997
 133.0659992 132.4794990  52.4169997 133.1619992 134.2534990  51.3349997
 132.3079992 133.9134990  50.7109997 132.7459992 134.6214990  52.2969997
 134.1549992 135.2284990  50.7239997 134.6859992 135.8604990  51.4669997
 134.9619992 134.7324990  50.1429997 133.4959992 136.2774990  49.8739997
 132.6949992 136.8574990  50.3789997 134.2229992 137.0784990  49.6219997
 133.0479992 135.8334990  48.5049997 133.8079992 135.1164990  48.1259997
 132.0939992 135.2654990  48.4719997 132.7949992 137.1054990  47.6479997
 132.2499992 137.7754990  48.3459997 133.7179992 137.7124990  47.5269997
 132.3509992 136.9584990  46.1999997 131.4289992 136.3434990  46.1279997
 131.8839992 137.9204990  45.9009997 133.4639992 136.5984990  45.2899997
 134.2239992 137.4014990  45.4049997 133.8129992 135.5754990  45.5469997
 132.8889992 136.5144990  43.7909997 132.1289992 135.7444990  43.5379997
 132.4939992 137.5274990  43.5669997 134.1079992 136.2354990  42.9629997
 135.2829992 136.5254990  43.2919997 133.7379992 135.8124990  41.7539997
 134.6479992 135.7234990  40.6799997 134.6629992 136.6974990  40.1449997
 135.6479992 135.4484990  41.0769997 134.0439992 134.7314990  39.6419997
 134.6639992 134.6694990  38.7229997 132.6509992 134.9724990  38.9959997
 131.9989992 135.2964990  39.8359997 132.6199992 135.8764990  38.3509997
 132.1329992 133.8024990  38.3439997 130.7859992 133.9814990  37.5829997
 130.3579992 132.5294990  37.0779997 130.8159992 131.3584990  37.7039997
 130.5719992 131.3794990  38.7869997 130.2059992 130.5434990  37.2589997
 132.3339992 131.0524990  37.5119997 132.8789992 131.9034990  37.8919997
 132.5189992 130.2304990  38.1869997 132.8459992 130.6564990  36.1369997
 132.6899992 131.7974990  35.1559997 133.1359992 132.7004990  35.5459997
 133.0269992 131.5814990  34.1529997 131.6159992 131.9054990  35.1299997
 134.3029992 130.4884990  36.3589997 134.7489992 130.0314990  35.4879997
 134.7009992 131.4814990  36.5029997 134.4639992 129.9174990  37.2619997
 132.2629992 129.3184990  35.6829997 132.4159992 128.6614990  36.5269997
 132.7719992 128.8514990  34.8529997 131.1899992 129.3664990  35.5699997
 129.7429992 134.3784990  38.4859997 131.1519992 134.8544990  36.4309997
 134.0409992 133.4334990  40.2669997 135.1989992 132.9324990  40.5609997
 136.2769992 133.2934990  40.0199997 135.0609992 131.7274990  41.3909997
 135.6689992 130.9294990  40.9129997 133.9929992 131.4224990  41.3539997
 135.5319992 131.8624990  42.8379997 136.4799992 132.4164990  43.0069997
 135.7449992 130.8614990  43.2719997 134.4549992 132.3854990  43.7729997
 133.4879992 132.0464990  43.3429997 134.4719992 133.4954990  43.8079997
 134.6459992 131.9124990  45.2169997 135.6579992 132.3224990  45.4209997
 134.7119992 130.8074990  45.3169997 133.6899992 132.3944990  46.2949997
 133.4189992 133.4664990  46.1799997 134.2759992 132.3694990  47.2379997
 132.4599992 131.5534990  46.5599997 132.6789992 130.4654990  46.5309997
 131.7379992 131.7514990  45.7399997 131.9619992 131.6154990  48.0519997
 132.1949992 132.6234990  48.4589997 132.6379992 131.0854990  48.7569997
 130.4819992 131.4444990  48.0369997 129.8489992 131.9814990  47.3159997
 129.7509992 130.7844990  48.9419997 128.6649992 130.7574990  48.7649997
 130.2779992 130.0224990  50.1629997 131.3499992 130.2394990  50.3619997
 130.1359992 128.9354990  49.9809997 129.5069992 130.4604990  51.4339997
 129.8589992 129.9094990  52.3319997 128.4599992 130.1204990  51.2789997
 129.5319992 131.9664990  51.7919997 129.1349992 132.5794990  50.9539997
 130.6049992 132.2144990  51.9409997 128.8179992 132.1824990  53.0859997
 129.2529992 131.6374990  53.9509997 127.7849992 131.7954990  52.9499997
 128.6899992 133.7314990  53.3519997 127.8239992 134.0144990  53.9879997
 128.4909992 134.1984990  52.3629997 129.9329992 134.5394990  53.9399997
 129.6179992 135.5924990  54.1029997 130.8779992 134.5584990  53.3559997
 130.3369992 133.8604990  55.2899997 130.8049992 132.8714990  55.0989997
 129.5229992 133.7014990  56.0289997 131.2979992 134.6464990  56.1299997
 130.8199992 135.4774990  56.6919997 132.1219992 134.9474990  55.4479997
 131.5709992 134.0354990  57.0169997   7.1309992 132.9704990  53.9569997
   7.2419992 132.3044990  54.8389997   6.2419992 132.6504990  53.3719997
   7.0669992 134.0214990  54.3129997   8.4309992 132.8334990  53.0729997
   8.4279992 133.5214990  52.2009997   9.3019992 133.1824990  53.6669997
   8.7549992 131.3834990  52.6399997   8.8049992 130.7274990  53.5359997
   8.0269992 130.9624990  51.9139997  10.1309992 131.0744990  52.0209997
  10.1819992 131.5044990  50.9989997  10.9109992 131.6484990  52.5649997
  10.3349992 129.5834990  51.9029997  11.1709992 129.2064990  52.5299997
   9.4659992 129.1574990  52.4479997  10.5349992 129.1794990  50.4889997
  11.2159992 129.9114990  50.0049997  10.9969992 128.1704990  50.4359997
   9.2309992 129.0474990  49.6579997   8.3709992 128.6574990  50.2429997
   9.0819992 130.1194990  49.4049997   9.4339992 128.2544990  48.4029997
  10.2629992 128.6724990  47.7929997   9.5849992 127.1714990  48.5979997
   8.2499992 128.2584990  47.3779997   7.3909992 127.8344990  47.9409997
   7.9349992 129.2734990  47.0519997   8.5309992 127.4254990  46.1249997
   9.6359992 127.3574990  46.0319997   8.1959992 126.3874990  46.3369997
   7.7889992 127.8904990  44.8529997   7.8919992 128.9944990  44.9149997
   8.1419992 127.4634990  43.8889997   6.2539992 127.7664990  44.9749997
   5.9849992 126.7234990  45.2469997   5.8469992 128.3544990  45.8259997
   5.6009992 128.0454990  43.5979997   5.9669992 129.0464990  43.2839997
   5.9379992 127.2824990  42.8649997   4.0599992 127.9584990  43.6259997
   3.7419992 126.9014990  43.7509997   3.5559992 128.6254990  44.3569997
   3.3829992 128.4794990  42.3199997   3.8209992 128.0224990  41.4069997
   2.2909992 128.2814990  42.3649997   3.5549992 129.9574990  42.1459997
   3.3679992 130.7214990  43.1359997   3.6319992 130.3784990  40.9029997
   3.3689992 131.7064990  40.5199997   2.6749992 131.6534990  39.6539997
   2.9339992 132.3404990  41.3219997   4.7609992 132.3954990  40.1179997
   4.5309992 133.4084990  39.7239997   5.3919992 131.5984990  38.9829997
   4.6859992 131.4124990  38.1459997   6.2609992 132.2184990  38.6769997
   6.0289992 130.3774990  39.3659997   7.2659992 129.6904990  38.6649997
   7.7079992 130.7434990  37.5269997   8.4669992 130.1884990  36.5659997
   9.3459992 129.7354990  37.0729997   7.9779992 129.4424990  35.9039997
   9.1279992 131.1844990  35.5539997  10.1099992 131.3874990  35.9529997
   9.1649992 130.5704990  34.6659997   8.4779992 132.5484990  35.3339997
   9.2909992 133.2124990  34.1699997  10.2549992 133.5454990  34.5259997
   9.4439992 132.4794990  33.3909997   8.7249992 134.0644990  33.8249997
   6.9839992 132.4554990  34.9399997   6.8689992 131.7664990  34.1159997
   6.3809992 132.1674990  35.7869997   6.7149992 133.4644990  34.6629997
   8.6569992 133.4074990  36.5959997   8.2799992 134.4004990  36.3999997
   9.7309992 133.4724990  36.6859997   8.1959992 132.9464990  37.4569997
   8.3089992 129.6084990  39.7439997   6.7899992 128.4234990  38.0109997
   5.6119992 132.4534990  41.2969997   6.8389992 133.0204990  41.1849997
   7.2869992 133.7124990  40.2929997   7.6179992 132.6354990  42.4319997
   8.6849992 132.8734990  42.2349997   7.7339992 131.5324990  42.5029997
   7.1899992 133.3584990  43.7309997   7.1999992 134.4224990  43.4109997
   8.0539992 133.1434990  44.3959997   5.8329992 132.9054990  44.3289997
   5.8729992 131.7954990  44.2899997   5.0439992 133.2584990  43.6309997
   5.4849992 133.2874990  45.7519997   5.3509992 134.3824990  45.8859997
   6.3319992 132.9134990  46.3659997   4.2809992 132.5574990  46.2619997
   3.5919992 132.5674990  45.3909997   3.7369992 133.2564990  46.9319997
   4.4339992 131.1094990  46.7179997   5.2399992 130.6164990  46.1339997
   3.4829992 130.5884990  46.4759997   4.5319992 130.7384990  48.2909997
   3.5609992 131.0504990  48.7329997   5.3639992 131.3594990  48.6859997
   4.7279992 129.2234990  48.4189997   4.7189992 128.6814990  47.4619997
   4.9929992 128.6074990  49.5729997   5.1629992 127.5214990  49.5419997
   5.2249992 129.2274990  50.9519997   4.4139992 129.9084990  51.2889997
   6.1229992 129.8654990  50.8119997   5.6799992 128.1804990  52.0879997
   6.6059992 127.6184990  51.8379997   4.8529992 127.4654990  52.2849997
   6.0369992 128.8404990  53.4169997   6.7999992 129.6054990  53.1599997
   6.5549992 128.1184990  54.0839997   4.8019992 129.4994990  54.1869997
   4.3539992 130.2314990  53.4809997   5.2849992 130.0264990  55.0369997
   3.6529992 128.6364990  54.6789997   3.9739992 127.6554990  55.0889997
   3.0069992 128.5184990  53.7829997   2.7559992 129.2724990  55.7209997
   2.0909992 128.4734990  56.1099997   2.1199992 130.0784990  55.2969997
   3.4869992 129.8914990  56.9479997   3.9179992 130.8704990  56.6489997
   4.2689992 129.1874990  57.3029997   2.4929992 130.3294990  58.0659997
   2.9689992 130.7554990  58.9749997   2.0129992 129.3704990  58.3549997
   1.7139992 131.0604990  57.7619997 124.9429992 138.2714990  54.5199997
 124.6029992 138.9404990  53.6999997 125.1069992 138.9704990  55.3689997
 124.2179992 137.4794990  54.8059997 126.2879992 137.8224990  53.8909997
 126.9679992 138.6934990  53.7779997 126.8379992 137.2864990  54.6939997
 126.2579992 137.0294990  52.6089997 127.1619992 136.3894990  52.5279997
 125.3599992 136.3844990  52.7099997 125.9589992 137.8914990  51.4519997
 124.9539992 138.3394990  51.6059997 126.7369992 138.6854990  51.4539997
 126.1229992 137.1874990  50.1229997 127.1609992 136.7934990  50.1509997
 125.4099992 136.3394990  50.2109997 125.8589992 137.9864990  48.8429997
 126.6629992 138.7524990  48.8779997 126.2039992 137.4104990  47.9579997
 124.5159992 138.6004990  48.7649997 124.2079992 139.1444990  49.6829997
 124.4639992 139.2974990  47.9019997 123.3689992 137.5514990  48.5039997
 123.5669992 136.7054990  49.1959997 122.3739992 138.0004990  48.7119997
 123.3109992 136.7944990  47.0959997 124.3039992 136.3834990  46.8149997
 122.5299992 136.0114990  47.2039997 122.6959992 137.5354990  45.8949997
 121.6709992 137.8044990  46.2289997 123.1919992 138.5134990  45.7189997
 122.6369992 136.8804990  44.5149997 122.0879992 135.9194990  44.6199997
 122.0749992 137.3994990  43.7099997 124.0309992 136.6064990  43.8689997
 124.4869992 135.7644990  44.4319997 123.9139992 136.3554990  42.7929997
 125.1329992 137.6234990  43.9399997 125.3659992 138.0454990  44.9399997
 126.0549992 137.1224990  43.5729997 124.7669992 138.8954990  43.0889997
 124.3219992 138.5594990  42.1279997 123.9789992 139.4334990  43.6579997
 125.8429992 140.0194990  42.9429997 125.6229992 140.7944990  42.1779997
 126.0659992 140.5954990  43.8669997 127.0729992 139.2384990  42.3539997
 128.1309992 139.1184990  42.9519997 126.7369992 138.6454990  41.1269997
 127.6599992 137.6774990  40.5439997 127.8479992 138.0624990  39.5189997
 128.6249992 137.7054990  41.0939997 127.0629992 136.1764990  40.3819997
 127.9119992 135.6594990  39.8859997 125.8669992 136.1824990  39.3489997
 126.2749992 136.6864990  38.4469997 125.6209992 135.1374990  39.0639997
 124.8299992 136.8714990  39.9869997 123.4699992 136.8094990  39.0799997
 124.0609992 137.2624990  37.7899997 123.8939992 138.6054990  37.3779997
 122.8499992 138.8524990  37.0889997 124.1849992 139.3044990  38.1909997
 124.8829992 138.8824990  36.1289997 124.8559992 139.9504990  35.9729997
 125.9259992 138.7984990  36.3949997 124.4239992 138.2774990  34.7899997
 124.1289992 136.8134990  34.7109997 123.7489992 136.4324990  35.6469997
 123.5349992 136.7284990  33.8119997 125.0849992 136.3194990  34.6199997
 123.1649992 138.9094990  34.2699997 122.3989992 138.8514990  35.0289997
 123.3339992 139.9624990  34.0969997 122.8579992 138.2964990  33.4349997
 125.5489992 138.6264990  33.8069997 125.4639992 139.6674990  33.5319997
 125.3979992 138.0894990  32.8809997 126.3989992 138.3414990  34.4079997
 122.9689992 135.4254990  39.0119997 122.4359992 137.8244990  39.5179997
 126.5809992 135.5894990  41.6109997 127.5809992 135.1464990  42.3769997
 128.7689992 135.4184990  42.2939997 127.0509992 133.9184990  43.1909997
 127.7689992 133.1134990  42.9249997 126.0229992 133.6394990  42.8739997
 127.2059992 134.1744990  44.6679997 126.6919992 135.0804990  45.0549997
 128.2659992 134.4624990  44.8349997 126.8199992 132.9394990  45.5069997
 127.5289992 132.0954990  45.3679997 125.8299992 132.5024990  45.2539997
 126.8849992 133.2954990  46.9719997 127.6849992 134.0494990  47.1289997
 127.2059992 132.4384990  47.6029997 125.5939992 133.9414990  47.4959997
 125.0139992 134.2294990  46.5939997 125.7739992 134.8444990  48.1179997
 124.6869992 133.2004990  48.4599997 124.4489992 132.3654990  47.7669997
 123.7859992 133.7434990  48.8189997 125.4899992 132.5174990  49.6729997
 126.0029992 131.6504990  49.2049997 124.8209992 132.0004990  50.3929997
 126.5829992 133.3854990  50.3499997 126.8309992 134.3164990  49.8199997
 127.2269992 132.9084990  51.4389997 127.9619992 133.5704990  51.9189997
 126.9669992 131.5714990  52.1209997 127.9139992 131.0284990  52.3279997
 126.2799992 130.9014990  51.5599997 126.3029992 131.8524990  53.5379997
 126.0489992 130.8654990  53.9799997 125.3849992 132.4144990  53.2639997
 127.3069992 132.6034990  54.4069997 127.5339992 133.6454990  54.0959997
 128.3209992 132.1484990  54.3989997 126.7189992 132.7114990  55.7789997
 126.7539992 131.6654990  56.1519997 125.6489992 133.0044990  55.7249997
 127.4819992 133.6284990  56.7339997 128.5719992 133.4344990  56.8269997
 127.0319992 133.3274990  57.7049997 127.2569992 135.1584990  56.4489997
 126.2709992 135.5674990  56.1389997 127.9449992 135.5554990  55.6719997
 127.5689992 135.9924990  57.6989997 127.0899992 135.4344990  58.5319997
 126.9449992 136.9114990  57.7269997 129.0289992 136.3564990  57.9999997
 129.4289992 137.0254990  57.2079997 129.6399992 135.4364990  58.1199997
 129.0869992 136.9194990  58.9559997 127.7499992   0.0714990  54.5099997
 128.4749992  -0.7375010  54.2779997 126.7939992  -0.0695010  53.9619997
 127.4159992   0.1584990  55.5669997 128.4499992   1.3704990  54.0629997
 127.8099992   2.2504990  53.8379997 129.1159992   1.7494990  54.8679997
 129.2969992   1.1324990  52.7929997 130.0129992   0.2854990  52.8569997
 128.5789992   0.7804990  52.0219997 130.1049992   2.2674990  52.2809997
 129.3509992   3.0694990  52.1309997 130.7089992   2.7344990  53.0879997
 130.8159992   2.2504990  50.8979997 131.5919992   1.4604990  50.9879997
 130.0829992   1.9084990  50.1369997 131.4239992   3.6614990  50.7069997
 131.6669992   3.7524990  49.6269997 130.6029992   4.3914990  50.8689997
 132.6989992   3.9744990  51.5969997 133.0339992   5.0134990  51.3909997
 132.3069992   3.8914990  52.6339997 133.7889992   2.8984990  51.5669997
 134.6239992   3.1764990  52.2449997 133.3609992   2.0204990  52.0969997
 134.4069992   2.5864990  50.2349997 135.1959992   1.8414990  50.4769997
 133.6639992   2.1434990  49.5389997 135.0419992   3.8524990  49.5939997
 134.1929992   4.4894990  49.2659997 135.6139992   4.5364990  50.2559997
 135.9269992   3.4864990  48.3979997 136.3009992   4.3794990  47.8539997
 136.7839992   2.9274990  48.8319997 135.2109992   2.5044990  47.3839997
 136.0369992   2.2634990  46.6809997 134.9679992   1.6374990  48.0349997
 134.0439992   3.0924990  46.6759997 133.1939992   3.3754990  47.3329997
 134.3719992   4.0774990  46.2809997 133.4279992   2.2654990  45.5429997
 134.1779992   1.9284990  44.7959997 132.9689992   1.3254990  45.9189997
 132.2729992   2.9824990  44.7089997 131.3549992   2.8574990  45.3219997
 132.4519992   4.0774990  44.7659997 132.0469992   2.6354990  43.2049997
 130.9609992   2.7864990  42.6579997 133.1689992   2.1564990  42.6739997
 133.1259992   1.9244990  41.2399997 132.3219992   2.4474990  40.6789997
 134.1299992   2.2164990  40.8659997 133.1599992   0.3804990  41.0309997
 133.9359992   0.0374990  41.7489997 133.5739992  -0.0195010  39.5759997
 134.1159992   0.7984990  39.0549997 134.2609992  -0.8935010  39.5799997
 132.4679992  -0.2895010  38.7799997 132.5779992  -0.6385010  37.1979997
 132.3499992   0.7084990  36.3769997 131.1489992   1.4524990  36.5559997
 130.7379992   1.7004990  35.5539997 130.3279992   0.9164990  37.0779997
 131.3579992   2.6974990  37.4159997 130.3799992   3.0904990  37.6499997
 131.9929992   2.4534990  38.2549997 132.1059992   3.8654990  36.7809997
 131.1429992   4.5084990  35.8509997 131.4869992   5.4764990  35.5159997
 130.9469992   3.8704990  35.0019997 130.2189992   4.6574990  36.3899997
 132.5419992   4.8144990  37.8629997 131.7189992   5.3514990  38.3099997
 133.1009992   4.4204990  38.6989997 133.0889992   5.5644990  37.3119997
 133.2689992   3.4884990  35.9629997 134.0399992   3.0274990  36.5619997
 133.5759992   4.4464990  35.5699997 133.0139992   2.8044990  35.1669997
 133.8929992  -1.1715010  36.9079997 131.4769992  -1.5485010  36.7789997
 131.8559992  -0.2365010  41.3539997 131.8419992  -1.5145010  41.5969997
 132.7689992  -2.2865010  41.5789997 130.3649992  -1.8965010  41.9879997
 129.9099992  -2.6355010  41.2949997 129.7479992  -0.9725010  42.0039997
 130.3199992  -2.5025010  43.3559997 131.0899992  -3.2955010  43.4699997
 129.3709992  -3.0795010  43.3529997 130.3719992  -1.5225010  44.5779997
 129.7229992  -0.6305010  44.4469997 131.4499992  -1.2565010  44.5419997
 130.2709992  -2.0555010  46.0089997 130.9149992  -2.9575010  46.0909997
 129.2469992  -2.4785010  46.1019997 130.4339992  -1.0405010  47.1919997
 129.4569992  -0.5205010  47.2849997 131.2259992  -0.3385010  46.8539997
 130.6279992  -1.5505010  48.6699997 129.8559992  -2.3435010  48.7609997
 130.5369992  -0.6865010  49.3619997 131.9779992  -2.2855010  48.9309997
 132.7769992  -1.5195010  48.8389997 132.2119992  -3.0465010  48.1559997
 131.9509992  -2.9405010  50.2679997 131.0319992  -3.5025010  50.4889997
 132.8409992  -2.8095010  51.2879997 132.6419992  -3.4515010  52.1589997
 134.1459992  -1.8845010  51.2989997 134.3769992  -1.4305010  50.3119997
 134.9819992  -2.4835010  51.7199997 133.8689992  -0.7365010  52.2779997
 132.8599992  -0.2845010  52.1649997 134.4329992   0.1634990  51.9529997
 133.9039992  -1.0805010  53.7379997 134.8809992  -1.5415010  53.9979997
 133.1189992  -1.8055010  54.0429997 133.8859992   0.2164990  54.5379997
 134.7029992   0.9164990  54.2559997 134.0919992  -0.1145010  55.5779997
 132.5689992   0.8904990  54.7439997 132.0619992   1.1974990  53.8049997
 132.8739992   1.8594990  55.1929997 131.5899992   0.0264990  55.5719997
 131.3119992  -0.8675010  54.9739997 130.6499992   0.6164990  55.6199997
 131.9119992  -0.5535010  56.9239997 132.1299992   0.3114990  57.5859997
 132.7499992  -1.2815010  56.9719997 130.6909992  -1.2785010  57.5829997
 129.7919992  -0.6385010  57.7109997 131.0249992  -1.6175010  58.5869997
 130.3799992  -2.1905010  57.0299997 137.9769992 124.3784990  56.5099997
 138.8079992 125.0914990  56.6979997 138.4199992 123.5454990  55.9229997
 137.6759992 124.1034990  57.5429997 136.9649992 125.0814990  55.6429997
 137.4709992 125.4914990  54.7429997 136.2839992 124.3294990  55.1899997
 136.0499992 126.1854990  56.2469997 135.2339992 125.6944990  56.8189997
 136.6409992 126.7784990  56.9769997 135.4199992 127.1464990  55.2189997
 135.0929992 126.4824990  54.3899997 134.5049992 127.5784990  55.6779997
 136.2869992 128.2144990  54.6579997 136.7069992 128.6914990  55.5689997
 137.0809992 127.8564990  53.9689997 135.4249992 129.2164990  53.9109997
 134.9569992 128.6694990  53.0649997 134.6799992 129.5684990  54.6559997
 136.1469992 130.4014990  53.2959997 135.5819992 130.9864990  52.5389997
 136.4779992 131.0474990  54.1369997 137.4339992 130.0194990  52.4999997
 137.9109992 130.9344990  52.0899997 138.0999992 129.4644990  53.1949997
 137.1009992 129.2494990  51.2519997 136.7079992 128.2504990  51.5379997
 136.3999992 129.6154990  50.4709997 138.4029992 129.0164990  50.3819997
 139.2479992 128.6554990  51.0059997 138.1889992 128.2084990  49.6499997
 138.8189992 130.2404990  49.5709997 139.3749992 131.0734990  50.0509997
 139.5919992 129.8084990  48.8999997 137.7379992 130.7994990  48.5689997
 136.7319992 130.3674990  48.7579997 137.6729992 131.9074990  48.6059997
 138.1829992 130.5464990  47.1409997 137.7539992 131.3084990  46.4559997
 139.2919992 130.6024990  47.0929997 137.7609992 129.1224990  46.6649997
 138.0409992 128.3334990  47.3959997 136.6889992 129.2054990  46.3849997
 138.4269992 128.6044990  45.3499997 139.5109992 128.6754990  45.5819997
 137.9859992 127.5914990  45.2319997 138.2669992 129.4044990  44.0589997
 137.6839992 130.4774990  43.8939997 138.6799992 128.6334990  43.1129997
 138.6119992 129.1924990  41.7779997 137.6079992 129.1084990  41.3079997
 138.8459992 130.2774990  41.8269997 139.6969992 128.6124990  40.8119997
 140.6969992 128.8484990  41.2369997 139.6289992 128.9344990  39.3089997
 138.6389992 128.6004990  38.9299997 139.7529992 130.0304990  39.1779997
 140.7989992 128.3044990  38.7169997 140.6409992 127.3214990  37.4879997
 139.3939992 126.4204990  37.9279997 138.7499992 125.6574990  36.8229997
 139.5229992 125.3064990  36.1069997 138.2189992 124.7214990  37.1009997
 137.9139992 126.5264990  35.8389997 138.5669992 127.2774990  35.4189997
 137.5749992 125.8804990  35.0419997 136.7969992 127.3634990  36.3819997
 137.0889992 128.8024990  36.8209997 136.1489992 129.3334990  36.8289997
 137.5719992 128.9634990  37.7739997 137.7369992 129.1414990  36.0259997
 135.8129992 127.5194990  35.2629997 135.6139992 126.5194990  34.9049997
 135.0119992 128.1764990  35.5679997 136.3089992 128.0804990  34.4849997
 136.1899992 126.7224990  37.5409997 136.0169992 125.7244990  37.1669997
 135.3599992 127.3234990  37.8829997 136.9069992 126.6674990  38.3469997
 140.2049992 128.2024990  36.3619997 141.9049992 126.5464990  37.3079997
 139.5539992 127.1344990  40.7969997 140.5129992 126.4414990  41.3209997
 141.5319992 126.8364990  41.8929997 140.1419992 124.9434990  41.2119997
 140.2169992 124.6544990  40.1419997 139.1129992 124.7444990  41.5789997
 141.1009992 124.0564990  42.0209997 142.0469992 124.6264990  42.1429997
 141.1489992 123.0614990  41.5289997 140.5859992 123.8364990  43.4439997
 141.1209992 123.0244990  43.9829997 139.4979992 123.6214990  43.3719997
 140.7469992 125.0394990  44.4009997 140.4099992 126.0604990  44.1209997
 141.7929992 125.1244990  44.7629997 140.0389992 124.8454990  45.7479997
 140.0859992 123.7644990  46.0039997 138.9549992 125.0854990  45.7619997
 140.7819992 125.7074990  46.8359997 140.8869992 126.7644990  46.5099997
 141.8099992 125.2854990  46.8639997 140.0439992 125.6244990  48.1899997
 139.0249992 126.0574990  48.0979997 140.6579992 126.2534990  48.8699997
 139.8309992 124.3694990  49.0159997 139.3859992 123.5734990  48.4009997
 139.9049992 124.0404990  50.3099997 139.5779992 123.0504990  50.6619997
 140.2529992 124.9794990  51.4799997 139.5069992 124.9954990  52.3029997
 140.4079992 126.0164990  51.1109997 141.5569992 124.3514990  52.1239997
 142.3969992 124.2984990  51.3979997 141.4759992 123.3364990  52.5689997
 142.0699992 125.3404990  53.1699997 142.9849992 124.8974990  53.6189997
 141.2549992 125.4134990  53.9219997 142.4529992 126.7274990  52.7099997
 141.4569992 127.2074990  52.5999997 142.9899992 126.6344990  51.7429997
 143.3819992 127.4254990  53.7069997 143.7749992 128.3904990  53.3229997
 144.2269992 126.7294990  53.8939997 142.8499992 127.7644990  55.1029997
 143.5899992 128.1424990  55.8399997 142.5359992 126.7784990  55.5079997
 141.5949992 128.6764990  55.0749997 141.2349992 128.7914990  56.1199997
 140.8529992 128.3934990  54.2979997 141.8399992 130.1294990  54.6659997
 142.6549992 130.6784990  55.1839997 140.8849992 130.6634990  54.8599997
 141.9849992 130.1624990  53.5649997 143.2059992 136.2664990  53.5839997
 143.4889992 137.0824990  52.8859997 143.9159992 135.4124990  53.5349997
 143.0959992 136.5534990  54.6519997 141.8249992 135.8324990  53.0399997
 141.3349992 135.1794990  53.7929997 141.0439992 136.6214990  52.9979997
 141.7409992 135.0564990  51.6769997 140.6499992 135.1114990  51.4759997
 142.1819992 135.7114990  50.8949997 142.3709992 133.6864990  51.6109997
 143.4789992 133.7684990  51.5999997 142.0599992 133.0504990  52.4679997
 141.9859992 132.9844990  50.3219997 142.5259992 132.0144990  50.3219997
 140.9249992 132.6674990  50.4119997 142.2149992 133.7454990  49.0759997
 141.8669992 134.8004990  49.0849997 143.3119992 133.8474990  48.9309997
 141.5519992 133.0474990  47.8229997 141.9199992 131.9984990  47.8019997
 140.4739992 132.9414990  48.0709997 141.7599992 133.8174990  46.5199997
 142.8419992 134.0084990  46.3589997 141.3999992 133.1744990  45.6879997
 140.9779992 135.1124990  46.3099997 139.8849992 134.9124990  46.2809997
 141.2079992 135.8564990  47.1029997 141.3129992 135.7884990  44.9709997
 140.9319992 135.2874990  44.0559997 140.6349992 136.6674990  44.9459997
 142.7289992 136.0124990  44.6279997 143.1999992 136.4694990  45.5239997
 143.3599992 135.1024990  44.5429997 143.0349992 136.9794990  43.4279997
 142.1249992 137.5274990  43.0989997 143.8489992 137.6474990  43.7819997
 143.4389992 136.1114990  42.2699997 143.7999992 136.7394990  41.4269997
 144.3319992 135.6224990  42.7139997 142.5749992 134.9154990  41.7959997
 142.3869992 134.2934990  42.6979997 141.6109992 135.2564990  41.3639997
 143.3049992 134.1064990  40.6939997 143.6069992 134.7754990  39.8599997
 144.2049992 133.6834990  41.1889997 142.5049992 132.9174990  40.2749997
 141.8979992 132.2374990  41.0579997 142.7459992 132.6814990  38.9839997
 142.2409992 131.4404990  38.4019997 142.9969992 131.0694990  37.6779997
 142.1309992 130.6914990  39.2159997 140.9849992 131.7524990  37.6859997
 140.6639992 130.7914990  37.2319997 141.1709992 132.8954990  36.6579997
 141.9219992 132.6714990  35.8699997 140.2149992 133.0964990  36.1299997
 141.6169992 134.0644990  37.3449997 142.1359992 135.2574990  36.3889997
 140.8019992 136.1024990  36.2719997 139.5829992 135.5054990  36.0639997
 139.5489992 135.0254990  35.0619997 139.3779992 134.7334990  36.8359997
 138.3789992 136.4614990  36.2739997 138.1309992 137.1104990  35.4459997
 137.5279992 135.7954990  36.2709997 138.2609992 137.2944990  37.6169997
 139.3009992 138.3974990  37.7089997 139.1929992 139.0434990  38.5679997
 140.2389992 137.8624990  37.6929997 139.1989992 139.0614990  36.8629997
 136.8599992 137.9104990  37.7559997 136.8249992 138.5764990  38.6059997
 136.7039992 138.4384990  36.8269997 136.1139992 137.1344990  37.8349997
 138.4499992 136.3734990  38.7679997 138.2879992 136.8864990  39.7039997
 139.4319992 135.9444990  38.6279997 137.6569992 135.6424990  38.7189997
 143.0419992 136.1594990  37.2009997 142.5399992 134.7444990  35.0789997
 140.0419992 132.0694990  38.7619997 138.7309992 132.1944990  38.4589997
 138.2239992 131.9144990  37.3879997 138.0309992 132.8624990  39.7019997
 137.3189992 132.1504990  40.1699997 137.3539992 133.6714990  39.3519997
 138.9589992 133.4304990  40.7829997 139.5849992 134.1704990  40.2399997
 139.6089992 132.6814990  41.2829997 138.2329992 134.2424990  41.8469997
 139.0309992 134.6534990  42.5019997 137.5599992 133.5734990  42.4239997
 137.2009992 135.3754990  41.5229997 136.6269992 134.9094990  40.6939997
 137.8699992 136.1834990  41.1599997 136.2809992 135.8234990  42.6429997
 135.5689992 135.0284990  42.9509997 135.6599992 136.6374990  42.2109997
 137.2159992 136.2714990  43.8449997 138.0159992 136.8394990  43.3239997
 137.6339992 135.3364990  44.2749997 136.5159992 137.1284990  44.9029997
 136.0489992 137.9804990  44.3639997 137.2809992 137.4794990  45.6269997
 135.6649992 136.1934990  45.7229997 134.6439992 136.1174990  45.3199997
 135.9499992 135.2654990  46.6209997 135.1229992 134.6444990  46.9929997
 137.3529992 134.9474990  47.1709997 137.9739992 135.8304990  46.9079997
 137.7389992 134.0224990  46.6929997 137.3019992 134.6884990  48.6969997
 136.7959992 135.5024990  49.2589997 138.3389992 134.6764990  49.0949997
 136.7049992 133.3254990  48.9469997 136.8109992 132.6014990  48.1109997
 135.6199992 133.4734990  49.1329997 137.2909992 132.5794990  50.2359997
 138.3589992 132.2914990  50.1289997 136.7149992 131.6734990  50.5219997
 137.1649992 133.5094990  51.4389997 136.1799992 134.0094990  51.5539997
 137.9539992 134.2594990  51.2209997 137.5039992 132.8624990  52.7469997
 138.3339992 132.1294990  52.6659997 136.6629992 132.2514990  53.1399997
 137.8649992 133.8224990  53.8979997 138.9319992 134.1144990  53.7879997
 137.8279992 133.1834990  54.8059997 136.9159992 135.0194990  54.1249997
 137.1299992 135.6164990  55.0369997 135.8359992 134.7844990  54.2449997
 137.0889992 135.6914990  53.2569997  11.1469992  88.4274990  87.6479997
 116.9029992  27.2684990   9.8139997  67.9509992 105.8364990  84.4869997
  88.3929992  36.2054990  88.8109997  31.4549992 106.1614990  26.1929997
 101.3759992   2.1744990 103.3729997  46.8079992  51.1404990  98.7289997
  74.3609992  16.8114990   1.4319997  50.1659992   9.6184990 109.0589997
   5.5119992   5.1334990  88.1769997 120.9059992  69.7774990  85.8429997
  58.2469992   1.3444990  94.8119997 129.7679992  76.6054990  17.1839997
 108.5489992  53.2644990   3.7739997  81.1549992 119.9654990   9.3179997
  53.8979992  57.6254990  19.8409997 137.7329992  67.8524990   8.7859997
  57.6419992  89.9694990 109.9809997 110.0889992 101.2614990 109.1729997
  75.5689992  71.5644990  99.0699997  92.7689992   7.6654990 108.6759997
 120.5549992  17.3214990  30.6119997 113.7169992  74.2904990  19.0759997
  28.3789992  10.0814990 104.7109997  90.2819992 126.5664990   8.0939997
  43.6279992  83.0074990  97.6099997  74.5969992 120.9424990   1.6759997
 100.3679992  89.7044990  84.6209997  61.9009992 138.0334990  30.4239997
 132.1179992  69.2644990  13.9059997 118.9299992  93.8944990  23.9529997
  80.4879992  11.4964990  95.0919997  70.0029992   1.0044990  86.1679997
  25.5319992  58.5494990   6.6599997  36.8999992  40.5004990  82.8309997
  99.1859992  69.0984990  94.7419997  59.6359992 127.6314990 109.5319997
 118.7089992 118.1694990  95.6619997  47.1269992  97.7344990  22.3759997
  87.2659992 124.8644990  97.6929997 138.5929992  51.2974990  14.1519997
  40.5639992  91.9424990 104.4439997  88.4099992 105.7064990  82.5999997
  18.4609992  36.6444990 100.7489997  66.5199992  69.0394990  19.9909997
 102.7199992  66.9724990  89.0729997  20.3369992  14.9074990  31.7839997
  17.6429992  85.7074990  82.4879997 111.4479992  29.4864990  21.0449997
 119.6339992  94.2674990  90.1609997 121.2729992 105.3814990 109.8269997
  51.1109992  18.9674990  93.9869997  89.4499992 111.1944990  99.3119997
 114.9289992 109.6074990 104.0249997  16.5359992  19.9054990  23.3679997
  93.0009992 124.6294990  87.3609997  41.0989992 107.7674990   9.4009997
 110.8739992  78.9784990  91.2069997 128.7529992  29.7324990  91.8169997
  35.8369992 125.7514990  11.3189997  24.2649992  30.6194990  31.3339997
 116.0039992  49.6974990  29.8549997 131.9439992  83.7734990  18.7749997
  75.9069992  40.4444990  89.5929997  66.1559992   3.6714990  24.1149997
  71.5329992   7.2234990  79.9039997  76.7649992 126.6934990  17.7679997
  34.9969992  52.9404990   3.1409997 134.9269992  52.6874990  87.5559997
  90.9599992  97.2374990  83.1709997  69.4529992 113.1954990  28.2219997
 128.3589992  10.3494990 101.4179997 125.7089992  18.2304990  25.6989997
 126.1149992   5.9904990   2.5369997  47.6659992  63.5144990   6.4119997
  35.9689992 121.6464990  -0.0190003  18.7089992  84.9764990  -0.0320003
 128.6009992  33.1294990  20.4679997  76.9259992  39.6674990  17.7379997
 130.0569992  80.2954990  22.4669997  85.8559992  20.0054990  96.2059997
  13.2399992 136.0524990  15.0759997 125.1689992   9.3054990  80.3779997
 122.2939992 121.9734990  14.4879997  49.1919992  16.4574990  89.4829997
 107.8959992 124.4434990  13.0899997 104.5189992 101.2704990 103.5089997
  45.7939992 112.7464990  14.3119997  36.0939992 119.8394990  83.3969997
  67.7789992  33.6124990   2.6829997  67.2399992  43.8174990  93.1209997
  67.8199992  14.5564990  87.7839997 107.7609992   4.0164990  13.2919997
  99.2689992 116.6884990   2.5279997  61.4589992  84.6284990 108.5509997
  42.1969992  53.3434990   8.4099997  65.4839992  77.7904990   4.4749997
  12.5289992 134.9724990  28.5309997  88.6549992  33.4584990   6.1929997
   2.2289992  57.2724990   9.3929997  58.4579992  42.1924990   2.5189997
 137.5329992 118.2504990  82.2709997  38.0069992 137.0664990  91.9279997
   0.9389992  83.9604990  13.9499997  89.8339992 134.9634990  12.8439997
  48.1279992  91.3164990  23.9769997  82.9129992  36.2734990  33.0599997
  37.6359992 124.6584990   7.4619997  93.3019992  66.1974990  97.7689997
  22.4679992  52.7274990  99.8049997 127.4959992   3.7484990  81.7679997
 134.0769992  55.3384990   3.7839997  97.0659992 108.5574990  83.6349997
  40.5529992  28.6604990   5.0389997  44.2369992   4.0724990 107.9939997
  57.5279992  26.9934990  89.7039997  60.5459992 129.9534990  84.9399997
 118.4499992  60.9634990  95.4229997 110.2839992  37.5414990 100.4589997
  81.8749992  20.1584990  86.5599997  93.1909992 101.3644990  23.6289997
   4.9469992  75.3884990 106.4679997  65.7099992  57.2314990  11.8229997
  25.3949992  96.4344990 109.6469997  95.9499992  33.5404990 101.9329997
 127.9689992  74.6644990  11.0599997  57.9329992 126.9184990  30.9499997
  42.6679992   7.9654990  33.2039997  21.2359992  67.1434990   7.6569997
  39.0429992  99.6684990  17.9359997 126.6999992  13.3624990   9.9429997
  30.8649992 138.8064990  80.8959997   2.9189992   8.2084990  -0.5930003
  72.6229992  68.3394990  83.4769997  19.4409992  89.2864990  79.5859997
  54.5759992  73.4984990  23.7769997  79.2679992  15.0704990  89.9489997
  69.4819992  31.8124990 104.8839997 129.2039992  57.0344990  93.7369997
  46.5949992  89.0814990  17.2479997  23.0319992  13.6244990   5.5179997
 136.6379992  64.2634990 104.2799997  28.6689992 109.9054990   6.1369997
 136.5799992 102.5844990  29.1189997 100.7879992  93.5674990  80.4889997
  48.1359992 104.1234990 106.7949997  94.4159992  83.1294990  13.4779997
 128.2289992  76.7454990 109.1819997  47.4529992  19.0154990  16.0009997
 121.2279992  42.7534990  87.4939997  53.4079992  20.4074990  35.2729997
  71.7339992  21.7674990  20.7609997  91.9329992  69.8064990  28.9499997
  99.8779992  13.6244990  16.2959997   9.6989992  83.1864990   9.1769997
  15.2399992 102.8454990  96.9129997  29.6739992  93.5594990  82.9189997
 105.8599992 113.1854990  25.8199997 104.5639992  89.6264990  16.6209997
 125.3969992  65.1324990  16.3399997  59.6069992  97.3224990  86.4369997
   5.0839992 105.6244990  87.5219997  64.1229992  86.2854990  25.0949997
  17.4689992 117.6544990   8.7549997  88.1549992 135.6754990  82.1499997
  45.8749992 134.6024990 106.0089997 137.5629992  37.1694990   2.2439997
  91.1709992  56.8914990  94.0969997  15.7629992 117.8564990  12.6559997
 115.3429992  39.8734990  28.4129997  10.7889992  61.7744990  22.0759997
  45.3719992 104.2784990  27.4679997  73.7939992 113.1294990  80.8629997
  87.4049992  37.0194990  99.6649997 121.8989992 108.2914990  22.0349997
 130.2079992 125.3514990  83.7259997  89.4569992 129.4284990  21.0209997
  34.5279992  44.5654990 102.0469997   9.9449992  83.8034990  16.1999997
   1.6259992  39.1674990  87.1389997  45.8769992  55.6304990 108.4879997
  82.2259992  65.4854990  91.4999997  40.0149992  50.3804990   6.6079997
   2.1419992  74.9634990  84.7079997 138.3959992  69.6324990  28.8619997
 126.9449992  25.1364990   3.9389997  58.8599992   5.7364990  91.5379997
  42.5859992  93.7964990  89.6519997  80.7519992  84.0924990   6.2379997
 106.7809992  52.7114990  90.1569997  53.8529992 116.4634990  25.7799997
 124.2959992  35.2014990  29.7049997  61.6369992  57.4974990  20.9959997
 122.3789992  26.4114990  20.9159997   1.6069992 116.1424990 104.0859997
  84.9479992  40.1554990  82.0539997  61.1929992  43.8204990  29.4109997
 133.5009992 108.3214990  97.1509997  74.2109992  28.4484990  29.7199997
  21.9039992  40.7974990  84.6639997  23.4469992 135.2954990  97.7139997
  95.8449992  12.2164990   5.0929997  15.7149992  50.2374990  95.5859997
  39.2899992  55.2444990  85.0839997 103.3019992  73.2684990 100.9809997
 128.2779992 103.8504990  82.9229997 109.3169992  79.5384990  81.0649997
   5.3669992 137.9684990 107.4959997 134.3029992  43.5004990  82.3959997
  99.9289992 133.1114990  25.2839997 136.6419992  60.1354990 107.9309997
  34.5869992   3.1554990  -0.2480003 106.9179992  88.8714990 101.2439997
   4.3379992  72.3314990   9.5919997  31.6399992  49.7864990  15.2769997
 138.9999992  42.7324990  96.3049997  89.1659992  60.5704990   4.3799997
 134.2099992 137.5254990 101.2249997  43.8049992  97.8874990  96.9669997
  94.6369992  70.7114990  21.3449997 128.4419992  66.5624990 101.6249997
   4.1129992 115.7304990   5.9979997  34.7919992  99.7994990  14.8709997
  54.4719992  24.5654990  20.3899997   6.6399992 137.5844990 101.2559997
   4.2599992  99.6784990   9.7819997  55.3069992  59.8204990  88.6979997
  19.1839992  80.3274990  18.3629997  69.7479992  27.9844990   4.5209997
   3.7909992 128.3214990   8.3779997  75.7729992  88.5234990  28.1979997
  45.0139992 104.7294990  12.7939997  33.5219992  34.9614990   4.9199997
  23.9999992  72.8074990  14.0529997  57.1189992  81.9854990  75.6179997
   2.5609992  28.5344990  23.2849997 114.3199992  68.8804990  21.6129997
 120.0806214  92.8989361 100.7507317  18.6186101 130.5816267 108.7959034
  86.8316379  88.7639182  20.8478636  12.5339992  10.5394990  82.7369997
  12.6229992  11.4834990  82.6049997  11.8949992  10.2644990  82.0789997
  12.4598319  10.6314984  82.6300276  11.4669992   9.7944990  86.1559997
  11.4279992   9.1484990  86.8609997  11.1439992   9.3274990  85.3849997
  11.4180199   9.6430089  86.1482865   3.8349992   9.4084990  87.7489997
   3.8759992   8.7834990  88.4729997   4.5379992  10.0324990  87.9309997
   3.9356054   9.4073262  87.8726311  15.1729992  12.7334990  84.4579997
  14.7319992  12.0134990  84.9079997  15.1599992  13.4544990  85.0879997
  15.1108398  12.7323187  84.6047734   4.7589992  13.8584990  86.2839997
   4.3889992  13.0564990  85.9149997   5.6999992  13.6904990  86.3309997
   4.8355630  13.7258680  86.2397873   1.3689992   7.5184990  81.6769997
   0.9209992   8.3644990  81.6589997   0.8079992   6.9394990  81.1619997
   1.2318546   7.5559004  81.6048874   2.0789992   9.6804990  83.8029997
   2.2929992   8.9104990  84.3299997   2.8169992   9.7704990  83.1999997
   2.2080073   9.5873546  83.7935786  12.2839992  17.8374990  84.6699997
  12.9039992  17.1614990  84.3969997  12.0759992  17.6194990  85.5779997
  12.3407360  17.7154792  84.7554387   9.8559992  12.2264990  86.5619997
  10.1599992  11.5404990  85.9679997  10.5779992  12.3454990  87.1799997
   9.9951152  12.1487201  86.5642106  18.5189992   3.8284990  87.4229997
  18.5679992   4.4384990  88.1589997  18.9449992   4.2894990  86.6999997
  18.5832851   3.9743266  87.4260532  12.9969992   6.6204990  86.8899997
  13.1389992   5.6744990  86.9099997  12.8909992   6.8274990  85.9609997
  13.0021158   6.5189722  86.7672241   6.1519992   4.7224990  84.1619997
   6.1949992   5.5824990  83.7439997   5.6939992   4.1694990  83.5289997
   6.0959613   4.7655689  84.0191276  13.8739992   4.8534990  82.5629997
  14.5199992   4.5244990  83.1879997  14.3839992   5.3704990  81.9399997
  14.0314392   4.8783710  82.5643248   2.7719992   7.1194990  84.9239997
   3.4259992   6.5694990  85.3559997   2.7959992   6.8454990  84.0079997
   2.8647022   7.0072005  84.8591698   7.9279992   8.6694990  84.1399997
   8.5439992   8.1424990  84.6489997   7.3419992   8.0294990  83.7359997
   7.9330652   8.5108919  84.1550277  18.9109992   5.3064990  89.6589997
  18.2219992   5.9644990  89.5639997  18.9259992   5.1084990  90.5959997
  18.8187756   5.3697614  89.7725795   4.9619992   3.6404990  88.2359997
   4.7429992   4.1704990  87.4699997   4.2939992   3.8664990  88.8839997
   4.8417271   3.7436508  88.2186206  12.3309992  13.1404990  81.7799997
  12.0349992  12.8174990  80.9289997  12.0069992  14.0404990  81.8219997
  12.2466501  13.2179058  81.6690893   7.5309992  11.3154990  88.5239997
   6.7909992  11.9144990  88.6269997   8.2449992  11.8694990  88.2079997
   7.5263288  11.4722368  88.4953787  15.6379992   4.1444990  84.5439997
  15.4229992   3.3784990  85.0759997  16.2939992   4.6164990  85.0569997
  15.6972451   4.1034472  84.6861699   4.5559992   5.5324990  86.1889997
   5.1689992   6.1654990  86.5619997   5.0679992   5.0604990  85.5319997
   4.7091680   5.5554006  86.1512830   5.9379992  13.2804990  89.3109997
   5.9329992  14.1594990  88.9329997   5.0849992  13.1964990  89.7359997
   5.8219199  13.3895901  89.3166942   2.0599992  12.9514990  80.0929997
   1.7879992  13.1804990  79.2039997   2.1049992  13.7884990  80.5529997
   2.0288709  13.0961069  80.0336089  15.6849992  14.5724990  86.8059997
  14.7429992  14.6314990  86.9669997  15.9609992  15.4784990  86.6689997
  15.5935771  14.7030270  86.8094827  15.9849992   2.8594990  88.2229997
  15.2489992   3.4694990  88.1849997  16.6689992   3.2744990  87.6969997
  15.9765885   2.9991924  88.1466931   8.9879992   0.9454990  85.6889997
   8.8709992  -0.0025010  85.6349997   8.1329992   1.2784990  85.9619997
   8.8563691   0.8605842  85.7185072  13.9369992  16.3534990  83.4309997
  14.3619992  15.6464990  82.9459997  14.2539992  17.1554990  83.0139997
  14.0380266  16.3650201  83.3082461  15.0959992  14.2544990  81.9399997
  14.8389992  13.5644990  81.3279997  15.1669992  13.8114990  82.7849997
  15.0704322  14.1001568  81.9705372  16.7819992  12.8214990  90.4169997
  16.9219992  12.2294990  89.6779997  16.9499992  13.6944990  90.0609997
  16.8238734  12.8584041  90.2676937  18.6239992   9.1614990  88.4829997
  17.9719992   9.8554990  88.5719997  19.0889992   9.3714990  87.6729997
  18.5975357   9.2849544  88.3857056  14.6609992   9.9924990  81.1409997
  13.9289992  10.2214990  81.7139997  15.1079992   9.2794990  81.5959997
  14.6212753   9.9273984  81.2809698  14.5579992   8.1674990  90.2089997
  14.6379992   8.9304990  90.7809997  13.9569992   8.4464990  89.5179997
  14.4877115   8.3097707  90.1939631   6.3059992  10.6234990  83.0239997
   5.9759992  10.2524990  82.2049997   6.8939992   9.9524990  83.3699997
   6.3404056  10.4821257  82.9589035   7.6729992  14.0514990  85.7049997
   7.5779992  13.4724990  84.9479997   8.4019992  13.6804990  86.2009997
   7.7586161  13.9220902  85.6685192   6.6729992   9.3914990  86.6569997
   7.2379992   9.5134990  85.8939997   6.9909992  10.0294990  87.2959997
   6.7933430   9.4944448  86.6389094  12.9819992  14.8954990  87.3909997
  12.7409992  15.5574990  88.0389997  12.7839992  14.0604990  87.8159997
  12.9222662  14.8732704  87.5371008   7.5529992  13.7914990  91.3739997
   7.2409992  14.5734990  91.8299997   6.9029992  13.6384990  90.6879997
   7.4224643  13.8778019  91.3436657  13.5319992   9.1554990  78.8259997
  14.1109992   9.3054990  79.5729997  13.9459992   9.6254990  78.1029997
  13.6673122   9.2396288  78.8305024   4.4729992   9.9894990  90.6029997
   4.5429992  10.6404990  91.3009997   3.5819992  10.0924990  90.2679997
   4.3621802  10.0924769  90.6532231  11.2579992  15.8914990  82.2619997
  11.7319992  16.1874990  83.0389997  10.6949992  16.6304990  82.0279997
  11.2468460  16.0318336  82.3367626   5.7919992  15.8624990  92.1379997
   5.7999992  15.7264990  91.1899997   4.8759992  15.7454990  92.3899997
   5.6692512  15.8280663  92.0423179  17.2299992   0.9054990  78.6389997
  16.3299992   1.0434990  78.9339997  17.4819992   1.7364990  78.2369997
  17.1407355   1.0368200  78.6250539   5.2959992   9.6924990  80.6129997
   5.0039992  10.4604990  80.1219997   4.6219992   9.0334990  80.4499997
   5.1648843   9.7084537  80.5237695   1.3889992  12.0554990  89.4279997
   0.8879992  12.0274990  88.6129997   1.3949992  11.1504990  89.7379997
   1.3211690  11.9292234  89.3582770   1.1399992  14.8364990  86.3119997
   2.0859992  14.6914990  86.2929997   1.0269992  15.6204990  86.8489997
   1.2543578  14.9226708  86.3820300  19.3369992  15.5024990  91.9939997
  19.2879992  14.5464990  91.9569997  18.5109992  15.7694990  92.3959997
  19.2185767  15.4078841  92.0433133  10.3159992  15.0764990  90.8699997
  10.4029992  15.9024990  91.3449997   9.4519992  14.7464990  91.1189997
  10.2111944  15.1449871  90.9686558  10.7299992  18.8484990  80.6759997
  10.6549992  18.7274990  79.7299997  10.7629992  19.7974990  80.7949997
  10.7241862  18.9602492  80.5624840   4.3839992  17.6374990  82.4569997
   4.5359992  17.2894990  83.3359997   3.5329992  17.2804990  82.2019997
   4.2897899  17.5416749  82.5427322  13.5009992  17.9284990  80.4279997
  12.5659992  18.0284990  80.6069997  13.7809992  17.2184990  81.0059997
  13.4109270  17.8462300  80.5305984  16.4889992   6.9954990  92.4739997
  16.0819992   7.4754990  91.7539997  16.5299992   6.0894990  92.1669997
  16.4387178   6.9388609  92.3337441   3.6379992  13.3794990  90.4709997
   3.8539992  13.0174990  91.3309997   2.7829992  13.0044990  90.2609997
   3.5519349  13.2792914  90.5602134   6.2569992   1.8494990  86.4669997
   5.3949992   1.7624990  86.0589997   6.2349992   2.7054990  86.8939997
   6.1360953   1.9533558  86.4689262  10.9199992   1.5714990  89.8409997
  11.3399992   1.1564990  90.5939997   9.9869992   1.3924990  89.9579997
  10.8513736   1.4904921  89.9598950  14.2459992   5.3264990  90.6949997
  13.7319992   5.2014990  91.4919997  14.0909992   6.2394990  90.4499997
  14.1546643   5.4327068  90.7710624  15.0089992  10.1874990  76.4559997
  15.0509992   9.9654990  75.5259997  15.8579992  10.5864990  76.6459997
  15.1295253  10.2110510  76.3543804  10.5819992   4.0634990  77.1259997
  10.3279992   4.0824990  78.0489997  10.3249992   3.1924990  76.8249997
  10.5125133   3.9483121  77.2115065   6.3479992   6.8144990  87.5619997
   5.7059992   6.7744990  88.2709997   6.3849992   7.7414990  87.3239997
   6.2651659   6.9342540  87.6268463   6.3449992   7.0354990  82.4739997
   5.4519992   6.6954990  82.4149997   6.7959992   6.6584990  81.7179997
   6.2837185   6.9380220  82.3637698  11.8809992   7.4514990  81.2909997
  11.4719992   8.2664990  80.9989997  12.6009992   7.3114990  80.6759997
  11.9223946   7.5439963  81.1679616  10.9829992   7.6274990  92.7789997
  10.4199992   6.9224990  93.0989997  11.8089992   7.5064990  93.2459997
  11.0176423   7.5145614  92.8860168  12.8849992   6.8974990  84.1049997
  12.6899992   7.5034990  83.3899997  13.0669992   6.0644990  83.6699997
  12.8829272   6.8677955  83.9484075   4.0979992   7.1354990  89.4289997
   4.0599992   7.5354990  90.2969997   3.6069992   6.3184990  89.5189997
   4.0264246   7.0798842  89.5601171   0.7059992   4.2514990  83.2789997
   1.3369992   4.2224990  83.9989997   1.1559992   3.8264990  82.5489997
   0.8530905   4.1900839  83.2787479   1.9799992   4.9974990  78.7029997
   2.4549992   5.5884990  78.1179997   1.2629992   5.5274990  79.0499997
   1.9480406   5.1501011  78.6698495  12.1489992   8.5354990  88.7759997
  12.4729992   7.9044990  88.1329997  11.7089992   8.0014990  89.4369997
  12.1338707   8.3768261  88.7773195   8.9269992   4.4634990  83.5599997
   8.0159992   4.5204990  83.8489997   9.4319992   4.4034990  84.3709997
   8.8706873   4.4631838  83.7091190   3.7549992   6.0924990  82.3869997
   2.8659992   6.1914990  82.0469997   4.0509992   5.2504990  82.0409997
   3.6734001   5.9922473  82.2937318   7.4079992   6.0924990  80.0429997
   8.3399992   6.2214990  80.2209997   7.1929992   6.7614990  79.3939997
   7.5064245   6.2006452  79.9795602  13.3319992   3.6984990  86.8239997
  12.6549992   3.8294990  87.4879997  12.8459992   3.5434990  86.0139997
  13.1737265   3.6954665  86.8053380  16.6189992  19.3694990  93.1009997
  16.8189992  19.7934990  92.2659997  17.2749992  19.7134990  93.7079997
  16.7349916  19.4739784  93.0687890   4.2169992  11.8434990  92.7089997
   4.9489992  12.0984990  93.2699997   3.4369992  12.0484990  93.2239997
   4.2117684  11.9061457  92.8554774  10.2469992   7.2504990  85.4469997
  10.8109992   6.7044990  84.8999997  10.0989992   6.7294990  86.2359997
  10.3043037   7.1051798  85.4787212   5.2489992   3.3874990  81.8649997
   4.9309992   2.4844990  81.8299997   6.0299992   3.3894990  81.3129997
   5.3111560   3.2641148  81.7854975   8.8729992   5.6394990  87.8609997
   8.0379992   6.0934990  87.9709997   9.3969992   5.9154990  88.6129997
   8.8295070   5.7389677  87.9777134   9.4169992  11.8524990  79.5459997
   8.6719992  11.3444990  79.2229997   9.2829992  11.9014990  80.4919997
   9.2968633  11.7895714  79.6297563  16.5669992  10.9854990  88.3319997
  17.2089992  11.4414990  87.7889997  15.7369992  11.0984990  87.8699997
  16.5427352  11.0633223  88.1950234  10.9369992  12.0364990  90.7829997
  10.5909992  11.6544990  91.5889997  10.7369992  12.9694990  90.8539997
  10.8625400  12.1103489  90.9030401  14.0329992   6.5334990  79.4059997
  14.9249992   6.3954990  79.7249997  14.0899992   7.3244990  78.8689997
  14.1627380   6.6214777  79.3770981   4.5419992  11.1474990  85.3149997
   5.2869992  11.1444990  84.7139997   4.6199992  10.3234990  85.7969997
   4.6544158  11.0357928  85.2979136  11.5429992  13.3104990  78.5709997
  11.2479992  14.1374990  78.9529997  10.8399992  12.6914990  78.7669997
  11.4075855  13.3399458  78.6497634   1.5499992   9.6074990  90.6299997
   1.7729992   9.1894990  91.4619997   0.9479992   8.9954990  90.2079997
   1.4990802   9.4675216  90.6867561   8.5669992   9.1244990  92.8429997
   8.2709992   8.9594990  91.9479997   9.4979992   8.9044990  92.8329997
   8.6523909   9.0721274  92.7190110  13.1869992  14.4984990  90.7329997
  12.2859992  14.6814990  90.4649997  13.2209992  14.7574990  91.6539997
  13.0683021  14.5585505  90.8208206  18.9179992   6.7424990  79.0999997
  18.3639992   6.3464990  78.4279997  19.0189992   7.6534990  78.8229997
  18.8557084   6.8113565  78.9704381  18.8809992  12.5434990  91.9369997
  18.0299992  12.7814990  91.5699997  19.4719992  12.5264990  91.1839997
  18.8442468  12.5738251  91.7848902  14.3739992  10.3364990  86.5869997
  13.4459992  10.1054990  86.5599997  14.8249992   9.5594990  86.2569997
  14.3078165  10.1997785  86.5386772   6.9169992  14.6654990  82.7199997
   7.4439992  15.4384990  82.5189997   6.0369992  14.8894990  82.4179997
   6.8701793  14.8016652  82.6516304   2.6719992   9.5274990  77.3069997
   3.2879992  10.1544990  77.6859997   1.8099992   9.8434990  77.5779997
   2.6398195   9.6560810  77.3955369   8.3439992  12.3284990  82.2959997
   8.1029992  13.2534990  82.3379997   7.6039992  11.8694990  82.6919997
   8.2108934  12.3930881  82.3553191   8.8589992  16.4774990  88.6109997
   9.2219992  17.3314990  88.3779997   9.3909992  16.1854990  89.3519997
   8.9805141  16.5548907  88.6792079   7.0269992  17.3494990  81.8409997
   6.0779992  17.4554990  81.8929997   7.3789992  18.1704990  82.1859997
   6.9446214  17.4749361  81.8947317  12.4029992  12.5764990  88.3119997
  11.9769992  12.3484990  89.1379997  12.9839992  11.8374990  88.1289997
  12.4231587  12.4454084  88.4004111  14.6059992  13.5054990  77.3859997
  14.9589992  13.1254990  78.1899997  13.6569992  13.4114990  77.4719997
  14.5260985  13.4407330  77.5077738  15.0619992  17.1284990  90.7809997
  14.4599992  16.5724990  90.2859997  15.3429992  17.7954990  90.1549997
  15.0175757  17.1425755  90.6285657   3.1839992   4.3614990  90.1879997
   2.2909992   4.6994990  90.1209997   3.0849992   3.5054990  90.6059997
   3.0485241   4.2920941  90.2352982  15.4719992  12.1774990  79.6119997
  15.1949992  11.4494990  80.1679997  16.3989992  12.2964990  79.8179997
  15.5594181  12.0940068  79.7158972   2.8349992  16.1654990  88.6229997
   3.0519992  15.2334990  88.5919997   3.0819992  16.4404990  89.5069997
   2.8980543  16.0750877  88.7381412   8.6969992  14.6174990  75.8329997
   8.9359992  13.8684990  75.2849997   8.4279992  14.2294990  76.6649997
   8.6932804  14.4626524  75.8706352   7.6339992  14.1874990  78.2889997
   7.7809992  13.6674990  79.0789997   7.6309992  15.0944990  78.5949997
   7.6537300  14.2388975  78.4385877   4.0869992  11.4394990  78.7989997
   3.4009992  11.7924990  79.3659997   4.6099992  12.2024990  78.5529997
   4.0639033  11.5908757  78.8432644  11.9179992   4.1024990  89.0779997
  12.6169992   4.1764990  89.7279997  11.5379992   3.2374990  89.2329997
  11.9622095   3.9957402  89.1877982  12.7029992   3.7544990  80.1749997
  12.9229992   4.2254990  79.3719997  13.2609992   4.1484990  80.8459997
  12.8085851   3.8723272  80.1556134  10.3719992  15.8844990  79.0379997
   9.5549992  16.3814990  79.0909997  10.9009992  16.3604990  78.3979997
  10.3317898  16.0168123  78.9587274   9.9029992   5.4824990  81.0099997
  10.7149992   5.9864990  81.0559997   9.6579992   5.3374990  81.9239997
   9.9811091   5.5319366  81.1398552  10.4389992   6.4684990  90.1949997
  10.5579992   7.0424990  90.9519997  11.0939992   5.7804990  90.3099997
  10.5438684   6.4540205  90.3141656  10.7869992   2.5634990  81.9479997
  10.4399992   3.1804990  82.5929997  11.4449992   3.0644990  81.4669997
  10.8285290   2.7156384  81.9711635   7.7099992  16.9284990  79.0199997
   7.8709992  17.7284990  78.5189997   7.5129992  17.2354990  79.9049997
   7.7053919  17.0794140  79.0710988  16.6429992   4.3754990  91.0299997
  15.7269992   4.6374990  90.9419997  16.9789992   4.3724990  90.1329997
  16.5629789   4.4109637  90.8967829  15.2449992   8.1254990  85.1259997
  14.4479992   7.7104990  84.7969997  15.6899992   7.4354990  85.6169997
  15.1960317   7.9753197  85.1473556   4.7029992  14.0534990  77.6959997
   5.2949992  14.7534990  77.9719997   5.1619992  13.6204990  76.9769997
   4.8461172  14.0907371  77.6365163   3.0189992   6.7184990  76.8119997
   2.9739992   7.6574990  76.9909997   2.1309992   6.4824990  76.5419997
   2.8928472   6.8151946  76.8000282  16.3319992  17.3814990  86.7479997
  16.1759992  18.0604990  86.0909997  17.2639992  17.4534990  86.9509997
  16.4367328  17.4841586  86.6855529   3.8269992   1.4994990  85.4849997
   3.5979992   1.5584990  84.5579997   3.3839992   0.7084990  85.7919997
   3.7357387   1.4006412  85.3995223   2.7569992  15.4404990  81.6459997
   1.9249992  15.9124990  81.6729997   3.3029992  15.9504990  81.0469997
   2.7168710  15.5740317  81.5687570   2.0459992  18.0524990  92.9759997
   2.5859992  17.8364990  93.7349997   1.5639992  17.2474990  92.7859997
   2.0549101  17.9140216  93.0544364   6.6429992  16.9724990  94.5959997
   7.4109992  16.5134990  94.9369997   6.6219992  16.7464990  93.6659997
   6.7452135  16.8791680  94.5169473  13.2199992  15.3524990  93.3249997
  12.8689992  14.4954990  93.5679997  13.9459992  15.4944990  93.9319997
  13.2701590  15.2545189  93.4402889   1.9529992  11.8634990  93.9299997
   2.0969992  10.9614990  93.6439997   1.1799992  12.1494990  93.4419997
   1.8682854  11.7786876  93.8249363   8.6079992  11.8324990  93.3629997
   8.2799992  12.1034990  92.5049997   8.7599992  10.8914990  93.2749997
   8.5836970  11.7423694  93.2337953  11.6459992  13.2534990  75.7979997
  11.3779992  13.4344990  76.6989997  11.4399992  12.3284990  75.6669997
  11.5814251  13.1531528  75.9036809  14.3429992  11.7484990  90.7459997
  15.0879992  12.3374990  90.6259997  13.5849992  12.3304990  90.8089997
  14.3425185  11.9077000  90.7380940   2.7849992   9.0634990  93.3499997
   3.1929992   8.2064990  93.2289997   2.5249992   9.0774990  94.2709997
   2.8057082   8.9480596  93.4579469   6.7319992   8.0724990  90.7239997
   6.1139992   8.7464990  91.0049997   7.0759992   8.3934990  89.8909997
   6.6938181   8.2083233  90.6498266  11.7519992  10.5434990  94.0019997
  12.7049992  10.6274990  93.9739997  11.5919992   9.8314990  94.6209997
  11.8608161  10.4587198  94.0818689  17.9039992  10.7764990  76.0759997
  17.6309992  10.3524990  75.2629997  17.9439992  11.7084990  75.8589997
  17.8720201  10.8443523  75.9353548   7.0719992   5.4274990  91.8069997
   7.2219992   4.6984990  91.2039997   7.0739992   6.2044990  91.2479997
   7.0927664   5.4328971  91.6490525   7.4839992   3.7964990  89.2989997
   8.0199992   4.2484990  88.6469997   6.6319992   3.6884990  88.8769997
   7.4421648   3.8437883  89.1526395   9.0659992   9.2364990  89.5389997
   9.8169992   9.0804990  88.9659997   8.7269992  10.0884990  89.2629997
   9.1229052   9.3302745  89.4233469  13.4819992   7.0514990  94.5669997
  13.6739992   6.1204990  94.4559997  14.3389992   7.4764990  94.5569997
  13.6242320   6.9814743  94.5504433  14.7979992   9.8404990  92.6449997
  14.5169992  10.5494990  92.0669997  15.7409992   9.7674990  92.4939997
  14.8869272   9.9276704  92.5454976   5.5499992   6.6254990  93.7179997
   4.7829992   6.0924990  93.5079997   6.2289992   6.3154990  93.1189997
   5.5368292   6.5106360  93.6082693   8.2899992   1.2534990  89.7309997
   8.1919992   2.1994990  89.6249997   7.5469992   0.8804990  89.2549997
   8.1762363   1.3325987  89.6522029   9.5539992   5.5744990  93.2939997
   9.3179992   5.3554990  94.1959997   8.7709992   5.3674990  92.7849997
   9.4158444   5.5165688  93.3484518  12.2699992   4.7024990  92.3699997
  11.3219992   4.7344990  92.5019997  12.5819992   4.0764990  93.0239997
  12.1825293   4.6222934  92.4764130  13.9039992   3.3364990  94.3749997
  13.8069992   2.3844990  94.3689997  13.5819992   3.6044990  95.2359997
  13.8472229   3.2424706  94.4905108   3.7309992   4.5454990  93.4229997
   3.9419992   3.8394990  92.8119997   3.6189992   4.1084990  94.2669997
   3.7447674   4.3896376  93.4534199   8.5119992   0.5474990  92.4019997
   9.2229992  -0.0925010  92.3879997   8.4109992   0.8134990  91.4879997
   8.5956732   0.4958451  92.2765475   8.8649992   2.2294990  94.4559997
   8.7339992   1.7544990  93.6349997   8.2659992   2.9744990  94.3999997
   8.7661524   2.2651968  94.3361553   0.6289992  19.1424990  82.1919997
  -0.0180008  18.6804990  81.6589997   0.9839992  18.4704990  82.7749997
   0.5883861  18.9884707  82.1977939   1.4989992  17.2224990  83.9969997
   1.1649992  16.3424990  84.1689997   1.7209992  17.5684990  84.8609997
   1.4832677  17.1487365  84.1374252  19.0479992  18.0324990  86.9769997
  19.0259992  18.2174990  87.9159997  19.7379992  18.6004990  86.6359997
  19.1383439  18.1346898  87.0594774  18.6109992  17.5994990  89.8989997
  18.1239992  16.8634990  89.5279997  19.1599992  17.2054990  90.5769997
  18.6186101  17.4456267  89.9399034  17.0619992  13.3894990  94.5369997
  16.1959992  13.2844990  94.9309997  17.4379992  14.1474990  94.9839997
  16.9943768  13.4776151  94.6513258  18.3629992  11.6454990  80.0509997
  19.2129992  12.0664990  80.1789997  18.3679992  10.9054990  80.6589997
  18.4799745  11.6031347  80.1506479  18.7569992   9.6994990  81.8749997
  18.0309992   9.2194990  82.2729997  19.3379992   9.9044990  82.6069997
  18.7362504   9.6615592  82.0284199  18.5159992  12.4844990  86.8229997
  19.3499992  12.1064990  86.5419997  18.6279992  13.4274990  86.7039997
  18.6451917  12.5602954  86.7684844  17.0019992  15.3624990  89.1299997
  16.3549992  15.6874990  89.7549997  16.4849992  14.9214990  88.4549997
  16.8434068  15.3474726  89.1244918  19.0249992   9.6004990  78.2659997
  18.5039992   9.9564990  77.5469997  18.9919992  10.2754990  78.9439997
  18.9491525   9.7405273  78.2591408  16.5439992   8.2204990  82.4379997
  16.3939992   7.2754990  82.4179997  16.1899992   8.5014990  83.2819997
  16.4756351   8.1291656  82.5493202   1.5789992  10.2984990  86.4479997
   1.7629992  10.2164990  85.5129997   2.4279992  10.1744990  86.8719997
   1.7190259  10.2704915  86.3771771  17.3999992  10.1904990  92.0769997
  17.9829992   9.4554990  92.2679997  17.9639992  10.9624990  92.1229997
  17.5560326  10.1942746  92.1093579  18.8969992   8.0934990  92.7609997
  18.0329992   7.7144990  92.5959997  19.5009992   7.3544990  92.6869997
  18.8604912   7.9417937  92.7284360  16.2539992   5.8024990  80.8999997
  16.5339992   4.8954990  81.0249997  17.0129992   6.2364990  80.5109997
  16.3949471   5.7370654  80.8645052  16.8659992   6.3844990  86.3359997
  17.7989992   6.5964990  86.3019997  16.6309992   6.4854990  87.2589997
  16.9618357   6.4271303  86.4560232  16.8949992   7.1214990  89.1119997
  16.0519992   7.3894990  89.4779997  17.3379992   7.9434990  88.9009997
  16.8394358   7.2693294  89.1335999   1.1759992   5.5684990  92.5889997
   2.0959992   5.4464990  92.8249997   0.7269992   4.8184990  92.9779997
   1.2411561   5.4503720  92.6739015  19.1779992   1.1014990  94.4659997
  19.5279992   0.4474990  93.8599997  19.3249992   1.9384990  94.0259997
  19.2457192   1.1252545  94.3236712  16.8679992   3.0654990  80.9489997
  17.0499992   2.6164990  81.7739997  16.2679992   2.4814990  80.4849997
  16.8118187   2.9250563  80.9992721   2.3979992   3.8814990  85.4799997
   2.8429992   3.0894990  85.7819997   2.8639992   4.5974990  85.9109997
   2.5219059   3.8699485  85.5796061   0.7019992   6.8804990  86.5489997
   1.1939992   6.6594990  85.7589997   1.0639992   7.7204990  86.8299997
   0.8183429   6.9638220  86.4787918  18.6979992   3.2104990  92.8149997
  17.7809992   3.4814990  92.7789997  18.8209992   2.6754990  92.0309997
  18.5890828   3.1752711  92.7040767   1.0149992   3.1384990  80.6039997
   0.0899992   3.3464990  80.4739997   1.4689992   3.6224990  79.9139997
   0.9497401   3.2323895  80.4929433  15.7859992  18.1224990  82.5489997
  16.4379992  17.7744990  81.9409997  16.2969992  18.6104990  83.1949997
  15.9442872  18.1408248  82.5530964   0.9789992   1.8764990  88.9479997
   0.3139992   1.6304990  89.5909997   0.5359992   2.4984990  88.3709997
   0.8281168   1.9269225  88.9579830   3.1709992  15.0514990  93.0919997
   2.3499992  15.2264990  92.6319997   2.9189992  14.9784990  94.0129997
   3.0246173  15.0655806  93.1534954   6.1249992  16.0254990  89.3509997
   5.6999992  16.8354990  89.0679997   7.0289992  16.1114990  89.0489997
   6.1891002  16.1478728  89.2714798  10.4359992  17.4244990  92.3099997
  10.6209992  17.0914990  93.1879997  11.2829992  17.7344990  91.9879997
  10.5757291  17.4208214  92.3866140  12.7809992  18.7104990  91.5539997
  13.4579992  18.0774990  91.3139997  13.1029992  19.1114990  92.3619997
  12.9171280  18.6780638  91.6303190  17.6989992   1.3004990  90.6339997
  16.8859992   1.6254990  90.2459997  17.9319992   0.5394990  90.1009997
  17.6192566   1.2421570  90.5089196   3.5269992  19.2824990  89.3979997
   2.8059992  19.7224990  88.9469997   3.1609992  19.0314990  90.2469997
   3.3789785  19.3087691  89.4509849   5.9939992  18.8824990  88.4279997
   5.1289992  18.9544990  88.8319997   5.9389992  19.4294990  87.6439997
   5.8682066  18.9662678  88.3773371  10.7049992  18.7704990  87.6039997
  10.2479992  19.2994990  86.9499997  10.8669992  19.3734990  88.3289997
  10.6643919  18.9243990  87.6125740  13.0319992  17.6484990  88.5489997
  12.1279992  17.8134990  88.2829997  13.4609992  18.5014990  88.4829997
  12.9662017  17.7864184  88.5036495  15.6359992  19.2184990  88.8439997
  15.4549992  20.1344990  88.6329997  15.8129992  18.8074990  87.9969997
  15.6351377  19.2883365  88.7007178   2.9419992  17.9054990  86.3089997
   2.9229992  17.4794990  87.1659997   3.7459992  17.5864990  85.8999997
   3.0481393  17.8040297  86.3710155   5.0829992  16.6154990  84.9639997
   4.8639992  15.6984990  85.1329997   5.9069992  16.7554990  85.4299997
   5.1644637  16.5089586  85.0501414   7.6199992  17.0854990  85.8119997
   7.8329992  16.1974990  85.5249997   7.6849992  17.0504990  86.7669997
   7.6579075  16.9593318  85.9017355  11.1289992   2.7494990  84.9569997
  10.4539992   2.1194990  85.2119997  11.6929992   2.2654990  84.3539997
  11.1129558   2.5979283  84.9103451  16.2709992   0.8564990  85.0689997
  16.8749992   1.4044990  84.5679997  15.4019992   1.1754990  84.8289997
  16.2361126   0.9747070  84.9679180  17.9979992   1.9954990  83.4029997
  18.6099992   1.4814990  82.8759997  18.3809992   2.8724990  83.4259997
  18.1333867   2.0437613  83.3340888   3.4549992   1.3834990  82.7789997
   2.6779992   1.1484990  82.2709997   3.9859992   0.5864990  82.7879997
   3.4204443   1.2436721  82.7107200   2.2919992   1.1814990  78.5819997
   2.7309992   1.7924990  77.9909997   1.6579992   1.7194990  79.0559997
   2.2664103   1.3379233  78.5651376   8.0349992   1.3094990  82.5919997
   8.9089992   1.6984990  82.5619997   7.8989992   1.0944990  83.5149997
   8.1363125   1.3337120  82.7126523  13.5909992   1.3394990  84.2409997
  13.6679992   1.4354990  83.2919997  13.3159992   0.4324990  84.3699997
  13.5643407   1.2299188  84.1283532  14.9449992   1.3654990  79.9339997
  14.2419992   1.9804990  79.7239997  14.4999992   0.5284990  80.0649997
  14.7886550   1.3364679  79.9229819   9.1789992   3.3904990  79.4819997
   9.3569992   2.7434990  80.1649997   9.1249992   4.2244990  79.9489997
   9.1960678   3.4146615  79.6386283  17.7659992  17.9014990  80.5569997
  17.5719992  17.1534990  79.9919997  17.7269992  18.6594990  79.9729997
  17.7341907  17.9015770  80.4008077   3.4129992   1.8974990  92.2959997
   3.0469992   1.1314990  92.7389997   4.3259992   1.9264990  92.5829997
   3.4863225   1.7966917  92.3953441   5.3859992   1.2474990  93.8319997
   6.2849992   0.9734990  93.6469997   4.9999992   0.5054990  94.2959997
   5.4567237   1.1096520  93.8694693   4.0109992  18.0494990  76.5049997
   3.7429992  18.3354990  77.3779997   4.7819992  17.5034990  76.6569997
   4.0785600  18.0148341  76.6451482  13.8069992   0.5804990  94.0139997
  13.8839992   0.1544990  94.8679997  14.7009992   0.5934990  93.6719997
  13.9383315   0.5240320  94.0845052  16.9839992  16.6524990  92.7069997
  16.2019992  16.4664990  92.1869997  16.9119992  17.5824990  92.9239997
  16.8672975  16.7526973  92.6651822  31.3899992  10.5394990  82.7369997
  31.4789992  11.4834990  82.6049997  30.7509992  10.2644990  82.0789997
  31.3158319  10.6314984  82.6300276  30.3229992   9.7944990  86.1559997
  30.2839992   9.1484990  86.8609997  29.9999992   9.3274990  85.3849997
  30.2740199   9.6430089  86.1482865  22.6909992   9.4084990  87.7489997
  22.7319992   8.7834990  88.4729997  23.3939992  10.0324990  87.9309997
  22.7916054   9.4073262  87.8726311  34.0289992  12.7334990  84.4579997
  33.5879992  12.0134990  84.9079997  34.0159992  13.4544990  85.0879997
  33.9668398  12.7323187  84.6047734  23.6149992  13.8584990  86.2839997
  23.2449992  13.0564990  85.9149997  24.5559992  13.6904990  86.3309997
  23.6915630  13.7258680  86.2397873  20.2249992   7.5184990  81.6769997
  19.7769992   8.3644990  81.6589997  19.6639992   6.9394990  81.1619997
  20.0878546   7.5559004  81.6048874  20.9349992   9.6804990  83.8029997
  21.1489992   8.9104990  84.3299997  21.6729992   9.7704990  83.1999997
  21.0640073   9.5873546  83.7935786  31.1399992  17.8374990  84.6699997
  31.7599992  17.1614990  84.3969997  30.9319992  17.6194990  85.5779997
  31.1967360  17.7154792  84.7554387  28.7119992  12.2264990  86.5619997
  29.0159992  11.5404990  85.9679997  29.4339992  12.3454990  87.1799997
  28.8511152  12.1487201  86.5642106  37.3749992   3.8284990  87.4229997
  37.4239992   4.4384990  88.1589997  37.8009992   4.2894990  86.6999997
  37.4392851   3.9743266  87.4260532  31.8529992   6.6204990  86.8899997
  31.9949992   5.6744990  86.9099997  31.7469992   6.8274990  85.9609997
  31.8581158   6.5189722  86.7672241  25.0079992   4.7224990  84.1619997
  25.0509992   5.5824990  83.7439997  24.5499992   4.1694990  83.5289997
  24.9519613   4.7655689  84.0191276  32.7299992   4.8534990  82.5629997
  33.3759992   4.5244990  83.1879997  33.2399992   5.3704990  81.9399997
  32.8874392   4.8783710  82.5643248  21.6279992   7.1194990  84.9239997
  22.2819992   6.5694990  85.3559997  21.6519992   6.8454990  84.0079997
  21.7207022   7.0072005  84.8591698  26.7839992   8.6694990  84.1399997
  27.3999992   8.1424990  84.6489997  26.1979992   8.0294990  83.7359997
  26.7890652   8.5108919  84.1550277  37.7669992   5.3064990  89.6589997
  37.0779992   5.9644990  89.5639997  37.7819992   5.1084990  90.5959997
  37.6747756   5.3697614  89.7725795  23.8179992   3.6404990  88.2359997
  23.5989992   4.1704990  87.4699997  23.1499992   3.8664990  88.8839997
  23.6977271   3.7436508  88.2186206  31.1869992  13.1404990  81.7799997
  30.8909992  12.8174990  80.9289997  30.8629992  14.0404990  81.8219997
  31.1026501  13.2179058  81.6690893  26.3869992  11.3154990  88.5239997
  25.6469992  11.9144990  88.6269997  27.1009992  11.8694990  88.2079997
  26.3823288  11.4722368  88.4953787  34.4939992   4.1444990  84.5439997
  34.2789992   3.3784990  85.0759997  35.1499992   4.6164990  85.0569997
  34.5532451   4.1034472  84.6861699  23.4119992   5.5324990  86.1889997
  24.0249992   6.1654990  86.5619997  23.9239992   5.0604990  85.5319997
  23.5651680   5.5554006  86.1512830  24.7939992  13.2804990  89.3109997
  24.7889992  14.1594990  88.9329997  23.9409992  13.1964990  89.7359997
  24.6779199  13.3895901  89.3166942  20.9159992  12.9514990  80.0929997
  20.6439992  13.1804990  79.2039997  20.9609992  13.7884990  80.5529997
  20.8848709  13.0961069  80.0336089  34.5409992  14.5724990  86.8059997
  33.5989992  14.6314990  86.9669997  34.8169992  15.4784990  86.6689997
  34.4495771  14.7030270  86.8094827  34.8409992   2.8594990  88.2229997
  34.1049992   3.4694990  88.1849997  35.5249992   3.2744990  87.6969997
  34.8325885   2.9991924  88.1466931  27.8439992   0.9454990  85.6889997
  27.7269992  -0.0025010  85.6349997  26.9889992   1.2784990  85.9619997
  27.7123691   0.8605842  85.7185072  32.7929992  16.3534990  83.4309997
  33.2179992  15.6464990  82.9459997  33.1099992  17.1554990  83.0139997
  32.8940266  16.3650201  83.3082461  33.9519992  14.2544990  81.9399997
  33.6949992  13.5644990  81.3279997  34.0229992  13.8114990  82.7849997
  33.9264322  14.1001568  81.9705372  35.6379992  12.8214990  90.4169997
  35.7779992  12.2294990  89.6779997  35.8059992  13.6944990  90.0609997
  35.6798734  12.8584041  90.2676937  30.1109992   9.7834990  80.1889997
  29.3989992  10.3184990  79.8379997  30.8019992   9.8384990  79.5289997
  30.1068696   9.8642591  80.0516372  30.1649992   8.2404990  77.2279997
  30.8659992   8.2634990  77.8789997  30.4669992   7.6124990  76.5719997
  30.3018282   8.1587350  77.2284478  37.4799992   9.1614990  88.4829997
  36.8279992   9.8554990  88.5719997  37.9449992   9.3714990  87.6729997
  37.4535357   9.2849544  88.3857056  33.5169992   9.9924990  81.1409997
  32.7849992  10.2214990  81.7139997  33.9639992   9.2794990  81.5959997
  33.4772753   9.9273984  81.2809698  33.4139992   8.1674990  90.2089997
  33.4939992   8.9304990  90.7809997  32.8129992   8.4464990  89.5179997
  33.3437115   8.3097707  90.1939631  25.1619992  10.6234990  83.0239997
  24.8319992  10.2524990  82.2049997  25.7499992   9.9524990  83.3699997
  25.1964056  10.4821257  82.9589035  26.5289992  14.0514990  85.7049997
  26.4339992  13.4724990  84.9479997  27.2579992  13.6804990  86.2009997
  26.6146161  13.9220902  85.6685192  25.5289992   9.3914990  86.6569997
  26.0939992   9.5134990  85.8939997  25.8469992  10.0294990  87.2959997
  25.6493430   9.4944448  86.6389094  31.8379992  14.8954990  87.3909997
  31.5969992  15.5574990  88.0389997  31.6399992  14.0604990  87.8159997
  31.7782662  14.8732704  87.5371008  26.4089992  13.7914990  91.3739997
  26.0969992  14.5734990  91.8299997  25.7589992  13.6384990  90.6879997
  26.2784643  13.8778019  91.3436657  32.3879992   9.1554990  78.8259997
  32.9669992   9.3054990  79.5729997  32.8019992   9.6254990  78.1029997
  32.5233122   9.2396288  78.8305024  23.3289992   9.9894990  90.6029997
  23.3989992  10.6404990  91.3009997  22.4379992  10.0924990  90.2679997
  23.2181802  10.0924769  90.6532231  30.1139992  15.8914990  82.2619997
  30.5879992  16.1874990  83.0389997  29.5509992  16.6304990  82.0279997
  30.1028460  16.0318336  82.3367626  24.6479992  15.8624990  92.1379997
  24.6559992  15.7264990  91.1899997  23.7319992  15.7454990  92.3899997
  24.5252512  15.8280664  92.0423179  36.0859992   0.9054990  78.6389997
  35.1859992   1.0434990  78.9339997  36.3379992   1.7364990  78.2369997
  35.9967355   1.0368200  78.6250539  24.1519992   9.6924990  80.6129997
  23.8599992  10.4604990  80.1219997  23.4779992   9.0334990  80.4499997
  24.0208843   9.7084537  80.5237695  20.2449992  12.0554990  89.4279997
  19.7439992  12.0274990  88.6129997  20.2509992  11.1504990  89.7379997
  20.1771690  11.9292234  89.3582770  19.9959992  14.8364990  86.3119997
  20.9419992  14.6914990  86.2929997  19.8829992  15.6204990  86.8489997
  20.1103578  14.9226708  86.3820300  38.1929992  15.5024990  91.9939997
  38.1439992  14.5464990  91.9569997  37.3669992  15.7694990  92.3959997
  38.0745767  15.4078841  92.0433133  29.1719992  15.0764990  90.8699997
  29.2589992  15.9024990  91.3449997  28.3079992  14.7464990  91.1189997
  29.0671944  15.1449871  90.9686558  29.5859992  18.8484990  80.6759997
  29.5109992  18.7274990  79.7299997  29.6189992  19.7974990  80.7949997
  29.5801862  18.9602492  80.5624840  23.2399992  17.6374990  82.4569997
  23.3919992  17.2894990  83.3359997  22.3889992  17.2804990  82.2019997
  23.1457899  17.5416749  82.5427322  32.3569992  17.9284990  80.4279997
  31.4219992  18.0284990  80.6069997  32.6369992  17.2184990  81.0059997
  32.2669270  17.8462300  80.5305984  35.3449992   6.9954990  92.4739997
  34.9379992   7.4754990  91.7539997  35.3859992   6.0894990  92.1669997
  35.2947178   6.9388609  92.3337441  22.4939992  13.3794990  90.4709997
  22.7099992  13.0174990  91.3309997  21.6389992  13.0044990  90.2609997
  22.4079349  13.2792914  90.5602134  25.1129992   1.8494990  86.4669997
  24.2509992   1.7624990  86.0589997  25.0909992   2.7054990  86.8939997
  24.9920953   1.9533558  86.4689262  29.7759992   1.5714990  89.8409997
  30.1959992   1.1564990  90.5939997  28.8429992   1.3924990  89.9579997
  29.7073736   1.4904921  89.9598950  33.1019992   5.3264990  90.6949997
  32.5879992   5.2014990  91.4919997  32.9469992   6.2394990  90.4499997
  33.0106643   5.4327068  90.7710624  25.2039992   6.8144990  87.5619997
  24.5619992   6.7744990  88.2709997  25.2409992   7.7414990  87.3239997
  25.1211659   6.9342540  87.6268463  25.2009992   7.0354990  82.4739997
  24.3079992   6.6954990  82.4149997  25.6519992   6.6584990  81.7179997
  25.1397185   6.9380220  82.3637698  30.7369992   7.4514990  81.2909997
  30.3279992   8.2664990  80.9989997  31.4569992   7.3114990  80.6759997
  30.7783946   7.5439963  81.1679616  29.8389992   7.6274990  92.7789997
  29.2759992   6.9224990  93.0989997  30.6649992   7.5064990  93.2459997
  29.8736423   7.5145614  92.8860168  31.7409992   6.8974990  84.1049997
  31.5459992   7.5034990  83.3899997  31.9229992   6.0644990  83.6699997
  31.7389272   6.8677955  83.9484075  22.9539992   7.1354990  89.4289997
  22.9159992   7.5354990  90.2969997  22.4629992   6.3184990  89.5189997
  22.8824246   7.0798842  89.5601171  19.5619992   4.2514990  83.2789997
  20.1929992   4.2224990  83.9989997  20.0119992   3.8264990  82.5489997
  19.7090905   4.1900839  83.2787479  20.8359992   4.9974990  78.7029997
  21.3109992   5.5884990  78.1179997  20.1189992   5.5274990  79.0499997
  20.8040406   5.1501011  78.6698495  31.0049992   8.5354990  88.7759997
  31.3289992   7.9044990  88.1329997  30.5649992   8.0014990  89.4369997
  30.9898707   8.3768261  88.7773195  27.7829992   4.4634990  83.5599997
  26.8719992   4.5204990  83.8489997  28.2879992   4.4034990  84.3709997
  27.7266873   4.4631838  83.7091190  22.6109992   6.0924990  82.3869997
  21.7219992   6.1914990  82.0469997  22.9069992   5.2504990  82.0409997
  22.5294001   5.9922473  82.2937318  26.2639992   6.0924990  80.0429997
  27.1959992   6.2214990  80.2209997  26.0489992   6.7614990  79.3939997
  26.3624245   6.2006452  79.9795602  32.1879992   3.6984990  86.8239997
  31.5109992   3.8294990  87.4879997  31.7019992   3.5434990  86.0139997
  32.0297265   3.6954665  86.8053380  35.4749992  19.3694990  93.1009997
  35.6749992  19.7934990  92.2659997  36.1309992  19.7134990  93.7079997
  35.5909916  19.4739784  93.0687890  23.0729992  11.8434990  92.7089997
  23.8049992  12.0984990  93.2699997  22.2929992  12.0484990  93.2239997
  23.0677684  11.9061457  92.8554774  29.1029992   7.2504990  85.4469997
  29.6669992   6.7044990  84.8999997  28.9549992   6.7294990  86.2359997
  29.1603037   7.1051798  85.4787212  24.1049992   3.3874990  81.8649997
  23.7869992   2.4844990  81.8299997  24.8859992   3.3894990  81.3129997
  24.1671560   3.2641148  81.7854975  27.7289992   5.6394990  87.8609997
  26.8939992   6.0934990  87.9709997  28.2529992   5.9154990  88.6129997
  27.6855070   5.7389677  87.9777134  28.2729992  11.8524990  79.5459997
  27.5279992  11.3444990  79.2229997  28.1389992  11.9014990  80.4919997
  28.1528633  11.7895714  79.6297563  35.4229992  10.9854990  88.3319997
  36.0649992  11.4414990  87.7889997  34.5929992  11.0984990  87.8699997
  35.3987352  11.0633223  88.1950234  29.7929992  12.0364990  90.7829997
  29.4469992  11.6544990  91.5889997  29.5929992  12.9694990  90.8539997
  29.7185400  12.1103489  90.9030401  32.8889992   6.5334990  79.4059997
  33.7809992   6.3954990  79.7249997  32.9459992   7.3244990  78.8689997
  33.0187380   6.6214777  79.3770981  23.3979992  11.1474990  85.3149997
  24.1429992  11.1444990  84.7139997  23.4759992  10.3234990  85.7969997
  23.5104158  11.0357928  85.2979136  30.3989992  13.3104990  78.5709997
  30.1039992  14.1374990  78.9529997  29.6959992  12.6914990  78.7669997
  30.2635855  13.3399458  78.6497634  20.4059992   9.6074990  90.6299997
  20.6289992   9.1894990  91.4619997  19.8039992   8.9954990  90.2079997
  20.3550802   9.4675216  90.6867561  27.4229992   9.1244990  92.8429997
  27.1269992   8.9594990  91.9479997  28.3539992   8.9044990  92.8329997
  27.5083909   9.0721274  92.7190110  32.0429992  14.4984990  90.7329997
  31.1419992  14.6814990  90.4649997  32.0769992  14.7574990  91.6539997
  31.9243021  14.5585505  90.8208206  37.7739992   6.7424990  79.0999997
  37.2199992   6.3464990  78.4279997  37.8749992   7.6534990  78.8229997
  37.7117084   6.8113565  78.9704381  37.7369992  12.5434990  91.9369997
  36.8859992  12.7814990  91.5699997  38.3279992  12.5264990  91.1839997
  37.7002468  12.5738251  91.7848902  36.0689992  15.5284990  79.5649997
  35.6969992  14.7034990  79.8749997  36.3469992  15.3454990  78.6679997
  36.0555997  15.3906160  79.4861551  33.2299992  10.3364990  86.5869997
  32.3019992  10.1054990  86.5599997  33.6809992   9.5594990  86.2569997
  33.1638165  10.1997785  86.5386772  25.7729992  14.6654990  82.7199997
  26.2999992  15.4384990  82.5189997  24.8929992  14.8894990  82.4179997
  25.7261793  14.8016652  82.6516304  27.1999992  12.3284990  82.2959997
  26.9589992  13.2534990  82.3379997  26.4599992  11.8694990  82.6919997
  27.0668934  12.3930881  82.3553191  27.7149992  16.4774990  88.6109997
  28.0779992  17.3314990  88.3779997  28.2469992  16.1854990  89.3519997
  27.8365141  16.5548907  88.6792079  25.8829992  17.3494990  81.8409997
  24.9339992  17.4554990  81.8929997  26.2349992  18.1704990  82.1859997
  25.8006214  17.4749361  81.8947317  31.2589992  12.5764990  88.3119997
  30.8329992  12.3484990  89.1379997  31.8399992  11.8374990  88.1289997
  31.2791587  12.4454084  88.4004111  33.9179992  17.1284990  90.7809997
  33.3159992  16.5724990  90.2859997  34.1989992  17.7954990  90.1549997
  33.8735757  17.1425755  90.6285657  22.0399992   4.3614990  90.1879997
  21.1469992   4.6994990  90.1209997  21.9409992   3.5054990  90.6059997
  21.9045241   4.2920941  90.2352982  34.3279992  12.1774990  79.6119997
  34.0509992  11.4494990  80.1679997  35.2549992  12.2964990  79.8179997
  34.4154181  12.0940068  79.7158972  21.6909992  16.1654990  88.6229997
  21.9079992  15.2334990  88.5919997  21.9379992  16.4404990  89.5069997
  21.7540543  16.0750877  88.7381412  27.5529992  14.6174990  75.8329997
  27.7919992  13.8684990  75.2849997  27.2839992  14.2294990  76.6649997
  27.5492804  14.4626524  75.8706352  26.4899992  14.1874990  78.2889997
  26.6369992  13.6674990  79.0789997  26.4869992  15.0944990  78.5949997
  26.5097300  14.2388975  78.4385877  22.9429992  11.4394990  78.7989997
  22.2569992  11.7924990  79.3659997  23.4659992  12.2024990  78.5529997
  22.9199033  11.5908757  78.8432644  30.7739992   4.1024990  89.0779997
  31.4729992   4.1764990  89.7279997  30.3939992   3.2374990  89.2329997
  30.8182095   3.9957402  89.1877982  31.5589992   3.7544990  80.1749997
  31.7789992   4.2254990  79.3719997  32.1169992   4.1484990  80.8459997
  31.6645851   3.8723272  80.1556134  29.2279992  15.8844990  79.0379997
  28.4109992  16.3814990  79.0909997  29.7569992  16.3604990  78.3979997
  29.1877898  16.0168123  78.9587274  28.7589992   5.4824990  81.0099997
  29.5709992   5.9864990  81.0559997  28.5139992   5.3374990  81.9239997
  28.8371091   5.5319366  81.1398552  29.2949992   6.4684990  90.1949997
  29.4139992   7.0424990  90.9519997  29.9499992   5.7804990  90.3099997
  29.3998684   6.4540205  90.3141656  29.6429992   2.5634990  81.9479997
  29.2959992   3.1804990  82.5929997  30.3009992   3.0644990  81.4669997
  29.6845290   2.7156384  81.9711635  26.5659992  16.9284990  79.0199997
  26.7269992  17.7284990  78.5189997  26.3689992  17.2354990  79.9049997
  26.5613919  17.0794140  79.0710988  25.2999992   3.6264990  78.6359997
  25.2169992   4.5144990  78.9819997  26.1899992   3.3614990  78.8669997
  25.4089751   3.7122482  78.7146066  35.4989992   4.3754990  91.0299997
  34.5829992   4.6374990  90.9419997  35.8349992   4.3724990  90.1329997
  35.4189789   4.4109637  90.8967829  34.1009992   8.1254990  85.1259997
  33.3039992   7.7104990  84.7969997  34.5459992   7.4354990  85.6169997
  34.0520317   7.9753197  85.1473556  23.5589992  14.0534990  77.6959997
  24.1509992  14.7534990  77.9719997  24.0179992  13.6204990  76.9769997
  23.7021172  14.0907371  77.6365163  35.1879992  17.3814990  86.7479997
  35.0319992  18.0604990  86.0909997  36.1199992  17.4534990  86.9509997
  35.2927328  17.4841586  86.6855529  22.6829992   1.4994990  85.4849997
  22.4539992   1.5584990  84.5579997  22.2399992   0.7084990  85.7919997
  22.5917387   1.4006412  85.3995223  21.6129992  15.4404990  81.6459997
  20.7809992  15.9124990  81.6729997  22.1589992  15.9504990  81.0469997
  21.5728710  15.5740317  81.5687570  20.9019992  18.0524990  92.9759997
  21.4419992  17.8364990  93.7349997  20.4199992  17.2474990  92.7859997
  20.9109101  17.9140216  93.0544364  25.4989992  16.9724990  94.5959997
  26.2669992  16.5134990  94.9369997  25.4779992  16.7464990  93.6659997
  25.6012135  16.8791680  94.5169473  32.0759992  15.3524990  93.3249997
  31.7249992  14.4954990  93.5679997  32.8019992  15.4944990  93.9319997
  32.1261590  15.2545189  93.4402889  20.8089992  11.8634990  93.9299997
  20.9529992  10.9614990  93.6439997  20.0359992  12.1494990  93.4419997
  20.7242854  11.7786876  93.8249363  27.4639992  11.8324990  93.3629997
  27.1359992  12.1034990  92.5049997  27.6159992  10.8914990  93.2749997
  27.4396970  11.7423694  93.2337953  33.1989992  11.7484990  90.7459997
  33.9439992  12.3374990  90.6259997  32.4409992  12.3304990  90.8089997
  33.1985185  11.9077000  90.7380940  21.6409992   9.0634990  93.3499997
  22.0489992   8.2064990  93.2289997  21.3809992   9.0774990  94.2709997
  21.6617082   8.9480596  93.4579469  25.5879992   8.0724990  90.7239997
  24.9699992   8.7464990  91.0049997  25.9319992   8.3934990  89.8909997
  25.5498181   8.2083233  90.6498266  30.6079992  10.5434990  94.0019997
  31.5609992  10.6274990  93.9739997  30.4479992   9.8314990  94.6209997
  30.7168161  10.4587198  94.0818689  25.9279992   5.4274990  91.8069997
  26.0779992   4.6984990  91.2039997  25.9299992   6.2044990  91.2479997
  25.9487664   5.4328971  91.6490525  26.3399992   3.7964990  89.2989997
  26.8759992   4.2484990  88.6469997  25.4879992   3.6884990  88.8769997
  26.2981648   3.8437883  89.1526395  27.9219992   9.2364990  89.5389997
  28.6729992   9.0804990  88.9659997  27.5829992  10.0884990  89.2629997
  27.9789052   9.3302745  89.4233469  32.3379992   7.0514990  94.5669997
  32.5299992   6.1204990  94.4559997  33.1949992   7.4764990  94.5569997
  32.4802320   6.9814743  94.5504433  33.6539992   9.8404990  92.6449997
  33.3729992  10.5494990  92.0669997  34.5969992   9.7674990  92.4939997
  33.7429272   9.9276704  92.5454976  24.4059992   6.6254990  93.7179997
  23.6389992   6.0924990  93.5079997  25.0849992   6.3154990  93.1189997
  24.3928292   6.5106360  93.6082693  27.1459992   1.2534990  89.7309997
  27.0479992   2.1994990  89.6249997  26.4029992   0.8804990  89.2549997
  27.0322363   1.3325987  89.6522029  28.4099992   5.5744990  93.2939997
  28.1739992   5.3554990  94.1959997  27.6269992   5.3674990  92.7849997
  28.2718444   5.5165688  93.3484518  31.1259992   4.7024990  92.3699997
  30.1779992   4.7344990  92.5019997  31.4379992   4.0764990  93.0239997
  31.0385293   4.6222934  92.4764130  32.7599992   3.3364990  94.3749997
  32.6629992   2.3844990  94.3689997  32.4379992   3.6044990  95.2359997
  32.7032229   3.2424706  94.4905108  22.5869992   4.5454990  93.4229997
  22.7979992   3.8394990  92.8119997  22.4749992   4.1084990  94.2669997
  22.6007674   4.3896376  93.4534199  27.3679992   0.5474990  92.4019997
  28.0789992  -0.0925010  92.3879997  27.2669992   0.8134990  91.4879997
  27.4516732   0.4958451  92.2765475  27.7209992   2.2294990  94.4559997
  27.5899992   1.7544990  93.6349997  27.1219992   2.9744990  94.3999997
  27.6221524   2.2651968  94.3361553  19.4849992  19.1424990  82.1919997
  18.8379992  18.6804990  81.6589997  19.8399992  18.4704990  82.7749997
  19.4443861  18.9884707  82.1977939  20.3549992  17.2224990  83.9969997
  20.0209992  16.3424990  84.1689997  20.5769992  17.5684990  84.8609997
  20.3392677  17.1487365  84.1374252  37.9039992  18.0324990  86.9769997
  37.8819992  18.2174990  87.9159997  38.5939992  18.6004990  86.6359997
  37.9943439  18.1346898  87.0594774  37.4669992  17.5994990  89.8989997
  36.9799992  16.8634990  89.5279997  38.0159992  17.2054990  90.5769997
  37.4746101  17.4456267  89.9399034  35.9179992  13.3894990  94.5369997
  35.0519992  13.2844990  94.9309997  36.2939992  14.1474990  94.9839997
  35.8503768  13.4776151  94.6513258  37.2189992  11.6454990  80.0509997
  38.0689992  12.0664990  80.1789997  37.2239992  10.9054990  80.6589997
  37.3359745  11.6031347  80.1506479  37.6129992   9.6994990  81.8749997
  36.8869992   9.2194990  82.2729997  38.1939992   9.9044990  82.6069997
  37.5922504   9.6615592  82.0284199  37.3719992  12.4844990  86.8229997
  38.2059992  12.1064990  86.5419997  37.4839992  13.4274990  86.7039997
  37.5011917  12.5602954  86.7684844  35.8579992  15.3624990  89.1299997
  35.2109992  15.6874990  89.7549997  35.3409992  14.9214990  88.4549997
  35.6994068  15.3474726  89.1244918  35.3999992   8.2204990  82.4379997
  35.2499992   7.2754990  82.4179997  35.0459992   8.5014990  83.2819997
  35.3316351   8.1291656  82.5493202  20.4349992  10.2984990  86.4479997
  20.6189992  10.2164990  85.5129997  21.2839992  10.1744990  86.8719997
  20.5750259  10.2704915  86.3771771  36.2559992  10.1904990  92.0769997
  36.8389992   9.4554990  92.2679997  36.8199992  10.9624990  92.1229997
  36.4120326  10.1942746  92.1093579  37.7529992   8.0934990  92.7609997
  36.8889992   7.7144990  92.5959997  38.3569992   7.3544990  92.6869997
  37.7164912   7.9417937  92.7284360  35.1099992   5.8024990  80.8999997
  35.3899992   4.8954990  81.0249997  35.8689992   6.2364990  80.5109997
  35.2509471   5.7370654  80.8645052  35.7219992   6.3844990  86.3359997
  36.6549992   6.5964990  86.3019997  35.4869992   6.4854990  87.2589997
  35.8178357   6.4271303  86.4560232  35.7509992   7.1214990  89.1119997
  34.9079992   7.3894990  89.4779997  36.1939992   7.9434990  88.9009997
  35.6954358   7.2693294  89.1335999  20.0319992   5.5684990  92.5889997
  20.9519992   5.4464990  92.8249997  19.5829992   4.8184990  92.9779997
  20.0971561   5.4503720  92.6739015  38.0339992   1.1014990  94.4659997
  38.3839992   0.4474990  93.8599997  38.1809992   1.9384990  94.0259997
  38.1017192   1.1252545  94.3236712  35.7239992   3.0654990  80.9489997
  35.9059992   2.6164990  81.7739997  35.1239992   2.4814990  80.4849997
  35.6678187   2.9250563  80.9992721  21.2539992   3.8814990  85.4799997
  21.6989992   3.0894990  85.7819997  21.7199992   4.5974990  85.9109997
  21.3779059   3.8699485  85.5796061  19.5579992   6.8804990  86.5489997
  20.0499992   6.6594990  85.7589997  19.9199992   7.7204990  86.8299997
  19.6743428   6.9638220  86.4787918  37.5539992   3.2104990  92.8149997
  36.6369992   3.4814990  92.7789997  37.6769992   2.6754990  92.0309997
  37.4450828   3.1752711  92.7040767  37.5899992   3.1334990  77.4769997
  38.0029992   2.4124990  77.0009997  38.2719992   3.8024990  77.5349997
  37.7385712   3.1254304  77.4198247  19.8709992   3.1384990  80.6039997
  18.9459992   3.3464990  80.4739997  20.3249992   3.6224990  79.9139997
  19.8057401   3.2323895  80.4929433  34.6419992  18.1224990  82.5489997
  35.2939992  17.7744990  81.9409997  35.1529992  18.6104990  83.1949997
  34.8002872  18.1408248  82.5530964  19.8349992   1.8764990  88.9479997
  19.1699992   1.6304990  89.5909997  19.3919992   2.4984990  88.3709997
  19.6841168   1.9269225  88.9579830  22.0269992  15.0514990  93.0919997
  21.2059992  15.2264990  92.6319997  21.7749992  14.9784990  94.0129997
  21.8806173  15.0655806  93.1534954  24.9809992  16.0254990  89.3509997
  24.5559992  16.8354990  89.0679997  25.8849992  16.1114990  89.0489997
  25.0451002  16.1478728  89.2714798  29.2919992  17.4244990  92.3099997
  29.4769992  17.0914990  93.1879997  30.1389992  17.7344990  91.9879997
  29.4317291  17.4208214  92.3866140  31.6369992  18.7104990  91.5539997
  32.3139992  18.0774990  91.3139997  31.9589992  19.1114990  92.3619997
  31.7731280  18.6780638  91.6303190  36.5549992   1.3004990  90.6339997
  35.7419992   1.6254990  90.2459997  36.7879992   0.5394990  90.1009997
  36.4752566   1.2421570  90.5089196  22.3829992  19.2824990  89.3979997
  21.6619992  19.7224990  88.9469997  22.0169992  19.0314990  90.2469997
  22.2349785  19.3087691  89.4509849  24.8499992  18.8824990  88.4279997
  23.9849992  18.9544990  88.8319997  24.7949992  19.4294990  87.6439997
  24.7242066  18.9662678  88.3773371  29.5609992  18.7704990  87.6039997
  29.1039992  19.2994990  86.9499997  29.7229992  19.3734990  88.3289997
  29.5203919  18.9243990  87.6125740  31.8879992  17.6484990  88.5489997
  30.9839992  17.8134990  88.2829997  32.3169992  18.5014990  88.4829997
  31.8222017  17.7864184  88.5036495  34.4919992  19.2184990  88.8439997
  34.3109992  20.1344990  88.6329997  34.6689992  18.8074990  87.9969997
  34.4911377  19.2883365  88.7007178  21.7979992  17.9054990  86.3089997
  21.7789992  17.4794990  87.1659997  22.6019992  17.5864990  85.8999997
  21.9041393  17.8040297  86.3710155  23.9389992  16.6154990  84.9639997
  23.7199992  15.6984990  85.1329997  24.7629992  16.7554990  85.4299997
  24.0204637  16.5089586  85.0501414  26.4759992  17.0854990  85.8119997
  26.6889992  16.1974990  85.5249997  26.5409992  17.0504990  86.7669997
  26.5139075  16.9593318  85.9017355  29.9849992   2.7494990  84.9569997
  29.3099992   2.1194990  85.2119997  30.5489992   2.2654990  84.3539997
  29.9689558   2.5979283  84.9103451  35.1269992   0.8564990  85.0689997
  35.7309992   1.4044990  84.5679997  34.2579992   1.1754990  84.8289997
  35.0921126   0.9747070  84.9679180  36.8539992   1.9954990  83.4029997
  37.4659992   1.4814990  82.8759997  37.2369992   2.8724990  83.4259997
  36.9893867   2.0437613  83.3340888  22.3109992   1.3834990  82.7789997
  21.5339992   1.1484990  82.2709997  22.8419992   0.5864990  82.7879997
  22.2764443   1.2436721  82.7107200  21.1479992   1.1814990  78.5819997
  21.5869992   1.7924990  77.9909997  20.5139992   1.7194990  79.0559997
  21.1224104   1.3379233  78.5651376  26.8909992   1.3094990  82.5919997
  27.7649992   1.6984990  82.5619997  26.7549992   1.0944990  83.5149997
  26.9923125   1.3337120  82.7126523  32.4469992   1.3394990  84.2409997
  32.5239992   1.4354990  83.2919997  32.1719992   0.4324990  84.3699997
  32.4203407   1.2299188  84.1283532  33.8009992   1.3654990  79.9339997
  33.0979992   1.9804990  79.7239997  33.3559992   0.5284990  80.0649997
  33.6446550   1.3364679  79.9229819  21.0489992  17.1294990  79.4799997
  20.3639992  17.0914990  78.8119997  21.0519992  18.0414990  79.7679997
  20.9557358  17.2476744  79.4276145  23.0089992   3.0974990  77.0249997
  23.4999992   2.4674990  76.4969997  23.6319992   3.3934990  77.6879997
  23.1605459   3.0512419  77.0423667  28.0349992   3.3904990  79.4819997
  28.2129992   2.7434990  80.1649997  27.9809992   4.2244990  79.9489997
  28.0520678   3.4146615  79.6386283  36.6219992  17.9014990  80.5569997
  36.4279992  17.1534990  79.9919997  36.5829992  18.6594990  79.9729997
  36.5901907  17.9015770  80.4008077  22.2689992   1.8974990  92.2959997
  21.9029992   1.1314990  92.7389997  23.1819992   1.9264990  92.5829997
  22.3423225   1.7966917  92.3953441  24.2419992   1.2474990  93.8319997
  25.1409992   0.9734990  93.6469997  23.8559992   0.5054990  94.2959997
  24.3127237   1.1096520  93.8694693  32.6629992   0.5804990  94.0139997
  32.7399992   0.1544990  94.8679997  33.5569992   0.5934990  93.6719997
  32.7943315   0.5240320  94.0845052  35.8399992  16.6524990  92.7069997
  35.0579992  16.4664990  92.1869997  35.7679992  17.5824990  92.9239997
  35.7232975  16.7526973  92.6651822  50.2459992  10.5394990  82.7369997
  50.3349992  11.4834990  82.6049997  49.6069992  10.2644990  82.0789997
  50.1718319  10.6314984  82.6300276  49.1789992   9.7944990  86.1559997
  49.1399992   9.1484990  86.8609997  48.8559992   9.3274990  85.3849997
  49.1300199   9.6430089  86.1482865  41.5469992   9.4084990  87.7489997
  41.5879992   8.7834990  88.4729997  42.2499992  10.0324990  87.9309997
  41.6476054   9.4073262  87.8726311  52.8849992  12.7334990  84.4579997
  52.4439992  12.0134990  84.9079997  52.8719992  13.4544990  85.0879997
  52.8228398  12.7323187  84.6047734  42.4709992  13.8584990  86.2839997
  42.1009992  13.0564990  85.9149997  43.4119992  13.6904990  86.3309997
  42.5475630  13.7258680  86.2397873  39.0809992   7.5184990  81.6769997
  38.6329992   8.3644990  81.6589997  38.5199992   6.9394990  81.1619997
  38.9438546   7.5559004  81.6048874  39.7909992   9.6804990  83.8029997
  40.0049992   8.9104990  84.3299997  40.5289992   9.7704990  83.1999997
  39.9200073   9.5873546  83.7935786  49.9959992  17.8374990  84.6699997
  50.6159992  17.1614990  84.3969997  49.7879992  17.6194990  85.5779997
  50.0527360  17.7154792  84.7554387  47.5679992  12.2264990  86.5619997
  47.8719992  11.5404990  85.9679997  48.2899992  12.3454990  87.1799997
  47.7071152  12.1487201  86.5642106  56.2309992   3.8284990  87.4229997
  56.2799992   4.4384990  88.1589997  56.6569992   4.2894990  86.6999997
  56.2952851   3.9743266  87.4260532  50.7089992   6.6204990  86.8899997
  50.8509992   5.6744990  86.9099997  50.6029992   6.8274990  85.9609997
  50.7141158   6.5189722  86.7672241  43.8639992   4.7224990  84.1619997
  43.9069992   5.5824990  83.7439997  43.4059992   4.1694990  83.5289997
  43.8079613   4.7655689  84.0191276  51.5859992   4.8534990  82.5629997
  52.2319992   4.5244990  83.1879997  52.0959992   5.3704990  81.9399997
  51.7434392   4.8783710  82.5643248  40.4839992   7.1194990  84.9239997
  41.1379992   6.5694990  85.3559997  40.5079992   6.8454990  84.0079997
  40.5767022   7.0072005  84.8591698  45.6399992   8.6694990  84.1399997
  46.2559992   8.1424990  84.6489997  45.0539992   8.0294990  83.7359997
  45.6450652   8.5108919  84.1550277  56.6229992   5.3064990  89.6589997
  55.9339992   5.9644990  89.5639997  56.6379992   5.1084990  90.5959997
  56.5307756   5.3697614  89.7725795  42.6739992   3.6404990  88.2359997
  42.4549992   4.1704990  87.4699997  42.0059992   3.8664990  88.8839997
  42.5537271   3.7436508  88.2186206  50.0429992  13.1404990  81.7799997
  49.7469992  12.8174990  80.9289997  49.7189992  14.0404990  81.8219997
  49.9586501  13.2179058  81.6690893  45.2429992  11.3154990  88.5239997
  44.5029992  11.9144990  88.6269997  45.9569992  11.8694990  88.2079997
  45.2383288  11.4722368  88.4953787  53.3499992   4.1444990  84.5439997
  53.1349992   3.3784990  85.0759997  54.0059992   4.6164990  85.0569997
  53.4092451   4.1034472  84.6861699  42.2679992   5.5324990  86.1889997
  42.8809992   6.1654990  86.5619997  42.7799992   5.0604990  85.5319997
  42.4211680   5.5554006  86.1512830  43.6499992  13.2804990  89.3109997
  43.6449992  14.1594990  88.9329997  42.7969992  13.1964990  89.7359997
  43.5339199  13.3895901  89.3166942  39.7719992  12.9514990  80.0929997
  39.4999992  13.1804990  79.2039997  39.8169992  13.7884990  80.5529997
  39.7408709  13.0961069  80.0336089  53.3969992  14.5724990  86.8059997
  52.4549992  14.6314990  86.9669997  53.6729992  15.4784990  86.6689997
  53.3055771  14.7030270  86.8094827  53.6969992   2.8594990  88.2229997
  52.9609992   3.4694990  88.1849997  54.3809992   3.2744990  87.6969997
  53.6885885   2.9991924  88.1466931  46.6999992   0.9454990  85.6889997
  46.5829992  -0.0025010  85.6349997  45.8449992   1.2784990  85.9619997
  46.5683691   0.8605842  85.7185072  51.6489992  16.3534990  83.4309997
  52.0739992  15.6464990  82.9459997  51.9659992  17.1554990  83.0139997
  51.7500266  16.3650201  83.3082461  52.8079992  14.2544990  81.9399997
  52.5509992  13.5644990  81.3279997  52.8789992  13.8114990  82.7849997
  52.7824322  14.1001568  81.9705372  54.4939992  12.8214990  90.4169997
  54.6339992  12.2294990  89.6779997  54.6619992  13.6944990  90.0609997
  54.5358734  12.8584041  90.2676937  48.9669992   9.7834990  80.1889997
  48.2549992  10.3184990  79.8379997  49.6579992   9.8384990  79.5289997
  48.9628696   9.8642591  80.0516372  56.3359992   9.1614990  88.4829997
  55.6839992   9.8554990  88.5719997  56.8009992   9.3714990  87.6729997
  56.3095357   9.2849544  88.3857056  52.3729992   9.9924990  81.1409997
  51.6409992  10.2214990  81.7139997  52.8199992   9.2794990  81.5959997
  52.3332753   9.9273984  81.2809698  52.2699992   8.1674990  90.2089997
  52.3499992   8.9304990  90.7809997  51.6689992   8.4464990  89.5179997
  52.1997115   8.3097707  90.1939631  44.0179992  10.6234990  83.0239997
  43.6879992  10.2524990  82.2049997  44.6059992   9.9524990  83.3699997
  44.0524056  10.4821257  82.9589035  45.3849992  14.0514990  85.7049997
  45.2899992  13.4724990  84.9479997  46.1139992  13.6804990  86.2009997
  45.4706161  13.9220902  85.6685192  44.3849992   9.3914990  86.6569997
  44.9499992   9.5134990  85.8939997  44.7029992  10.0294990  87.2959997
  44.5053430   9.4944448  86.6389094  50.6939992  14.8954990  87.3909997
  50.4529992  15.5574990  88.0389997  50.4959992  14.0604990  87.8159997
  50.6342662  14.8732704  87.5371008  45.2649992  13.7914990  91.3739997
  44.9529992  14.5734990  91.8299997  44.6149992  13.6384990  90.6879997
  45.1344643  13.8778019  91.3436657  51.2439992   9.1554990  78.8259997
  51.8229992   9.3054990  79.5729997  51.6579992   9.6254990  78.1029997
  51.3793122   9.2396288  78.8305024  42.1849992   9.9894990  90.6029997
  42.2549992  10.6404990  91.3009997  41.2939992  10.0924990  90.2679997
  42.0741802  10.0924769  90.6532231  48.9699992  15.8914990  82.2619997
  49.4439992  16.1874990  83.0389997  48.4069992  16.6304990  82.0279997
  48.9588460  16.0318336  82.3367626  43.5039992  15.8624990  92.1379997
  43.5119992  15.7264990  91.1899997  42.5879992  15.7454990  92.3899997
  43.3812512  15.8280663  92.0423179  43.0079992   9.6924990  80.6129997
  42.7159992  10.4604990  80.1219997  42.3339992   9.0334990  80.4499997
  42.8768843   9.7084537  80.5237695  39.1009992  12.0554990  89.4279997
  38.5999992  12.0274990  88.6129997  39.1069992  11.1504990  89.7379997
  39.0331690  11.9292234  89.3582770  38.8519992  14.8364990  86.3119997
  39.7979992  14.6914990  86.2929997  38.7389992  15.6204990  86.8489997
  38.9663578  14.9226708  86.3820300  57.0489992  15.5024990  91.9939997
  56.9999992  14.5464990  91.9569997  56.2229992  15.7694990  92.3959997
  56.9305767  15.4078841  92.0433133  48.0279992  15.0764990  90.8699997
  48.1149992  15.9024990  91.3449997  47.1639992  14.7464990  91.1189997
  47.9231944  15.1449871  90.9686558  48.4419992  18.8484990  80.6759997
  48.3669992  18.7274990  79.7299997  48.4749992  19.7974990  80.7949997
  48.4361862  18.9602492  80.5624840  42.0959992  17.6374990  82.4569997
  42.2479992  17.2894990  83.3359997  41.2449992  17.2804990  82.2019997
  42.0017899  17.5416749  82.5427322  51.2129992  17.9284990  80.4279997
  50.2779992  18.0284990  80.6069997  51.4929992  17.2184990  81.0059997
  51.1229270  17.8462300  80.5305984  54.2009992   6.9954990  92.4739997
  53.7939992   7.4754990  91.7539997  54.2419992   6.0894990  92.1669997
  54.1507178   6.9388609  92.3337441  41.3499992  13.3794990  90.4709997
  41.5659992  13.0174990  91.3309997  40.4949992  13.0044990  90.2609997
  41.2639349  13.2792914  90.5602134  43.9689992   1.8494990  86.4669997
  43.1069992   1.7624990  86.0589997  43.9469992   2.7054990  86.8939997
  43.8480953   1.9533558  86.4689262  48.6319992   1.5714990  89.8409997
  49.0519992   1.1564990  90.5939997  47.6989992   1.3924990  89.9579997
  48.5633736   1.4904921  89.9598950  51.9579992   5.3264990  90.6949997
  51.4439992   5.2014990  91.4919997  51.8029992   6.2394990  90.4499997
  51.8666643   5.4327068  90.7710624  44.0599992   6.8144990  87.5619997
  43.4179992   6.7744990  88.2709997  44.0969992   7.7414990  87.3239997
  43.9771659   6.9342540  87.6268463  44.0569992   7.0354990  82.4739997
  43.1639992   6.6954990  82.4149997  44.5079992   6.6584990  81.7179997
  43.9957185   6.9380220  82.3637698  49.5929992   7.4514990  81.2909997
  49.1839992   8.2664990  80.9989997  50.3129992   7.3114990  80.6759997
  49.6343946   7.5439963  81.1679616  48.6949992   7.6274990  92.7789997
  48.1319992   6.9224990  93.0989997  49.5209992   7.5064990  93.2459997
  48.7296423   7.5145614  92.8860168  50.5969992   6.8974990  84.1049997
  50.4019992   7.5034990  83.3899997  50.7789992   6.0644990  83.6699997
  50.5949272   6.8677955  83.9484075  41.8099992   7.1354990  89.4289997
  41.7719992   7.5354990  90.2969997  41.3189992   6.3184990  89.5189997
  41.7384246   7.0798842  89.5601171  45.1759992   4.5094990  76.2269997
  44.7449992   4.0644990  76.9569997  44.4579992   4.8804990  75.7149997
  45.0199363   4.4987979  76.2576194  38.4179992   4.2514990  83.2789997
  39.0489992   4.2224990  83.9989997  38.8679992   3.8264990  82.5489997
  38.5650905   4.1900839  83.2787479  39.6919992   4.9974990  78.7029997
  40.1669992   5.5884990  78.1179997  38.9749992   5.5274990  79.0499997
  39.6600406   5.1501011  78.6698495  49.8609992   8.5354990  88.7759997
  50.1849992   7.9044990  88.1329997  49.4209992   8.0014990  89.4369997
  49.8458707   8.3768261  88.7773195  46.6389992   4.4634990  83.5599997
  45.7279992   4.5204990  83.8489997  47.1439992   4.4034990  84.3709997
  46.5826873   4.4631838  83.7091190  41.4669992   6.0924990  82.3869997
  40.5779992   6.1914990  82.0469997  41.7629992   5.2504990  82.0409997
  41.3854001   5.9922473  82.2937318  45.1199992   6.0924990  80.0429997
  46.0519992   6.2214990  80.2209997  44.9049992   6.7614990  79.3939997
  45.2184245   6.2006452  79.9795602  51.0439992   3.6984990  86.8239997
  50.3669992   3.8294990  87.4879997  50.5579992   3.5434990  86.0139997
  50.8857265   3.6954665  86.8053380  43.7939992   7.2864990  77.6099997
  43.2519992   6.9074990  76.9189997  44.6279992   7.4814990  77.1809997
  43.8324283   7.2609383  77.4574298  54.3309992  19.3694990  93.1009997
  54.5309992  19.7934990  92.2659997  54.9869992  19.7134990  93.7079997
  54.4469916  19.4739784  93.0687890  41.9289992  11.8434990  92.7089997
  42.6609992  12.0984990  93.2699997  41.1489992  12.0484990  93.2239997
  41.9237684  11.9061457  92.8554774  47.9589992   7.2504990  85.4469997
  48.5229992   6.7044990  84.8999997  47.8109992   6.7294990  86.2359997
  48.0163037   7.1051798  85.4787212  42.9609992   3.3874990  81.8649997
  42.6429992   2.4844990  81.8299997  43.7419992   3.3894990  81.3129997
  43.0231560   3.2641148  81.7854975  46.5849992   5.6394990  87.8609997
  45.7499992   6.0934990  87.9709997  47.1089992   5.9154990  88.6129997
  46.5415070   5.7389677  87.9777134  47.1289992  11.8524990  79.5459997
  46.3839992  11.3444990  79.2229997  46.9949992  11.9014990  80.4919997
  47.0088633  11.7895714  79.6297563  54.2789992  10.9854990  88.3319997
  54.9209992  11.4414990  87.7889997  53.4489992  11.0984990  87.8699997
  54.2547352  11.0633223  88.1950234  48.6489992  12.0364990  90.7829997
  48.3029992  11.6544990  91.5889997  48.4489992  12.9694990  90.8539997
  48.5745400  12.1103489  90.9030401  51.7449992   6.5334990  79.4059997
  52.6369992   6.3954990  79.7249997  51.8019992   7.3244990  78.8689997
  51.8747380   6.6214777  79.3770981  42.2539992  11.1474990  85.3149997
  42.9989992  11.1444990  84.7139997  42.3319992  10.3234990  85.7969997
  42.3664158  11.0357928  85.2979136  49.2549992  13.3104990  78.5709997
  48.9599992  14.1374990  78.9529997  48.5519992  12.6914990  78.7669997
  49.1195855  13.3399458  78.6497634  39.2619992   9.6074990  90.6299997
  39.4849992   9.1894990  91.4619997  38.6599992   8.9954990  90.2079997
  39.2110802   9.4675216  90.6867561  46.2789992   9.1244990  92.8429997
  45.9829992   8.9594990  91.9479997  47.2099992   8.9044990  92.8329997
  46.3643909   9.0721274  92.7190110  50.8989992  14.4984990  90.7329997
  49.9979992  14.6814990  90.4649997  50.9329992  14.7574990  91.6539997
  50.7803021  14.5585505  90.8208206  56.6299992   6.7424990  79.0999997
  56.0759992   6.3464990  78.4279997  56.7309992   7.6534990  78.8229997
  56.5677084   6.8113565  78.9704381  56.5929992  12.5434990  91.9369997
  55.7419992  12.7814990  91.5699997  57.1839992  12.5264990  91.1839997
  56.5562468  12.5738251  91.7848902  54.9249992  15.5284990  79.5649997
  54.5529992  14.7034990  79.8749997  55.2029992  15.3454990  78.6679997
  54.9115997  15.3906160  79.4861551  52.0859992  10.3364990  86.5869997
  51.1579992  10.1054990  86.5599997  52.5369992   9.5594990  86.2569997
  52.0198165  10.1997785  86.5386772  44.6289992  14.6654990  82.7199997
  45.1559992  15.4384990  82.5189997  43.7489992  14.8894990  82.4179997
  44.5821793  14.8016652  82.6516304  46.0559992  12.3284990  82.2959997
  45.8149992  13.2534990  82.3379997  45.3159992  11.8694990  82.6919997
  45.9228934  12.3930881  82.3553191  46.5709992  16.4774990  88.6109997
  46.9339992  17.3314990  88.3779997  47.1029992  16.1854990  89.3519997
  46.6925141  16.5548907  88.6792079  44.7389992  17.3494990  81.8409997
  43.7899992  17.4554990  81.8929997  45.0909992  18.1704990  82.1859997
  44.6566214  17.4749361  81.8947317  50.1149992  12.5764990  88.3119997
  49.6889992  12.3484990  89.1379997  50.6959992  11.8374990  88.1289997
  50.1351587  12.4454084  88.4004111  52.3179992  13.5054990  77.3859997
  52.6709992  13.1254990  78.1899997  51.3689992  13.4114990  77.4719997
  52.2380985  13.4407330  77.5077738  52.7739992  17.1284990  90.7809997
  52.1719992  16.5724990  90.2859997  53.0549992  17.7954990  90.1549997
  52.7295757  17.1425755  90.6285657  40.8959992   4.3614990  90.1879997
  40.0029992   4.6994990  90.1209997  40.7969992   3.5054990  90.6059997
  40.7605241   4.2920941  90.2352982  53.1839992  12.1774990  79.6119997
  52.9069992  11.4494990  80.1679997  54.1109992  12.2964990  79.8179997
  53.2714181  12.0940068  79.7158972  40.5469992  16.1654990  88.6229997
  40.7639992  15.2334990  88.5919997  40.7939992  16.4404990  89.5069997
  40.6100543  16.0750877  88.7381412  45.3459992  14.1874990  78.2889997
  45.4929992  13.6674990  79.0789997  45.3429992  15.0944990  78.5949997
  45.3657300  14.2388975  78.4385877  49.6299992   4.1024990  89.0779997
  50.3289992   4.1764990  89.7279997  49.2499992   3.2374990  89.2329997
  49.6742095   3.9957402  89.1877982  50.4149992   3.7544990  80.1749997
  50.6349992   4.2254990  79.3719997  50.9729992   4.1484990  80.8459997
  50.5205851   3.8723272  80.1556134  48.0839992  15.8844990  79.0379997
  47.2669992  16.3814990  79.0909997  48.6129992  16.3604990  78.3979997
  48.0437898  16.0168123  78.9587274  47.6149992   5.4824990  81.0099997
  48.4269992   5.9864990  81.0559997  47.3699992   5.3374990  81.9239997
  47.6931091   5.5319366  81.1398552  48.1509992   6.4684990  90.1949997
  48.2699992   7.0424990  90.9519997  48.8059992   5.7804990  90.3099997
  48.2558684   6.4540205  90.3141656  48.4989992   2.5634990  81.9479997
  48.1519992   3.1804990  82.5929997  49.1569992   3.0644990  81.4669997
  48.5405290   2.7156384  81.9711635  45.4219992  16.9284990  79.0199997
  45.5829992  17.7284990  78.5189997  45.2249992  17.2354990  79.9049997
  45.4173919  17.0794140  79.0710988  54.3549992   4.3754990  91.0299997
  53.4389992   4.6374990  90.9419997  54.6909992   4.3724990  90.1329997
  54.2749789   4.4109637  90.8967829  52.9569992   8.1254990  85.1259997
  52.1599992   7.7104990  84.7969997  53.4019992   7.4354990  85.6169997
  52.9080317   7.9753197  85.1473557  40.7309992   6.7184990  76.8119997
  40.6859992   7.6574990  76.9909997  39.8429992   6.4824990  76.5419997
  40.6048472   6.8151946  76.8000282  54.0439992  17.3814990  86.7479997
  53.8879992  18.0604990  86.0909997  54.9759992  17.4534990  86.9509997
  54.1487328  17.4841586  86.6855529  41.5389992   1.4994990  85.4849997
  41.3099992   1.5584990  84.5579997  41.0959992   0.7084990  85.7919997
  41.4477387   1.4006412  85.3995223  40.4689992  15.4404990  81.6459997
  39.6369992  15.9124990  81.6729997  41.0149992  15.9504990  81.0469997
  40.4288710  15.5740317  81.5687570  39.7579992  18.0524990  92.9759997
  40.2979992  17.8364990  93.7349997  39.2759992  17.2474990  92.7859997
  39.7669101  17.9140216  93.0544364  44.3549992  16.9724990  94.5959997
  45.1229992  16.5134990  94.9369997  44.3339992  16.7464990  93.6659997
  44.4572135  16.8791680  94.5169473  50.9319992  15.3524990  93.3249997
  50.5809992  14.4954990  93.5679997  51.6579992  15.4944990  93.9319997
  50.9821590  15.2545189  93.4402889  39.6649992  11.8634990  93.9299997
  39.8089992  10.9614990  93.6439997  38.8919992  12.1494990  93.4419997
  39.5802854  11.7786876  93.8249363  46.3199992  11.8324990  93.3629997
  45.9919992  12.1034990  92.5049997  46.4719992  10.8914990  93.2749997
  46.2956970  11.7423694  93.2337953  52.0549992  11.7484990  90.7459997
  52.7999992  12.3374990  90.6259997  51.2969992  12.3304990  90.8089997
  52.0545185  11.9077000  90.7380940  40.4969992   9.0634990  93.3499997
  40.9049992   8.2064990  93.2289997  40.2369992   9.0774990  94.2709997
  40.5177082   8.9480596  93.4579469  45.1549992  10.1794990  78.3679997
  44.6959992   9.6954990  79.0539997  45.4099992   9.5104990  77.7319997
  45.1266178  10.0228511  78.3759785  44.4439992   8.0724990  90.7239997
  43.8259992   8.7464990  91.0049997  44.7879992   8.3934990  89.8909997
  44.4058181   8.2083233  90.6498266  49.4639992  10.5434990  94.0019997
  50.4169992  10.6274990  93.9739997  49.3039992   9.8314990  94.6209997
  49.5728161  10.4587198  94.0818689  44.7839992   5.4274990  91.8069997
  44.9339992   4.6984990  91.2039997  44.7859992   6.2044990  91.2479997
  44.8047664   5.4328971  91.6490525  45.1959992   3.7964990  89.2989997
  45.7319992   4.2484990  88.6469997  44.3439992   3.6884990  88.8769997
  45.1541648   3.8437883  89.1526395  46.7779992   9.2364990  89.5389997
  47.5289992   9.0804990  88.9659997  46.4389992  10.0884990  89.2629997
  46.8349052   9.3302745  89.4233469  51.1939992   7.0514990  94.5669997
  51.3859992   6.1204990  94.4559997  52.0509992   7.4764990  94.5569997
  51.3362320   6.9814743  94.5504433  52.5099992   9.8404990  92.6449997
  52.2289992  10.5494990  92.0669997  53.4529992   9.7674990  92.4939997
  52.5989272   9.9276704  92.5454976  43.2619992   6.6254990  93.7179997
  42.4949992   6.0924990  93.5079997  43.9409992   6.3154990  93.1189997
  43.2488292   6.5106360  93.6082693  46.0019992   1.2534990  89.7309997
  45.9039992   2.1994990  89.6249997  45.2589992   0.8804990  89.2549997
  45.8882363   1.3325987  89.6522029  47.2659992   5.5744990  93.2939997
  47.0299992   5.3554990  94.1959997  46.4829992   5.3674990  92.7849997
  47.1278444   5.5165688  93.3484518  49.9819992   4.7024990  92.3699997
  49.0339992   4.7344990  92.5019997  50.2939992   4.0764990  93.0239997
  49.8945293   4.6222934  92.4764130  51.6159992   3.3364990  94.3749997
  51.5189992   2.3844990  94.3689997  51.2939992   3.6044990  95.2359997
  51.5592229   3.2424706  94.4905108  41.4429992   4.5454990  93.4229997
  41.6539992   3.8394990  92.8119997  41.3309992   4.1084990  94.2669997
  41.4567674   4.3896376  93.4534199  46.2239992   0.5474990  92.4019997
  46.9349992  -0.0925010  92.3879997  46.1229992   0.8134990  91.4879997
  46.3076732   0.4958451  92.2765475  46.5769992   2.2294990  94.4559997
  46.4459992   1.7544990  93.6349997  45.9779992   2.9744990  94.3999997
  46.4781524   2.2651968  94.3361553  46.1239992  19.1124990  77.6319997
  47.0569992  19.2704990  77.7759997  45.8589992  19.7884990  77.0069997
  46.2159846  19.2254567  77.5672930  38.3409992  19.1424990  82.1919997
  37.6939992  18.6804990  81.6589997  38.6959992  18.4704990  82.7749997
  38.3003861  18.9884707  82.1977939  39.2109992  17.2224990  83.9969997
  38.8769992  16.3424990  84.1689997  39.4329992  17.5684990  84.8609997
  39.1952677  17.1487366  84.1374252  56.7599992  18.0324990  86.9769997
  56.7379992  18.2174990  87.9159997  57.4499992  18.6004990  86.6359997
  56.8503439  18.1346898  87.0594774  56.3229992  17.5994990  89.8989997
  55.8359992  16.8634990  89.5279997  56.8719992  17.2054990  90.5769997
  56.3306101  17.4456267  89.9399034  54.7739992  13.3894990  94.5369997
  53.9079992  13.2844990  94.9309997  55.1499992  14.1474990  94.9839997
  54.7063768  13.4776151  94.6513258  56.4689992   9.6994990  81.8749997
  55.7429992   9.2194990  82.2729997  57.0499992   9.9044990  82.6069997
  56.4482504   9.6615592  82.0284199  56.2279992  12.4844990  86.8229997
  57.0619992  12.1064990  86.5419997  56.3399992  13.4274990  86.7039997
  56.3571917  12.5602954  86.7684844  54.7139992  15.3624990  89.1299997
  54.0669992  15.6874990  89.7549997  54.1969992  14.9214990  88.4549997
  54.5554068  15.3474726  89.1244918  54.2559992   8.2204990  82.4379997
  54.1059992   7.2754990  82.4179997  53.9019992   8.5014990  83.2819997
  54.1876351   8.1291656  82.5493202  39.2909992  10.2984990  86.4479997
  39.4749992  10.2164990  85.5129997  40.1399992  10.1744990  86.8719997
  39.4310259  10.2704915  86.3771771  55.1119992  10.1904990  92.0769997
  55.6949992   9.4554990  92.2679997  55.6759992  10.9624990  92.1229997
  55.2680326  10.1942746  92.1093579  56.6089992   8.0934990  92.7609997
  55.7449992   7.7144990  92.5959997  57.2129992   7.3544990  92.6869997
  56.5724912   7.9417937  92.7284360  53.9659992   5.8024990  80.8999997
  54.2459992   4.8954990  81.0249997  54.7249992   6.2364990  80.5109997
  54.1069471   5.7370654  80.8645052  54.5779992   6.3844990  86.3359997
  55.5109992   6.5964990  86.3019997  54.3429992   6.4854990  87.2589997
  54.6738357   6.4271303  86.4560232  54.6069992   7.1214990  89.1119997
  53.7639992   7.3894990  89.4779997  55.0499992   7.9434990  88.9009997
  54.5514358   7.2693294  89.1335999  38.8879992   5.5684990  92.5889997
  39.8079992   5.4464990  92.8249997  38.4389992   4.8184990  92.9779997
  38.9531561   5.4503720  92.6739015  56.8899992   1.1014990  94.4659997
  57.2399992   0.4474990  93.8599997  57.0369992   1.9384990  94.0259997
  56.9577192   1.1252545  94.3236712  54.5799992   3.0654990  80.9489997
  54.7619992   2.6164990  81.7739997  53.9799992   2.4814990  80.4849997
  54.5238187   2.9250563  80.9992721  40.1099992   3.8814990  85.4799997
  40.5549992   3.0894990  85.7819997  40.5759992   4.5974990  85.9109997
  40.2339059   3.8699485  85.5796061  38.4139992   6.8804990  86.5489997
  38.9059992   6.6594990  85.7589997  38.7759992   7.7204990  86.8299997
  38.5303429   6.9638220  86.4787918  56.4099992   3.2104990  92.8149997
  55.4929992   3.4814990  92.7789997  56.5329992   2.6754990  92.0309997
  56.3010828   3.1752711  92.7040767  38.7269992   3.1384990  80.6039997
  37.8019992   3.3464990  80.4739997  39.1809992   3.6224990  79.9139997
  38.6617401   3.2323895  80.4929433  53.4979992  18.1224990  82.5489997
  54.1499992  17.7744990  81.9409997  54.0089992  18.6104990  83.1949997
  53.6562872  18.1408248  82.5530964  38.6909992   1.8764990  88.9479997
  38.0259992   1.6304990  89.5909997  38.2479992   2.4984990  88.3709997
  38.5401168   1.9269225  88.9579830  40.8829992  15.0514990  93.0919997
  40.0619992  15.2264990  92.6319997  40.6309992  14.9784990  94.0129997
  40.7366173  15.0655806  93.1534954  43.8369992  16.0254990  89.3509997
  43.4119992  16.8354990  89.0679997  44.7409992  16.1114990  89.0489997
  43.9011002  16.1478728  89.2714798  48.1479992  17.4244990  92.3099997
  48.3329992  17.0914990  93.1879997  48.9949992  17.7344990  91.9879997
  48.2877291  17.4208214  92.3866140  50.4929992  18.7104990  91.5539997
  51.1699992  18.0774990  91.3139997  50.8149992  19.1114990  92.3619997
  50.6291280  18.6780638  91.6303190  55.4109992   1.3004990  90.6339997
  54.5979992   1.6254990  90.2459997  55.6439992   0.5394990  90.1009997
  55.3312566   1.2421570  90.5089196  41.2389992  19.2824990  89.3979997
  40.5179992  19.7224990  88.9469997  40.8729992  19.0314990  90.2469997
  41.0909785  19.3087691  89.4509849  43.7059992  18.8824990  88.4279997
  42.8409992  18.9544990  88.8319997  43.6509992  19.4294990  87.6439997
  43.5802066  18.9662678  88.3773371  48.4169992  18.7704990  87.6039997
  47.9599992  19.2994990  86.9499997  48.5789992  19.3734990  88.3289997
  48.3763919  18.9243990  87.6125740  50.7439992  17.6484990  88.5489997
  49.8399992  17.8134990  88.2829997  51.1729992  18.5014990  88.4829997
  50.6782017  17.7864184  88.5036495  53.3479992  19.2184990  88.8439997
  53.1669992  20.1344990  88.6329997  53.5249992  18.8074990  87.9969997
  53.3471377  19.2883365  88.7007178  40.6539992  17.9054990  86.3089997
  40.6349992  17.4794990  87.1659997  41.4579992  17.5864990  85.8999997
  40.7601393  17.8040297  86.3710155  42.7949992  16.6154990  84.9639997
  42.5759992  15.6984990  85.1329997  43.6189992  16.7554990  85.4299997
  42.8764637  16.5089586  85.0501414  45.3319992  17.0854990  85.8119997
  45.5449992  16.1974990  85.5249997  45.3969992  17.0504990  86.7669997
  45.3699075  16.9593318  85.9017355  48.8409992   2.7494990  84.9569997
  48.1659992   2.1194990  85.2119997  49.4049992   2.2654990  84.3539997
  48.8249558   2.5979283  84.9103451  53.9829992   0.8564990  85.0689997
  54.5869992   1.4044990  84.5679997  53.1139992   1.1754990  84.8289997
  53.9481126   0.9747070  84.9679180  55.7099992   1.9954990  83.4029997
  56.3219992   1.4814990  82.8759997  56.0929992   2.8724990  83.4259997
  55.8453867   2.0437613  83.3340888  41.1669992   1.3834990  82.7789997
  40.3899992   1.1484990  82.2709997  41.6979992   0.5864990  82.7879997
  41.1324443   1.2436721  82.7107200  45.7469992   1.3094990  82.5919997
  46.6209992   1.6984990  82.5619997  45.6109992   1.0944990  83.5149997
  45.8483125   1.3337120  82.7126523  51.3029992   1.3394990  84.2409997
  51.3799992   1.4354990  83.2919997  51.0279992   0.4324990  84.3699997
  51.2763407   1.2299188  84.1283532  52.6569992   1.3654990  79.9339997
  51.9539992   1.9804990  79.7239997  52.2119992   0.5284990  80.0649997
  52.5006550   1.3364679  79.9229819  46.8909992   3.3904990  79.4819997
  47.0689992   2.7434990  80.1649997  46.8369992   4.2244990  79.9489997
  46.9080678   3.4146615  79.6386283  55.4779992  17.9014990  80.5569997
  55.2839992  17.1534990  79.9919997  55.4389992  18.6594990  79.9729997
  55.4461907  17.9015770  80.4008077  41.1249992   1.8974990  92.2959997
  40.7589992   1.1314990  92.7389997  42.0379992   1.9264990  92.5829997
  41.1983225   1.7966917  92.3953441  43.0979992   1.2474990  93.8319997
  43.9969992   0.9734990  93.6469997  42.7119992   0.5054990  94.2959997
  43.1687237   1.1096520  93.8694693  51.5189992   0.5804990  94.0139997
  51.5959992   0.1544990  94.8679997  52.4129992   0.5934990  93.6719997
  51.6503315   0.5240320  94.0845052  54.6959992  16.6524990  92.7069997
  53.9139992  16.4664990  92.1869997  54.6239992  17.5824990  92.9239997
  54.5792975  16.7526973  92.6651823  69.1019992  10.5394990  82.7369997
  69.1909992  11.4834990  82.6049997  68.4629992  10.2644990  82.0789997
  69.0278319  10.6314984  82.6300276  68.0349992   9.7944990  86.1559997
  67.9959992   9.1484990  86.8609997  67.7119992   9.3274990  85.3849997
  67.9860199   9.6430089  86.1482865  60.4029992   9.4084990  87.7489997
  60.4439992   8.7834990  88.4729997  61.1059992  10.0324990  87.9309997
  60.5036054   9.4073262  87.8726311  71.7409992  12.7334990  84.4579997
  71.2999992  12.0134990  84.9079997  71.7279992  13.4544990  85.0879997
  71.6788398  12.7323187  84.6047734  61.3269992  13.8584990  86.2839997
  60.9569992  13.0564990  85.9149997  62.2679992  13.6904990  86.3309997
  61.4035630  13.7258680  86.2397873  57.9369992   7.5184990  81.6769997
  57.4889992   8.3644990  81.6589997  57.3759992   6.9394990  81.1619997
  57.7998546   7.5559004  81.6048874  58.6469992   9.6804990  83.8029997
  58.8609992   8.9104990  84.3299997  59.3849992   9.7704990  83.1999997
  58.7760073   9.5873546  83.7935786  68.8519992  17.8374990  84.6699997
  69.4719992  17.1614990  84.3969997  68.6439992  17.6194990  85.5779997
  68.9087360  17.7154792  84.7554387  66.4239992  12.2264990  86.5619997
  66.7279992  11.5404990  85.9679997  67.1459992  12.3454990  87.1799997
  66.5631152  12.1487201  86.5642106  75.0869992   3.8284990  87.4229997
  75.1359992   4.4384990  88.1589997  75.5129992   4.2894990  86.6999997
  75.1512851   3.9743266  87.4260532  69.5649992   6.6204990  86.8899997
  69.7069992   5.6744990  86.9099997  69.4589992   6.8274990  85.9609997
  69.5701158   6.5189722  86.7672241  62.7199992   4.7224990  84.1619997
  62.7629992   5.5824990  83.7439997  62.2619992   4.1694990  83.5289997
  62.6639613   4.7655689  84.0191276  70.4419992   4.8534990  82.5629997
  71.0879992   4.5244990  83.1879997  70.9519992   5.3704990  81.9399997
  70.5994392   4.8783710  82.5643248  59.3399992   7.1194990  84.9239997
  59.9939992   6.5694990  85.3559997  59.3639992   6.8454990  84.0079997
  59.4327022   7.0072005  84.8591698  64.4959992   8.6694990  84.1399997
  65.1119992   8.1424990  84.6489997  63.9099992   8.0294990  83.7359997
  64.5010652   8.5108919  84.1550277  75.4789992   5.3064990  89.6589997
  74.7899992   5.9644990  89.5639997  75.4939992   5.1084990  90.5959997
  75.3867756   5.3697614  89.7725795  61.5299992   3.6404990  88.2359997
  61.3109992   4.1704990  87.4699997  60.8619992   3.8664990  88.8839997
  61.4097271   3.7436508  88.2186206  68.8989992  13.1404990  81.7799997
  68.6029992  12.8174990  80.9289997  68.5749992  14.0404990  81.8219997
  68.8146501  13.2179058  81.6690893  64.0989992  11.3154990  88.5239997
  63.3589992  11.9144990  88.6269997  64.8129992  11.8694990  88.2079997
  64.0943288  11.4722368  88.4953787  72.2059992   4.1444990  84.5439997
  71.9909992   3.3784990  85.0759997  72.8619992   4.6164990  85.0569997
  72.2652451   4.1034472  84.6861699  61.1239992   5.5324990  86.1889997
  61.7369992   6.1654990  86.5619997  61.6359992   5.0604990  85.5319997
  61.2771680   5.5554006  86.1512830  62.5059992  13.2804990  89.3109997
  62.5009992  14.1594990  88.9329997  61.6529992  13.1964990  89.7359997
  62.3899199  13.3895901  89.3166942  58.6279992  12.9514990  80.0929997
  58.3559992  13.1804990  79.2039997  58.6729992  13.7884990  80.5529997
  58.5968709  13.0961069  80.0336089  72.2529992  14.5724990  86.8059997
  71.3109992  14.6314990  86.9669997  72.5289992  15.4784990  86.6689997
  72.1615771  14.7030270  86.8094827  72.5529992   2.8594990  88.2229997
  71.8169992   3.4694990  88.1849997  73.2369992   3.2744990  87.6969997
  72.5445885   2.9991924  88.1466931  65.5559992   0.9454990  85.6889997
  65.4389992  -0.0025010  85.6349997  64.7009992   1.2784990  85.9619997
  65.4243691   0.8605842  85.7185072  70.5049992  16.3534990  83.4309997
  70.9299992  15.6464990  82.9459997  70.8219992  17.1554990  83.0139997
  70.6060266  16.3650201  83.3082461  71.6639992  14.2544990  81.9399997
  71.4069992  13.5644990  81.3279997  71.7349992  13.8114990  82.7849997
  71.6384322  14.1001568  81.9705372  73.3499992  12.8214990  90.4169997
  73.4899992  12.2294990  89.6779997  73.5179992  13.6944990  90.0609997
  73.3918734  12.8584041  90.2676937  67.8229992   9.7834990  80.1889997
  67.1109992  10.3184990  79.8379997  68.5139992   9.8384990  79.5289997
  67.8188696   9.8642591  80.0516372  75.1919992   9.1614990  88.4829997
  74.5399992   9.8554990  88.5719997  75.6569992   9.3714990  87.6729997
  75.1655357   9.2849544  88.3857056  71.2289992   9.9924990  81.1409997
  70.4969992  10.2214990  81.7139997  71.6759992   9.2794990  81.5959997
  71.1892753   9.9273984  81.2809698  71.1259992   8.1674990  90.2089997
  71.2059992   8.9304990  90.7809997  70.5249992   8.4464990  89.5179997
  71.0557115   8.3097707  90.1939631  62.8739992  10.6234990  83.0239997
  62.5439992  10.2524990  82.2049997  63.4619992   9.9524990  83.3699997
  62.9084056  10.4821257  82.9589035  64.2409992  14.0514990  85.7049997
  64.1459992  13.4724990  84.9479997  64.9699992  13.6804990  86.2009997
  64.3266161  13.9220902  85.6685192  63.2409992   9.3914990  86.6569997
  63.8059992   9.5134990  85.8939997  63.5589992  10.0294990  87.2959997
  63.3613430   9.4944448  86.6389094  69.5499992  14.8954990  87.3909997
  69.3089992  15.5574990  88.0389997  69.3519992  14.0604990  87.8159997
  69.4902662  14.8732704  87.5371008  64.1209992  13.7914990  91.3739997
  63.8089992  14.5734990  91.8299997  63.4709992  13.6384990  90.6879997
  63.9904643  13.8778019  91.3436657  70.0999992   9.1554990  78.8259997
  70.6789992   9.3054990  79.5729997  70.5139992   9.6254990  78.1029997
  70.2353122   9.2396288  78.8305024  61.0409992   9.9894990  90.6029997
  61.1109992  10.6404990  91.3009997  60.1499992  10.0924990  90.2679997
  60.9301802  10.0924769  90.6532231  67.8259992  15.8914990  82.2619997
  68.2999992  16.1874990  83.0389997  67.2629992  16.6304990  82.0279997
  67.8148461  16.0318336  82.3367626  62.3599992  15.8624990  92.1379997
  62.3679992  15.7264990  91.1899997  61.4439992  15.7454990  92.3899997
  62.2372512  15.8280663  92.0423179  61.8639992   9.6924990  80.6129997
  61.5719992  10.4604990  80.1219997  61.1899992   9.0334990  80.4499997
  61.7328843   9.7084537  80.5237695  74.9879992  15.2714990  77.0159997
  75.0609992  16.2104990  77.1859997  75.8929992  14.9664990  76.9589997
  75.1204168  15.3588531  77.0315736  57.9569992  12.0554990  89.4279997
  57.4559992  12.0274990  88.6129997  57.9629992  11.1504990  89.7379997
  57.8891690  11.9292234  89.3582770  57.7079992  14.8364990  86.3119997
  58.6539992  14.6914990  86.2929997  57.5949992  15.6204990  86.8489997
  57.8223578  14.9226708  86.3820300  75.9049992  15.5024990  91.9939997
  75.8559992  14.5464990  91.9569997  75.0789992  15.7694990  92.3959997
  75.7865767  15.4078841  92.0433133  66.8839992  15.0764990  90.8699997
  66.9709992  15.9024990  91.3449997  66.0199992  14.7464990  91.1189997
  66.7791944  15.1449871  90.9686558  67.2979992  18.8484990  80.6759997
  67.2229992  18.7274990  79.7299997  67.3309992  19.7974990  80.7949997
  67.2921862  18.9602492  80.5624840  60.9519992  17.6374990  82.4569997
  61.1039992  17.2894990  83.3359997  60.1009992  17.2804990  82.2019997
  60.8577899  17.5416749  82.5427322  70.3999992  18.0024990  77.6789997
  70.7749992  17.2584990  77.2079997  70.4039992  17.7324990  78.5969997
  70.4518969  17.8640920  77.7386475  70.0689992  17.9284990  80.4279997
  69.1339992  18.0284990  80.6069997  70.3489992  17.2184990  81.0059997
  69.9789270  17.8462300  80.5305984  73.0569992   6.9954990  92.4739997
  72.6499992   7.4754990  91.7539997  73.0979992   6.0894990  92.1669997
  73.0067178   6.9388609  92.3337441  60.2059992  13.3794990  90.4709997
  60.4219992  13.0174990  91.3309997  59.3509992  13.0044990  90.2609997
  60.1199349  13.2792914  90.5602134  62.8249992   1.8494990  86.4669997
  61.9629992   1.7624990  86.0589997  62.8029992   2.7054990  86.8939997
  62.7040953   1.9533558  86.4689262  67.4879992   1.5714990  89.8409997
  67.9079992   1.1564990  90.5939997  66.5549992   1.3924990  89.9579997
  67.4193736   1.4904921  89.9598950  70.8139992   5.3264990  90.6949997
  70.2999992   5.2014990  91.4919997  70.6589992   6.2394990  90.4499997
  70.7226643   5.4327068  90.7710624  62.9159992   6.8144990  87.5619997
  62.2739992   6.7744990  88.2709997  62.9529992   7.7414990  87.3239997
  62.8331659   6.9342540  87.6268463  62.9129992   7.0354990  82.4739997
  62.0199992   6.6954990  82.4149997  63.3639992   6.6584990  81.7179997
  62.8517185   6.9380220  82.3637698  68.4489992   7.4514990  81.2909997
  68.0399992   8.2664990  80.9989997  69.1689992   7.3114990  80.6759997
  68.4903946   7.5439963  81.1679616  67.5509992   7.6274990  92.7789997
  66.9879992   6.9224990  93.0989997  68.3769992   7.5064990  93.2459997
  67.5856423   7.5145614  92.8860168  69.4529992   6.8974990  84.1049997
  69.2579992   7.5034990  83.3899997  69.6349992   6.0644990  83.6699997
  69.4509272   6.8677955  83.9484075  60.6659992   7.1354990  89.4289997
  60.6279992   7.5354990  90.2969997  60.1749992   6.3184990  89.5189997
  60.5944246   7.0798842  89.5601171  64.0319992   4.5094990  76.2269997
  63.6009992   4.0644990  76.9569997  63.3139992   4.8804990  75.7149997
  63.8759363   4.4987979  76.2576194  57.2739992   4.2514990  83.2789997
  57.9049992   4.2224990  83.9989997  57.7239992   3.8264990  82.5489997
  57.4210905   4.1900839  83.2787479  68.7169992   8.5354990  88.7759997
  69.0409992   7.9044990  88.1329997  68.2769992   8.0014990  89.4369997
  68.7018707   8.3768261  88.7773195  65.4949992   4.4634990  83.5599997
  64.5839992   4.5204990  83.8489997  65.9999992   4.4034990  84.3709997
  65.4386873   4.4631838  83.7091190  60.3229992   6.0924990  82.3869997
  59.4339992   6.1914990  82.0469997  60.6189992   5.2504990  82.0409997
  60.2414001   5.9922473  82.2937318  63.9759992   6.0924990  80.0429997
  64.9079992   6.2214990  80.2209997  63.7609992   6.7614990  79.3939997
  64.0744245   6.2006452  79.9795602  69.8999992   3.6984990  86.8239997
  69.2229992   3.8294990  87.4879997  69.4139992   3.5434990  86.0139997
  69.7417265   3.6954665  86.8053380  73.1869992  19.3694990  93.1009997
  73.3869992  19.7934990  92.2659997  73.8429992  19.7134990  93.7079997
  73.3029916  19.4739784  93.0687890  60.7849992  11.8434990  92.7089997
  61.5169992  12.0984990  93.2699997  60.0049992  12.0484990  93.2239997
  60.7797684  11.9061457  92.8554774  66.8149992   7.2504990  85.4469997
  67.3789992   6.7044990  84.8999997  66.6669992   6.7294990  86.2359997
  66.8723037   7.1051798  85.4787212  61.8169992   3.3874990  81.8649997
  61.4989992   2.4844990  81.8299997  62.5979992   3.3894990  81.3129997
  61.8791560   3.2641148  81.7854975  65.4409992   5.6394990  87.8609997
  64.6059992   6.0934990  87.9709997  65.9649992   5.9154990  88.6129997
  65.3975070   5.7389677  87.9777134  65.9849992  11.8524990  79.5459997
  65.2399992  11.3444990  79.2229997  65.8509992  11.9014990  80.4919997
  65.8648633  11.7895714  79.6297563  73.1349992  10.9854990  88.3319997
  73.7769992  11.4414990  87.7889997  72.3049992  11.0984990  87.8699997
  73.1107352  11.0633223  88.1950234  67.5049992  12.0364990  90.7829997
  67.1589992  11.6544990  91.5889997  67.3049992  12.9694990  90.8539997
  67.4305399  12.1103489  90.9030401  70.6009992   6.5334990  79.4059997
  71.4929992   6.3954990  79.7249997  70.6579992   7.3244990  78.8689997
  70.7307380   6.6214777  79.3770981  61.1099992  11.1474990  85.3149997
  61.8549992  11.1444990  84.7139997  61.1879992  10.3234990  85.7969997
  61.2224158  11.0357928  85.2979136  68.1109992  13.3104990  78.5709997
  67.8159992  14.1374990  78.9529997  67.4079992  12.6914990  78.7669997
  67.9755855  13.3399458  78.6497634  58.1179992   9.6074990  90.6299997
  58.3409992   9.1894990  91.4619997  57.5159992   8.9954990  90.2079997
  58.0670802   9.4675216  90.6867561  65.1349992   9.1244990  92.8429997
  64.8389992   8.9594990  91.9479997  66.0659992   8.9044990  92.8329997
  65.2203909   9.0721274  92.7190110  69.7549992  14.4984990  90.7329997
  68.8539992  14.6814990  90.4649997  69.7889992  14.7574990  91.6539997
  69.6363021  14.5585505  90.8208206  75.4859992   6.7424990  79.0999997
  74.9319992   6.3464990  78.4279997  75.5869992   7.6534990  78.8229997
  75.4237084   6.8113565  78.9704381  75.4489992  12.5434990  91.9369997
  74.5979992  12.7814990  91.5699997  76.0399992  12.5264990  91.1839997
  75.4122468  12.5738251  91.7848902  73.7809992  15.5284990  79.5649997
  73.4089992  14.7034990  79.8749997  74.0589992  15.3454990  78.6679997
  73.7675997  15.3906160  79.4861551  70.9419992  10.3364990  86.5869997
  70.0139992  10.1054990  86.5599997  71.3929992   9.5594990  86.2569997
  70.8758165  10.1997785  86.5386772  63.4849992  14.6654990  82.7199997
  64.0119992  15.4384990  82.5189997  62.6049992  14.8894990  82.4179997
  63.4381793  14.8016652  82.6516304  64.9119992  12.3284990  82.2959997
  64.6709992  13.2534990  82.3379997  64.1719992  11.8694990  82.6919997
  64.7788934  12.3930881  82.3553191  65.4269992  16.4774990  88.6109997
  65.7899992  17.3314990  88.3779997  65.9589992  16.1854990  89.3519997
  65.5485141  16.5548907  88.6792079  63.5949992  17.3494990  81.8409997
  62.6459992  17.4554990  81.8929997  63.9469992  18.1704990  82.1859997
  63.5126214  17.4749361  81.8947317  68.9709992  12.5764990  88.3119997
  68.5449992  12.3484990  89.1379997  69.5519992  11.8374990  88.1289997
  68.9911587  12.4454084  88.4004111  71.6299992  17.1284990  90.7809997
  71.0279992  16.5724990  90.2859997  71.9109992  17.7954990  90.1549997
  71.5855757  17.1425755  90.6285657  75.6769992  17.9844990  77.5869997
  76.4209992  18.5704990  77.4469997  74.9829992  18.5534990  77.9199997
  75.6849809  18.1415830  77.6128572  59.7519992   4.3614990  90.1879997
  58.8589992   4.6994990  90.1209997  59.6529992   3.5054990  90.6059997
  59.6165241   4.2920941  90.2352982  72.0399992  12.1774990  79.6119997
  71.7629992  11.4494990  80.1679997  72.9669992  12.2964990  79.8179997
  72.1274181  12.0940068  79.7158972  59.4029992  16.1654990  88.6229997
  59.6199992  15.2334990  88.5919997  59.6499992  16.4404990  89.5069997
  59.4660543  16.0750877  88.7381412  60.6549992  11.4394990  78.7989997
  59.9689992  11.7924990  79.3659997  61.1779992  12.2024990  78.5529997
  60.6319033  11.5908757  78.8432644  68.4859992   4.1024990  89.0779997
  69.1849992   4.1764990  89.7279997  68.1059992   3.2374990  89.2329997
  68.5302095   3.9957402  89.1877982  69.2709992   3.7544990  80.1749997
  69.4909992   4.2254990  79.3719997  69.8289992   4.1484990  80.8459997
  69.3765851   3.8723272  80.1556134  66.9399992  15.8844990  79.0379997
  66.1229992  16.3814990  79.0909997  67.4689992  16.3604990  78.3979997
  66.8997898  16.0168123  78.9587274  66.4709992   5.4824990  81.0099997
  67.2829992   5.9864990  81.0559997  66.2259992   5.3374990  81.9239997
  66.5491091   5.5319366  81.1398552  67.0069992   6.4684990  90.1949997
  67.1259992   7.0424990  90.9519997  67.6619992   5.7804990  90.3099997
  67.1118684   6.4540205  90.3141656  67.3549992   2.5634990  81.9479997
  67.0079992   3.1804990  82.5929997  68.0129992   3.0644990  81.4669997
  67.3965290   2.7156384  81.9711635  64.2779992  16.9284990  79.0199997
  64.4389992  17.7284990  78.5189997  64.0809992  17.2354990  79.9049997
  64.2733919  17.0794140  79.0710988  63.0119992   3.6264990  78.6359997
  62.9289992   4.5144990  78.9819997  63.9019992   3.3614990  78.8669997
  63.1209751   3.7122482  78.7146066  73.2109992   4.3754990  91.0299997
  72.2949992   4.6374990  90.9419997  73.5469992   4.3724990  90.1329997
  73.1309789   4.4109637  90.8967829  71.8129992   8.1254990  85.1259997
  71.0159992   7.7104990  84.7969997  72.2579992   7.4354990  85.6169997
  71.7640317   7.9753197  85.1473556  59.5869992   6.7184990  76.8119997
  59.5419992   7.6574990  76.9909997  58.6989992   6.4824990  76.5419997
  59.4608472   6.8151946  76.8000282  72.8999992  17.3814990  86.7479997
  72.7439992  18.0604990  86.0909997  73.8319992  17.4534990  86.9509997
  73.0047328  17.4841586  86.6855529  60.3949992   1.4994990  85.4849997
  60.1659992   1.5584990  84.5579997  59.9519992   0.7084990  85.7919997
  60.3037387   1.4006412  85.3995223  59.3249992  15.4404990  81.6459997
  58.4929992  15.9124990  81.6729997  59.8709992  15.9504990  81.0469997
  59.2848710  15.5740317  81.5687570  58.6139992  18.0524990  92.9759997
  59.1539992  17.8364990  93.7349997  58.1319992  17.2474990  92.7859997
  58.6229101  17.9140216  93.0544364  63.2109992  16.9724990  94.5959997
  63.9789992  16.5134990  94.9369997  63.1899992  16.7464990  93.6659997
  63.3132135  16.8791680  94.5169473  69.7879992  15.3524990  93.3249997
  69.4369992  14.4954990  93.5679997  70.5139992  15.4944990  93.9319997
  69.8381590  15.2545189  93.4402889  58.5209992  11.8634990  93.9299997
  58.6649992  10.9614990  93.6439997  57.7479992  12.1494990  93.4419997
  58.4362854  11.7786876  93.8249363  65.1759992  11.8324990  93.3629997
  64.8479992  12.1034990  92.5049997  65.3279992  10.8914990  93.2749997
  65.1516970  11.7423694  93.2337953  70.9109992  11.7484990  90.7459997
  71.6559992  12.3374990  90.6259997  70.1529992  12.3304990  90.8089997
  70.9105185  11.9077000  90.7380940  59.3529992   9.0634990  93.3499997
  59.7609992   8.2064990  93.2289997  59.0929992   9.0774990  94.2709997
  59.3737082   8.9480596  93.4579469  63.2999992   8.0724990  90.7239997
  62.6819992   8.7464990  91.0049997  63.6439992   8.3934990  89.8909997
  63.2618181   8.2083233  90.6498266  68.3199992  10.5434990  94.0019997
  69.2729992  10.6274990  93.9739997  68.1599992   9.8314990  94.6209997
  68.4288161  10.4587198  94.0818689  63.6399992   5.4274990  91.8069997
  63.7899992   4.6984990  91.2039997  63.6419992   6.2044990  91.2479997
  63.6607664   5.4328971  91.6490525  64.0519992   3.7964990  89.2989997
  64.5879992   4.2484990  88.6469997  63.1999992   3.6884990  88.8769997
  64.0101648   3.8437883  89.1526395  65.6339992   9.2364990  89.5389997
  66.3849992   9.0804990  88.9659997  65.2949992  10.0884990  89.2629997
  65.6909052   9.3302745  89.4233469  70.0499992   7.0514990  94.5669997
  70.2419992   6.1204990  94.4559997  70.9069992   7.4764990  94.5569997
  70.1922320   6.9814743  94.5504433  71.3659992   9.8404990  92.6449997
  71.0849992  10.5494990  92.0669997  72.3089992   9.7674990  92.4939997
  71.4549272   9.9276704  92.5454976  62.1179992   6.6254990  93.7179997
  61.3509992   6.0924990  93.5079997  62.7969992   6.3154990  93.1189997
  62.1048292   6.5106360  93.6082693  64.8579992   1.2534990  89.7309997
  64.7599992   2.1994990  89.6249997  64.1149992   0.8804990  89.2549997
  64.7442363   1.3325987  89.6522029  66.1219992   5.5744990  93.2939997
  65.8859992   5.3554990  94.1959997  65.3389992   5.3674990  92.7849997
  65.9838444   5.5165688  93.3484518  68.8379992   4.7024990  92.3699997
  67.8899992   4.7344990  92.5019997  69.1499992   4.0764990  93.0239997
  68.7505293   4.6222934  92.4764130  70.4719992   3.3364990  94.3749997
  70.3749992   2.3844990  94.3689997  70.1499992   3.6044990  95.2359997
  70.4152229   3.2424706  94.4905108  60.2989992   4.5454990  93.4229997
  60.5099992   3.8394990  92.8119997  60.1869992   4.1084990  94.2669997
  60.3127674   4.3896376  93.4534199  65.0799992   0.5474990  92.4019997
  65.7909992  -0.0925010  92.3879997  64.9789992   0.8134990  91.4879997
  65.1636732   0.4958451  92.2765475  65.4329992   2.2294990  94.4559997
  65.3019992   1.7544990  93.6349997  64.8339992   2.9744990  94.3999997
  65.3341524   2.2651968  94.3361553  58.5479992  13.7494990  77.1149997
  59.4619992  13.8284990  77.3879997  58.5549992  13.0624990  76.4479997
  58.6740769  13.6674735  77.0622366  57.1969992  19.1424990  82.1919997
  56.5499992  18.6804990  81.6589997  57.5519992  18.4704990  82.7749997
  57.1563861  18.9884707  82.1977939  58.0669992  17.2224990  83.9969997
  57.7329992  16.3424990  84.1689997  58.2889992  17.5684990  84.8609997
  58.0512677  17.1487365  84.1374252  75.6159992  18.0324990  86.9769997
  75.5939992  18.2174990  87.9159997  76.3059992  18.6004990  86.6359997
  75.7063439  18.1346898  87.0594774  75.1789992  17.5994990  89.8989997
  74.6919992  16.8634990  89.5279997  75.7279992  17.2054990  90.5769997
  75.1866101  17.4456267  89.9399034  73.6299992  13.3894990  94.5369997
  72.7639992  13.2844990  94.9309997  74.0059992  14.1474990  94.9839997
  73.5623768  13.4776151  94.6513258  74.9309992  11.6454990  80.0509997
  75.7809992  12.0664990  80.1789997  74.9359992  10.9054990  80.6589997
  75.0479745  11.6031347  80.1506479  75.3249992   9.6994990  81.8749997
  74.5989992   9.2194990  82.2729997  75.9059992   9.9044990  82.6069997
  75.3042504   9.6615592  82.0284199  75.0839992  12.4844990  86.8229997
  75.9179992  12.1064990  86.5419997  75.1959992  13.4274990  86.7039997
  75.2131917  12.5602954  86.7684844  73.5699992  15.3624990  89.1299997
  72.9229992  15.6874990  89.7549997  73.0529992  14.9214990  88.4549997
  73.4114068  15.3474726  89.1244918  75.5929992   9.6004990  78.2659997
  75.0719992   9.9564990  77.5469997  75.5599992  10.2754990  78.9439997
  75.5171525   9.7405273  78.2591408  73.1119992   8.2204990  82.4379997
  72.9619992   7.2754990  82.4179997  72.7579992   8.5014990  83.2819997
  73.0436351   8.1291656  82.5493202  58.1469992  10.2984990  86.4479997
  58.3309992  10.2164990  85.5129997  58.9959992  10.1744990  86.8719997
  58.2870259  10.2704915  86.3771771  73.9679992  10.1904990  92.0769997
  74.5509992   9.4554990  92.2679997  74.5319992  10.9624990  92.1229997
  74.1240326  10.1942746  92.1093579  75.4649992   8.0934990  92.7609997
  74.6009992   7.7144990  92.5959997  76.0689992   7.3544990  92.6869997
  75.4284912   7.9417937  92.7284360  72.8219992   5.8024990  80.8999997
  73.1019992   4.8954990  81.0249997  73.5809992   6.2364990  80.5109997
  72.9629471   5.7370654  80.8645052  73.4339992   6.3844990  86.3359997
  74.3669992   6.5964990  86.3019997  73.1989992   6.4854990  87.2589997
  73.5298357   6.4271303  86.4560232  73.4629992   7.1214990  89.1119997
  72.6199992   7.3894990  89.4779997  73.9059992   7.9434990  88.9009997
  73.4074358   7.2693294  89.1335999  57.7439992   5.5684990  92.5889997
  58.6639992   5.4464990  92.8249997  57.2949992   4.8184990  92.9779997
  57.8091561   5.4503720  92.6739015  75.7459992   1.1014990  94.4659997
  76.0959992   0.4474990  93.8599997  75.8929992   1.9384990  94.0259997
  75.8137192   1.1252545  94.3236712  73.4359992   3.0654990  80.9489997
  73.6179992   2.6164990  81.7739997  72.8359992   2.4814990  80.4849997
  73.3798187   2.9250563  80.9992721  58.9659992   3.8814990  85.4799997
  59.4109992   3.0894990  85.7819997  59.4319992   4.5974990  85.9109997
  59.0899059   3.8699485  85.5796061  57.2699992   6.8804990  86.5489997
  57.7619992   6.6594990  85.7589997  57.6319992   7.7204990  86.8299997
  57.3863429   6.9638220  86.4787918  75.2659992   3.2104990  92.8149997
  74.3489992   3.4814990  92.7789997  75.3889992   2.6754990  92.0309997
  75.1570828   3.1752711  92.7040767  72.3539992  18.1224990  82.5489997
  73.0059992  17.7744990  81.9409997  72.8649992  18.6104990  83.1949997
  72.5122872  18.1408248  82.5530964  57.5469992   1.8764990  88.9479997
  56.8819992   1.6304990  89.5909997  57.1039992   2.4984990  88.3709997
  57.3961168   1.9269225  88.9579830  59.7389992  15.0514990  93.0919997
  58.9179992  15.2264990  92.6319997  59.4869992  14.9784990  94.0129997
  59.5926173  15.0655806  93.1534954  62.6929992  16.0254990  89.3509997
  62.2679992  16.8354990  89.0679997  63.5969992  16.1114990  89.0489997
  62.7571002  16.1478728  89.2714798  67.0039992  17.4244990  92.3099997
  67.1889992  17.0914990  93.1879997  67.8509992  17.7344990  91.9879997
  67.1437291  17.4208214  92.3866140  69.3489992  18.7104990  91.5539997
  70.0259992  18.0774990  91.3139997  69.6709992  19.1114990  92.3619997
  69.4851280  18.6780638  91.6303190  74.2669992   1.3004990  90.6339997
  73.4539992   1.6254990  90.2459997  74.4999992   0.5394990  90.1009997
  74.1872566   1.2421570  90.5089196  60.0949992  19.2824990  89.3979997
  59.3739992  19.7224990  88.9469997  59.7289992  19.0314990  90.2469997
  59.9469785  19.3087691  89.4509849  62.5619992  18.8824990  88.4279997
  61.6969992  18.9544990  88.8319997  62.5069992  19.4294990  87.6439997
  62.4362066  18.9662678  88.3773371  67.2729992  18.7704990  87.6039997
  66.8159992  19.2994990  86.9499997  67.4349992  19.3734990  88.3289997
  67.2323919  18.9243990  87.6125740  69.5999992  17.6484990  88.5489997
  68.6959992  17.8134990  88.2829997  70.0289992  18.5014990  88.4829997
  69.5342017  17.7864184  88.5036495  72.2039992  19.2184990  88.8439997
  72.0229992  20.1344990  88.6329997  72.3809992  18.8074990  87.9969997
  72.2031377  19.2883365  88.7007178  59.5099992  17.9054990  86.3089997
  59.4909992  17.4794990  87.1659997  60.3139992  17.5864990  85.8999997
  59.6161393  17.8040297  86.3710155  61.6509992  16.6154990  84.9639997
  61.4319992  15.6984990  85.1329997  62.4749992  16.7554990  85.4299997
  61.7324637  16.5089586  85.0501414  64.1879992  17.0854990  85.8119997
  64.4009992  16.1974990  85.5249997  64.2529992  17.0504990  86.7669997
  64.2259075  16.9593318  85.9017355  67.6969992   2.7494990  84.9569997
  67.0219992   2.1194990  85.2119997  68.2609992   2.2654990  84.3539997
  67.6809558   2.5979283  84.9103451  72.8389992   0.8564990  85.0689997
  73.4429992   1.4044990  84.5679997  71.9699992   1.1754990  84.8289997
  72.8041126   0.9747070  84.9679180  74.5659992   1.9954990  83.4029997
  75.1779992   1.4814990  82.8759997  74.9489992   2.8724990  83.4259997
  74.7013867   2.0437613  83.3340888  60.0229992   1.3834990  82.7789997
  59.2459992   1.1484990  82.2709997  60.5539992   0.5864990  82.7879997
  59.9884443   1.2436721  82.7107200  64.6029992   1.3094990  82.5919997
  65.4769992   1.6984990  82.5619997  64.4669992   1.0944990  83.5149997
  64.7043125   1.3337120  82.7126523  70.1589992   1.3394990  84.2409997
  70.2359992   1.4354990  83.2919997  69.8839992   0.4324990  84.3699997
  70.1323407   1.2299188  84.1283532  71.5129992   1.3654990  79.9339997
  70.8099992   1.9804990  79.7239997  71.0679992   0.5284990  80.0649997
  71.3566550   1.3364679  79.9229819  65.7469992   3.3904990  79.4819997
  65.9249992   2.7434990  80.1649997  65.6929992   4.2244990  79.9489997
  65.7640678   3.4146615  79.6386283  74.3339992  17.9014990  80.5569997
  74.1399992  17.1534990  79.9919997  74.2949992  18.6594990  79.9729997
  74.3021907  17.9015770  80.4008077  59.9809992   1.8974990  92.2959997
  59.6149992   1.1314990  92.7389997  60.8939992   1.9264990  92.5829997
  60.0543225   1.7966917  92.3953441  61.9539992   1.2474990  93.8319997
  62.8529992   0.9734990  93.6469997  61.5679992   0.5054990  94.2959997
  62.0247237   1.1096520  93.8694693  70.3749992   0.5804990  94.0139997
  70.4519992   0.1544990  94.8679997  71.2689992   0.5934990  93.6719997
  70.5063315   0.5240320  94.0845052  73.5519992  16.6524990  92.7069997
  72.7699992  16.4664990  92.1869997  73.4799992  17.5824990  92.9239997
  73.4352975  16.7526973  92.6651823  87.9579992  10.5394990  82.7369997
  88.0469992  11.4834990  82.6049997  87.3189992  10.2644990  82.0789997
  87.8838319  10.6314984  82.6300276  86.8909992   9.7944990  86.1559997
  86.8519992   9.1484990  86.8609997  86.5679992   9.3274990  85.3849997
  86.8420199   9.6430089  86.1482865  79.2589992   9.4084990  87.7489997
  79.2999992   8.7834990  88.4729997  79.9619992  10.0324990  87.9309997
  79.3596054   9.4073262  87.8726311  90.5969992  12.7334990  84.4579997
  90.1559992  12.0134990  84.9079997  90.5839992  13.4544990  85.0879997
  90.5348398  12.7323187  84.6047734  80.1829992  13.8584990  86.2839997
  79.8129992  13.0564990  85.9149997  81.1239992  13.6904990  86.3309997
  80.2595630  13.7258680  86.2397873  76.7929992   7.5184990  81.6769997
  76.3449992   8.3644990  81.6589997  76.2319992   6.9394990  81.1619997
  76.6558546   7.5559004  81.6048874  77.5029992   9.6804990  83.8029997
  77.7169992   8.9104990  84.3299997  78.2409992   9.7704990  83.1999997
  77.6320073   9.5873546  83.7935786  87.7079992  17.8374990  84.6699997
  88.3279992  17.1614990  84.3969997  87.4999992  17.6194990  85.5779997
  87.7647360  17.7154792  84.7554387  85.2799992  12.2264990  86.5619997
  85.5839992  11.5404990  85.9679997  86.0019992  12.3454990  87.1799997
  85.4191152  12.1487201  86.5642106  93.9429992   3.8284990  87.4229997
  93.9919992   4.4384990  88.1589997  94.3689992   4.2894990  86.6999997
  94.0072851   3.9743266  87.4260532  88.4209992   6.6204990  86.8899997
  88.5629992   5.6744990  86.9099997  88.3149992   6.8274990  85.9609997
  88.4261158   6.5189722  86.7672241  81.5759992   4.7224990  84.1619997
  81.6189992   5.5824990  83.7439997  81.1179992   4.1694990  83.5289997
  81.5199613   4.7655689  84.0191276  89.2979992   4.8534990  82.5629997
  89.9439992   4.5244990  83.1879997  89.8079992   5.3704990  81.9399997
  89.4554392   4.8783710  82.5643248  78.1959992   7.1194990  84.9239997
  78.8499992   6.5694990  85.3559997  78.2199992   6.8454990  84.0079997
  78.2887022   7.0072005  84.8591698  83.3519992   8.6694990  84.1399997
  83.9679992   8.1424990  84.6489997  82.7659992   8.0294990  83.7359997
  83.3570652   8.5108919  84.1550277  94.3349992   5.3064990  89.6589997
  93.6459992   5.9644990  89.5639997  94.3499992   5.1084990  90.5959997
  94.2427756   5.3697614  89.7725795  80.3859992   3.6404990  88.2359997
  80.1669992   4.1704990  87.4699997  79.7179992   3.8664990  88.8839997
  80.2657271   3.7436508  88.2186206  87.7549992  13.1404990  81.7799997
  87.4589992  12.8174990  80.9289997  87.4309992  14.0404990  81.8219997
  87.6706501  13.2179058  81.6690893  82.9549992  11.3154990  88.5239997
  82.2149992  11.9144990  88.6269997  83.6689992  11.8694990  88.2079997
  82.9503288  11.4722368  88.4953787  91.0619992   4.1444990  84.5439997
  90.8469992   3.3784990  85.0759997  91.7179992   4.6164990  85.0569997
  91.1212451   4.1034472  84.6861699  79.9799992   5.5324990  86.1889997
  80.5929992   6.1654990  86.5619997  80.4919992   5.0604990  85.5319997
  80.1331680   5.5554006  86.1512830  81.3619992  13.2804990  89.3109997
  81.3569992  14.1594990  88.9329997  80.5089992  13.1964990  89.7359997
  81.2459199  13.3895901  89.3166942  77.4839992  12.9514990  80.0929997
  77.2119992  13.1804990  79.2039997  77.5289992  13.7884990  80.5529997
  77.4528709  13.0961069  80.0336089  91.1089992  14.5724990  86.8059997
  90.1669992  14.6314990  86.9669997  91.3849992  15.4784990  86.6689997
  91.0175771  14.7030270  86.8094827  91.4089992   2.8594990  88.2229997
  90.6729992   3.4694990  88.1849997  92.0929992   3.2744990  87.6969997
  91.4005885   2.9991924  88.1466931  84.4119992   0.9454990  85.6889997
  84.2949992  -0.0025010  85.6349997  83.5569992   1.2784990  85.9619997
  84.2803691   0.8605842  85.7185072  89.3609992  16.3534990  83.4309997
  89.7859992  15.6464990  82.9459997  89.6779992  17.1554990  83.0139997
  89.4620266  16.3650201  83.3082461  90.5199992  14.2544990  81.9399997
  90.2629992  13.5644990  81.3279997  90.5909992  13.8114990  82.7849997
  90.4944322  14.1001568  81.9705372  92.2059992  12.8214990  90.4169997
  92.3459992  12.2294990  89.6779997  92.3739992  13.6944990  90.0609997
  92.2478734  12.8584041  90.2676937  86.6789992   9.7834990  80.1889997
  85.9669992  10.3184990  79.8379997  87.3699992   9.8384990  79.5289997
  86.6748696   9.8642591  80.0516372  94.0479992   9.1614990  88.4829997
  93.3959992   9.8554990  88.5719997  94.5129992   9.3714990  87.6729997
  94.0215357   9.2849544  88.3857056  90.0849992   9.9924990  81.1409997
  89.3529992  10.2214990  81.7139997  90.5319992   9.2794990  81.5959997
  90.0452753   9.9273984  81.2809698  89.9819992   8.1674990  90.2089997
  90.0619992   8.9304990  90.7809997  89.3809992   8.4464990  89.5179997
  89.9117115   8.3097707  90.1939631  81.7299992  10.6234990  83.0239997
  81.3999992  10.2524990  82.2049997  82.3179992   9.9524990  83.3699997
  81.7644056  10.4821257  82.9589035  83.0969992  14.0514990  85.7049997
  83.0019992  13.4724990  84.9479997  83.8259992  13.6804990  86.2009997
  83.1826161  13.9220902  85.6685191  82.0969992   9.3914990  86.6569997
  82.6619992   9.5134990  85.8939997  82.4149992  10.0294990  87.2959997
  82.2173430   9.4944448  86.6389094  88.4059992  14.8954990  87.3909997
  88.1649992  15.5574990  88.0389997  88.2079992  14.0604990  87.8159997
  88.3462662  14.8732704  87.5371008  82.9769992  13.7914990  91.3739997
  82.6649992  14.5734990  91.8299997  82.3269992  13.6384990  90.6879997
  82.8464643  13.8778019  91.3436657  79.8969992   9.9894990  90.6029997
  79.9669992  10.6404990  91.3009997  79.0059992  10.0924990  90.2679997
  79.7861802  10.0924769  90.6532231  86.6819992  15.8914990  82.2619997
  87.1559992  16.1874990  83.0389997  86.1189992  16.6304990  82.0279997
  86.6708461  16.0318336  82.3367626  81.2159992  15.8624990  92.1379997
  81.2239992  15.7264990  91.1899997  80.2999992  15.7454990  92.3899997
  81.0932512  15.8280663  92.0423179  92.6539992   0.9054990  78.6389997
  91.7539992   1.0434990  78.9339997  92.9059992   1.7364990  78.2369997
  92.5647355   1.0368200  78.6250539  80.7199992   9.6924990  80.6129997
  80.4279992  10.4604990  80.1219997  80.0459992   9.0334990  80.4499997
  80.5888843   9.7084537  80.5237695  76.8129992  12.0554990  89.4279997
  76.3119992  12.0274990  88.6129997  76.8189992  11.1504990  89.7379997
  76.7451690  11.9292234  89.3582770  76.5639992  14.8364990  86.3119997
  77.5099992  14.6914990  86.2929997  76.4509992  15.6204990  86.8489997
  76.6783578  14.9226708  86.3820300  94.7609992  15.5024990  91.9939997
  94.7119992  14.5464990  91.9569997  93.9349992  15.7694990  92.3959997
  94.6425767  15.4078841  92.0433133  85.7399992  15.0764990  90.8699997
  85.8269992  15.9024990  91.3449997  84.8759992  14.7464990  91.1189997
  85.6351944  15.1449871  90.9686558  86.1539992  18.8484990  80.6759997
  86.0789992  18.7274990  79.7299997  86.1869992  19.7974990  80.7949997
  86.1481862  18.9602492  80.5624840  79.8079992  17.6374990  82.4569997
  79.9599992  17.2894990  83.3359997  78.9569992  17.2804990  82.2019997
  79.7137899  17.5416749  82.5427322  88.9249992  17.9284990  80.4279997
  87.9899992  18.0284990  80.6069997  89.2049992  17.2184990  81.0059997
  88.8349270  17.8462300  80.5305984  91.9129992   6.9954990  92.4739997
  91.5059992   7.4754990  91.7539997  91.9539992   6.0894990  92.1669997
  91.8627178   6.9388609  92.3337441  79.0619992  13.3794990  90.4709997
  79.2779992  13.0174990  91.3309997  78.2069992  13.0044990  90.2609997
  78.9759349  13.2792914  90.5602134  81.6809992   1.8494990  86.4669997
  80.8189992   1.7624990  86.0589997  81.6589992   2.7054990  86.8939997
  81.5600953   1.9533558  86.4689262  86.3439992   1.5714990  89.8409997
  86.7639992   1.1564990  90.5939997  85.4109992   1.3924990  89.9579997
  86.2753736   1.4904921  89.9598950  89.6699992   5.3264990  90.6949997
  89.1559992   5.2014990  91.4919997  89.5149992   6.2394990  90.4499997
  89.5786643   5.4327068  90.7710624  86.0059992   4.0634990  77.1259997
  85.7519992   4.0824990  78.0489997  85.7489992   3.1924990  76.8249997
  85.9365133   3.9483121  77.2115065  81.7719992   6.8144990  87.5619997
  81.1299992   6.7744990  88.2709997  81.8089992   7.7414990  87.3239997
  81.6891659   6.9342540  87.6268463  81.7689992   7.0354990  82.4739997
  80.8759992   6.6954990  82.4149997  82.2199992   6.6584990  81.7179997
  81.7077185   6.9380220  82.3637698  87.3049992   7.4514990  81.2909997
  86.8959992   8.2664990  80.9989997  88.0249992   7.3114990  80.6759997
  87.3463946   7.5439963  81.1679616  86.4069992   7.6274990  92.7789997
  85.8439992   6.9224990  93.0989997  87.2329992   7.5064990  93.2459997
  86.4416423   7.5145614  92.8860168  88.3089992   6.8974990  84.1049997
  88.1139992   7.5034990  83.3899997  88.4909992   6.0644990  83.6699997
  88.3069272   6.8677955  83.9484075  79.5219992   7.1354990  89.4289997
  79.4839992   7.5354990  90.2969997  79.0309992   6.3184990  89.5189997
  79.4504246   7.0798842  89.5601171  76.1299992   4.2514990  83.2789997
  76.7609992   4.2224990  83.9989997  76.5799992   3.8264990  82.5489997
  76.2770905   4.1900839  83.2787479  77.4039992   4.9974990  78.7029997
  77.8789992   5.5884990  78.1179997  76.6869992   5.5274990  79.0499997
  77.3720406   5.1501011  78.6698495  87.5729992   8.5354990  88.7759997
  87.8969992   7.9044990  88.1329997  87.1329992   8.0014990  89.4369997
  87.5578707   8.3768261  88.7773195  84.3509992   4.4634990  83.5599997
  83.4399992   4.5204990  83.8489997  84.8559992   4.4034990  84.3709997
  84.2946873   4.4631838  83.7091190  79.1789992   6.0924990  82.3869997
  78.2899992   6.1914990  82.0469997  79.4749992   5.2504990  82.0409997
  79.0974001   5.9922473  82.2937318  82.8319992   6.0924990  80.0429997
  83.7639992   6.2214990  80.2209997  82.6169992   6.7614990  79.3939997
  82.9304245   6.2006452  79.9795602  88.7559992   3.6984990  86.8239997
  88.0789992   3.8294990  87.4879997  88.2699992   3.5434990  86.0139997
  88.5977265   3.6954665  86.8053380  92.0429992  19.3694990  93.1009997
  92.2429992  19.7934990  92.2659997  92.6989992  19.7134990  93.7079997
  92.1589916  19.4739784  93.0687890  79.6409992  11.8434990  92.7089997
  80.3729992  12.0984990  93.2699997  78.8609992  12.0484990  93.2239997
  79.6357684  11.9061457  92.8554774  85.6709992   7.2504990  85.4469997
  86.2349992   6.7044990  84.8999997  85.5229992   6.7294990  86.2359997
  85.7283037   7.1051798  85.4787212  80.6729992   3.3874990  81.8649997
  80.3549992   2.4844990  81.8299997  81.4539992   3.3894990  81.3129997
  80.7351560   3.2641148  81.7854975  84.2969992   5.6394990  87.8609997
  83.4619992   6.0934990  87.9709997  84.8209992   5.9154990  88.6129997
  84.2535070   5.7389677  87.9777134  84.8409992  11.8524990  79.5459997
  84.0959992  11.3444990  79.2229997  84.7069992  11.9014990  80.4919997
  84.7208633  11.7895714  79.6297563  91.9909992  10.9854990  88.3319997
  92.6329992  11.4414990  87.7889997  91.1609992  11.0984990  87.8699997
  91.9667352  11.0633223  88.1950234  88.7389992   4.6664990  77.7449997
  87.7999992   4.7774990  77.5939997  89.0359992   5.5224990  78.0509997
  88.6506371   4.7975327  77.7657362  86.3609992  12.0364990  90.7829997
  86.0149992  11.6544990  91.5889997  86.1609992  12.9694990  90.8539997
  86.2865400  12.1103489  90.9030401  79.9659992  11.1474990  85.3149997
  80.7109992  11.1444990  84.7139997  80.0439992  10.3234990  85.7969997
  80.0784158  11.0357928  85.2979136  86.9669992  13.3104990  78.5709997
  86.6719992  14.1374990  78.9529997  86.2639992  12.6914990  78.7669997
  86.8315855  13.3399458  78.6497634  76.9739992   9.6074990  90.6299997
  77.1969992   9.1894990  91.4619997  76.3719992   8.9954990  90.2079997
  76.9230802   9.4675216  90.6867561  83.9909992   9.1244990  92.8429997
  83.6949992   8.9594990  91.9479997  84.9219992   8.9044990  92.8329997
  84.0763909   9.0721274  92.7190110  88.6109992  14.4984990  90.7329997
  87.7099992  14.6814990  90.4649997  88.6449992  14.7574990  91.6539997
  88.4923021  14.5585505  90.8208206  94.3419992   6.7424990  79.0999997
  93.7879992   6.3464990  78.4279997  94.4429992   7.6534990  78.8229997
  94.2797084   6.8113565  78.9704381  94.3049992  12.5434990  91.9369997
  93.4539992  12.7814990  91.5699997  94.8959992  12.5264990  91.1839997
  94.2682468  12.5738251  91.7848902  92.6369992  15.5284990  79.5649997
  92.2649992  14.7034990  79.8749997  92.9149992  15.3454990  78.6679997
  92.6235997  15.3906160  79.4861551  89.7979992  10.3364990  86.5869997
  88.8699992  10.1054990  86.5599997  90.2489992   9.5594990  86.2569997
  89.7318165  10.1997785  86.5386772  82.3409992  14.6654990  82.7199997
  82.8679992  15.4384990  82.5189997  81.4609992  14.8894990  82.4179997
  82.2941793  14.8016652  82.6516304  83.7679992  12.3284990  82.2959997
  83.5269992  13.2534990  82.3379997  83.0279992  11.8694990  82.6919997
  83.6348934  12.3930881  82.3553191  84.2829992  16.4774990  88.6109997
  84.6459992  17.3314990  88.3779997  84.8149992  16.1854990  89.3519997
  84.4045141  16.5548907  88.6792079  82.4509992  17.3494990  81.8409997
  81.5019992  17.4554990  81.8929997  82.8029992  18.1704990  82.1859997
  82.3686214  17.4749361  81.8947317  87.8269992  12.5764990  88.3119997
  87.4009992  12.3484990  89.1379997  88.4079992  11.8374990  88.1289997
  87.8471587  12.4454084  88.4004111  90.4859992  17.1284990  90.7809997
  89.8839992  16.5724990  90.2859997  90.7669992  17.7954990  90.1549997
  90.4415757  17.1425755  90.6285657  78.6079992   4.3614990  90.1879997
  77.7149992   4.6994990  90.1209997  78.5089992   3.5054990  90.6059997
  78.4725241   4.2920941  90.2352982  90.8959992  12.1774990  79.6119997
  90.6189992  11.4494990  80.1679997  91.8229992  12.2964990  79.8179997
  90.9834181  12.0940068  79.7158972  78.2589992  16.1654990  88.6229997
  78.4759992  15.2334990  88.5919997  78.5059992  16.4404990  89.5069997
  78.3220543  16.0750877  88.7381412  83.0579992  14.1874990  78.2889997
  83.2049992  13.6674990  79.0789997  83.0549992  15.0944990  78.5949997
  83.0777300  14.2388975  78.4385877  79.5109992  11.4394990  78.7989997
  78.8249992  11.7924990  79.3659997  80.0339992  12.2024990  78.5529997
  79.4879033  11.5908757  78.8432644  87.3419992   4.1024990  89.0779997
  88.0409992   4.1764990  89.7279997  86.9619992   3.2374990  89.2329997
  87.3862095   3.9957402  89.1877982  88.1269992   3.7544990  80.1749997
  88.3469992   4.2254990  79.3719997  88.6849992   4.1484990  80.8459997
  88.2325851   3.8723272  80.1556134  85.7959992  15.8844990  79.0379997
  84.9789992  16.3814990  79.0909997  86.3249992  16.3604990  78.3979997
  85.7557898  16.0168123  78.9587274  85.3269992   5.4824990  81.0099997
  86.1389992   5.9864990  81.0559997  85.0819992   5.3374990  81.9239997
  85.4051091   5.5319366  81.1398552  85.8629992   6.4684990  90.1949997
  85.9819992   7.0424990  90.9519997  86.5179992   5.7804990  90.3099997
  85.9678684   6.4540205  90.3141656  86.2109992   2.5634990  81.9479997
  85.8639992   3.1804990  82.5929997  86.8689992   3.0644990  81.4669997
  86.2525290   2.7156384  81.9711635  83.1339992  16.9284990  79.0199997
  83.2949992  17.7284990  78.5189997  82.9369992  17.2354990  79.9049997
  83.1293919  17.0794140  79.0710988  81.8679992   3.6264990  78.6359997
  81.7849992   4.5144990  78.9819997  82.7579992   3.3614990  78.8669997
  81.9769751   3.7122482  78.7146066  92.0669992   4.3754990  91.0299997
  91.1509992   4.6374990  90.9419997  92.4029992   4.3724990  90.1329997
  91.9869789   4.4109637  90.8967829  90.6689992   8.1254990  85.1259997
  89.8719992   7.7104990  84.7969997  91.1139992   7.4354990  85.6169997
  90.6200317   7.9753197  85.1473557  78.4429992   6.7184990  76.8119997
  78.3979992   7.6574990  76.9909997  77.5549992   6.4824990  76.5419997
  78.3168472   6.8151946  76.8000282  91.7559992  17.3814990  86.7479997
  91.5999992  18.0604990  86.0909997  92.6879992  17.4534990  86.9509997
  91.8607328  17.4841586  86.6855529  79.2509992   1.4994990  85.4849997
  79.0219992   1.5584990  84.5579997  78.8079992   0.7084990  85.7919997
  79.1597387   1.4006412  85.3995223  78.1809992  15.4404990  81.6459997
  77.3489992  15.9124990  81.6729997  78.7269992  15.9504990  81.0469997
  78.1408710  15.5740317  81.5687570  77.4699992  18.0524990  92.9759997
  78.0099992  17.8364990  93.7349997  76.9879992  17.2474990  92.7859997
  77.4789101  17.9140216  93.0544364  82.0669992  16.9724990  94.5959997
  82.8349992  16.5134990  94.9369997  82.0459992  16.7464990  93.6659997
  82.1692135  16.8791680  94.5169473  88.6439992  15.3524990  93.3249997
  88.2929992  14.4954990  93.5679997  89.3699992  15.4944990  93.9319997
  88.6941590  15.2545189  93.4402889  77.3769992  11.8634990  93.9299997
  77.5209992  10.9614990  93.6439997  76.6039992  12.1494990  93.4419997
  77.2922854  11.7786876  93.8249363  84.0319992  11.8324990  93.3629997
  83.7039992  12.1034990  92.5049997  84.1839992  10.8914990  93.2749997
  84.0076970  11.7423694  93.2337953  89.7669992  11.7484990  90.7459997
  90.5119992  12.3374990  90.6259997  89.0089992  12.3304990  90.8089997
  89.7665185  11.9077000  90.7380940  78.2089992   9.0634990  93.3499997
  78.6169992   8.2064990  93.2289997  77.9489992   9.0774990  94.2709997
  78.2297082   8.9480596  93.4579469  82.8669992  10.1794990  78.3679997
  82.4079992   9.6954990  79.0539997  83.1219992   9.5104990  77.7319997
  82.8386178  10.0228511  78.3759785  82.1559992   8.0724990  90.7239997
  81.5379992   8.7464990  91.0049997  82.4999992   8.3934990  89.8909997
  82.1178181   8.2083233  90.6498266  87.1759992  10.5434990  94.0019997
  88.1289992  10.6274990  93.9739997  87.0159992   9.8314990  94.6209997
  87.2848161  10.4587198  94.0818689  82.4959992   5.4274990  91.8069997
  82.6459992   4.6984990  91.2039997  82.4979992   6.2044990  91.2479997
  82.5167664   5.4328971  91.6490525  82.9079992   3.7964990  89.2989997
  83.4439992   4.2484990  88.6469997  82.0559992   3.6884990  88.8769997
  82.8661648   3.8437883  89.1526395  84.4899992   9.2364990  89.5389997
  85.2409992   9.0804990  88.9659997  84.1509992  10.0884990  89.2629997
  84.5469052   9.3302745  89.4233469  88.9059992   7.0514990  94.5669997
  89.0979992   6.1204990  94.4559997  89.7629992   7.4764990  94.5569997
  89.0482320   6.9814743  94.5504433  90.2219992   9.8404990  92.6449997
  89.9409992  10.5494990  92.0669997  91.1649992   9.7674990  92.4939997
  90.3109272   9.9276704  92.5454976  80.9739992   6.6254990  93.7179997
  80.2069992   6.0924990  93.5079997  81.6529992   6.3154990  93.1189997
  80.9608292   6.5106360  93.6082693  83.7139992   1.2534990  89.7309997
  83.6159992   2.1994990  89.6249997  82.9709992   0.8804990  89.2549997
  83.6002363   1.3325987  89.6522029  84.9779992   5.5744990  93.2939997
  84.7419992   5.3554990  94.1959997  84.1949992   5.3674990  92.7849997
  84.8398444   5.5165688  93.3484518  87.6939992   4.7024990  92.3699997
  86.7459992   4.7344990  92.5019997  88.0059992   4.0764990  93.0239997
  87.6065293   4.6222934  92.4764130  89.3279992   3.3364990  94.3749997
  89.2309992   2.3844990  94.3689997  89.0059992   3.6044990  95.2359997
  89.2712229   3.2424706  94.4905108  79.1549992   4.5454990  93.4229997
  79.3659992   3.8394990  92.8119997  79.0429992   4.1084990  94.2669997
  79.1687674   4.3896376  93.4534199  83.9359992   0.5474990  92.4019997
  84.6469992  -0.0925010  92.3879997  83.8349992   0.8134990  91.4879997
  84.0196732   0.4958451  92.2765475  84.2889992   2.2294990  94.4559997
  84.1579992   1.7544990  93.6349997  83.6899992   2.9744990  94.3999997
  84.1901524   2.2651968  94.3361553  76.0529992  19.1424990  82.1919997
  75.4059992  18.6804990  81.6589997  76.4079992  18.4704990  82.7749997
  76.0123861  18.9884707  82.1977939  76.9229992  17.2224990  83.9969997
  76.5889992  16.3424990  84.1689997  77.1449992  17.5684990  84.8609997
  76.9072677  17.1487365  84.1374252  94.4719992  18.0324990  86.9769997
  94.4499992  18.2174990  87.9159997  95.1619992  18.6004990  86.6359997
  94.5623439  18.1346898  87.0594774  94.0349992  17.5994990  89.8989997
  93.5479992  16.8634990  89.5279997  94.5839992  17.2054990  90.5769997
  94.0426101  17.4456267  89.9399034  92.4859992  13.3894990  94.5369997
  91.6199992  13.2844990  94.9309997  92.8619992  14.1474990  94.9839997
  92.4183768  13.4776151  94.6513258  93.7869992  11.6454990  80.0509997
  94.6369992  12.0664990  80.1789997  93.7919992  10.9054990  80.6589997
  93.9039745  11.6031347  80.1506479  94.1809992   9.6994990  81.8749997
  93.4549992   9.2194990  82.2729997  94.7619992   9.9044990  82.6069997
  94.1602504   9.6615592  82.0284199  93.9399992  12.4844990  86.8229997
  94.7739992  12.1064990  86.5419997  94.0519992  13.4274990  86.7039997
  94.0691917  12.5602954  86.7684844  92.4259992  15.3624990  89.1299997
  91.7789992  15.6874990  89.7549997  91.9089992  14.9214990  88.4549997
  92.2674068  15.3474726  89.1244918  94.4489992   9.6004990  78.2659997
  93.9279992   9.9564990  77.5469997  94.4159992  10.2754990  78.9439997
  94.3731525   9.7405273  78.2591408  91.9679992   8.2204990  82.4379997
  91.8179992   7.2754990  82.4179997  91.6139992   8.5014990  83.2819997
  91.8996351   8.1291656  82.5493202  77.0029992  10.2984990  86.4479997
  77.1869992  10.2164990  85.5129997  77.8519992  10.1744990  86.8719997
  77.1430259  10.2704915  86.3771771  92.8239992  10.1904990  92.0769997
  93.4069992   9.4554990  92.2679997  93.3879992  10.9624990  92.1229997
  92.9800326  10.1942746  92.1093579  94.3209992   8.0934990  92.7609997
  93.4569992   7.7144990  92.5959997  94.9249992   7.3544990  92.6869997
  94.2844912   7.9417937  92.7284360  91.6779992   5.8024990  80.8999997
  91.9579992   4.8954990  81.0249997  92.4369992   6.2364990  80.5109997
  91.8189471   5.7370654  80.8645052  92.2899992   6.3844990  86.3359997
  93.2229992   6.5964990  86.3019997  92.0549992   6.4854990  87.2589997
  92.3858357   6.4271303  86.4560232  92.3189992   7.1214990  89.1119997
  91.4759992   7.3894990  89.4779997  92.7619992   7.9434990  88.9009997
  92.2634358   7.2693294  89.1335999  76.5999992   5.5684990  92.5889997
  77.5199992   5.4464990  92.8249997  76.1509992   4.8184990  92.9779997
  76.6651561   5.4503720  92.6739015  94.6019992   1.1014990  94.4659997
  94.9519992   0.4474990  93.8599997  94.7489992   1.9384990  94.0259997
  94.6697192   1.1252545  94.3236712  92.2919992   3.0654990  80.9489997
  92.4739992   2.6164990  81.7739997  91.6919992   2.4814990  80.4849997
  92.2358187   2.9250563  80.9992721  77.8219992   3.8814990  85.4799997
  78.2669992   3.0894990  85.7819997  78.2879992   4.5974990  85.9109997
  77.9459059   3.8699485  85.5796061  76.1259992   6.8804990  86.5489997
  76.6179992   6.6594990  85.7589997  76.4879992   7.7204990  86.8299997
  76.2423429   6.9638220  86.4787918  94.1219992   3.2104990  92.8149997
  93.2049992   3.4814990  92.7789997  94.2449992   2.6754990  92.0309997
  94.0130828   3.1752711  92.7040767  76.4389992   3.1384990  80.6039997
  75.5139992   3.3464990  80.4739997  76.8929992   3.6224990  79.9139997
  76.3737401   3.2323895  80.4929433  91.2099992  18.1224990  82.5489997
  91.8619992  17.7744990  81.9409997  91.7209992  18.6104990  83.1949997
  91.3682872  18.1408248  82.5530964  76.4029992   1.8764990  88.9479997
  75.7379992   1.6304990  89.5909997  75.9599992   2.4984990  88.3709997
  76.2521168   1.9269225  88.9579830  78.5949992  15.0514990  93.0919997
  77.7739992  15.2264990  92.6319997  78.3429992  14.9784990  94.0129997
  78.4486173  15.0655806  93.1534954  81.5489992  16.0254990  89.3509997
  81.1239992  16.8354990  89.0679997  82.4529992  16.1114990  89.0489997
  81.6131002  16.1478728  89.2714798  85.8599992  17.4244990  92.3099997
  86.0449992  17.0914990  93.1879997  86.7069992  17.7344990  91.9879997
  85.9997291  17.4208214  92.3866140  88.2049992  18.7104990  91.5539997
  88.8819992  18.0774990  91.3139997  88.5269992  19.1114990  92.3619997
  88.3411280  18.6780638  91.6303190  93.1229992   1.3004990  90.6339997
  92.3099992   1.6254990  90.2459997  93.3559992   0.5394990  90.1009997
  93.0432566   1.2421570  90.5089196  78.9509992  19.2824990  89.3979997
  78.2299992  19.7224990  88.9469997  78.5849992  19.0314990  90.2469997
  78.8029785  19.3087691  89.4509849  81.4179992  18.8824990  88.4279997
  80.5529992  18.9544990  88.8319997  81.3629992  19.4294990  87.6439997
  81.2922066  18.9662678  88.3773371  86.1289992  18.7704990  87.6039997
  85.6719992  19.2994990  86.9499997  86.2909992  19.3734990  88.3289997
  86.0883919  18.9243990  87.6125740  88.4559992  17.6484990  88.5489997
  87.5519992  17.8134990  88.2829997  88.8849992  18.5014990  88.4829997
  88.3902017  17.7864184  88.5036495  91.0599992  19.2184990  88.8439997
  90.8789992  20.1344990  88.6329997  91.2369992  18.8074990  87.9969997
  91.0591377  19.2883365  88.7007178  78.3659992  17.9054990  86.3089997
  78.3469992  17.4794990  87.1659997  79.1699992  17.5864990  85.8999997
  78.4721393  17.8040297  86.3710155  80.5069992  16.6154990  84.9639997
  80.2879992  15.6984990  85.1329997  81.3309992  16.7554990  85.4299997
  80.5884637  16.5089586  85.0501414  83.0439992  17.0854990  85.8119997
  83.2569992  16.1974990  85.5249997  83.1089992  17.0504990  86.7669997
  83.0819075  16.9593318  85.9017355  86.5529992   2.7494990  84.9569997
  85.8779992   2.1194990  85.2119997  87.1169992   2.2654990  84.3539997
  86.5369558   2.5979283  84.9103451  91.6949992   0.8564990  85.0689997
  92.2989992   1.4044990  84.5679997  90.8259992   1.1754990  84.8289997
  91.6601126   0.9747070  84.9679180  93.4219992   1.9954990  83.4029997
  94.0339992   1.4814990  82.8759997  93.8049992   2.8724990  83.4259997
  93.5573867   2.0437613  83.3340888  78.8789992   1.3834990  82.7789997
  78.1019992   1.1484990  82.2709997  79.4099992   0.5864990  82.7879997
  78.8444443   1.2436721  82.7107200  77.7159992   1.1814990  78.5819997
  78.1549992   1.7924990  77.9909997  77.0819992   1.7194990  79.0559997
  77.6904104   1.3379233  78.5651376  83.4589992   1.3094990  82.5919997
  84.3329992   1.6984990  82.5619997  83.3229992   1.0944990  83.5149997
  83.5603125   1.3337120  82.7126523  89.0149992   1.3394990  84.2409997
  89.0919992   1.4354990  83.2919997  88.7399992   0.4324990  84.3699997
  88.9883407   1.2299188  84.1283532  90.3689992   1.3654990  79.9339997
  89.6659992   1.9804990  79.7239997  89.9239992   0.5284990  80.0649997
  90.2126550   1.3364679  79.9229819  77.6169992  17.1294990  79.4799997
  76.9319992  17.0914990  78.8119997  77.6199992  18.0414990  79.7679997
  77.5237358  17.2476744  79.4276145  84.6029992   3.3904990  79.4819997
  84.7809992   2.7434990  80.1649997  84.5489992   4.2244990  79.9489997
  84.6200678   3.4146615  79.6386283  86.4809992  18.3384990  77.8769997
  87.3469992  18.7054990  77.6989997  86.2339992  17.8994990  77.0639997
  86.5662041  18.3293648  77.7425958  93.1899992  17.9014990  80.5569997
  92.9959992  17.1534990  79.9919997  93.1509992  18.6594990  79.9729997
  93.1581907  17.9015770  80.4008077  78.8369992   1.8974990  92.2959997
  78.4709992   1.1314990  92.7389997  79.7499992   1.9264990  92.5829997
  78.9103225   1.7966917  92.3953441  80.8099992   1.2474990  93.8319997
  81.7089992   0.9734990  93.6469997  80.4239992   0.5054990  94.2959997
  80.8807237   1.1096520  93.8694693  89.2309992   0.5804990  94.0139997
  89.3079992   0.1544990  94.8679997  90.1249992   0.5934990  93.6719997
  89.3623315   0.5240320  94.0845052  92.4079992  16.6524990  92.7069997
  91.6259992  16.4664990  92.1869997  92.3359992  17.5824990  92.9239997
  92.2912975  16.7526973  92.6651822 106.8139992  10.5394990  82.7369997
 106.9029992  11.4834990  82.6049997 106.1749992  10.2644990  82.0789997
 106.7398319  10.6314984  82.6300276 105.7469992   9.7944990  86.1559997
 105.7079992   9.1484990  86.8609997 105.4239992   9.3274990  85.3849997
 105.6980199   9.6430089  86.1482865  98.1149992   9.4084990  87.7489997
  98.1559992   8.7834990  88.4729997  98.8179992  10.0324990  87.9309997
  98.2156054   9.4073262  87.8726311 109.4529992  12.7334990  84.4579997
 109.0119992  12.0134990  84.9079997 109.4399992  13.4544990  85.0879997
 109.3908398  12.7323187  84.6047734  99.0389992  13.8584990  86.2839997
  98.6689992  13.0564990  85.9149997  99.9799992  13.6904990  86.3309997
  99.1155630  13.7258680  86.2397873  95.6489992   7.5184990  81.6769997
  95.2009992   8.3644990  81.6589997  95.0879992   6.9394990  81.1619997
  95.5118546   7.5559004  81.6048874  96.3589992   9.6804990  83.8029997
  96.5729992   8.9104990  84.3299997  97.0969992   9.7704990  83.1999997
  96.4880073   9.5873546  83.7935786 106.5639992  17.8374990  84.6699997
 107.1839992  17.1614990  84.3969997 106.3559992  17.6194990  85.5779997
 106.6207360  17.7154792  84.7554387 104.1359992  12.2264990  86.5619997
 104.4399992  11.5404990  85.9679997 104.8579992  12.3454990  87.1799997
 104.2751152  12.1487201  86.5642106 112.7989992   3.8284990  87.4229997
 112.8479992   4.4384990  88.1589997 113.2249992   4.2894990  86.6999997
 112.8632851   3.9743266  87.4260532 107.2769992   6.6204990  86.8899997
 107.4189992   5.6744990  86.9099997 107.1709992   6.8274990  85.9609997
 107.2821158   6.5189722  86.7672241 100.4319992   4.7224990  84.1619997
 100.4749992   5.5824990  83.7439997  99.9739992   4.1694990  83.5289997
 100.3759613   4.7655689  84.0191276 108.1539992   4.8534990  82.5629997
 108.7999992   4.5244990  83.1879997 108.6639992   5.3704990  81.9399997
 108.3114392   4.8783710  82.5643248  97.0519992   7.1194990  84.9239997
  97.7059992   6.5694990  85.3559997  97.0759992   6.8454990  84.0079997
  97.1447022   7.0072005  84.8591698 102.2079992   8.6694990  84.1399997
 102.8239992   8.1424990  84.6489997 101.6219992   8.0294990  83.7359997
 102.2130652   8.5108919  84.1550277 113.1909992   5.3064990  89.6589997
 112.5019992   5.9644990  89.5639997 113.2059992   5.1084990  90.5959997
 113.0987756   5.3697614  89.7725795  99.2419992   3.6404990  88.2359997
  99.0229992   4.1704990  87.4699997  98.5739992   3.8664990  88.8839997
  99.1217271   3.7436508  88.2186206 106.6109992  13.1404990  81.7799997
 106.3149992  12.8174990  80.9289997 106.2869992  14.0404990  81.8219997
 106.5266501  13.2179058  81.6690893 101.8109992  11.3154990  88.5239997
 101.0709992  11.9144990  88.6269997 102.5249992  11.8694990  88.2079997
 101.8063288  11.4722368  88.4953787 109.9179992   4.1444990  84.5439997
 109.7029992   3.3784990  85.0759997 110.5739992   4.6164990  85.0569997
 109.9772451   4.1034472  84.6861699  98.8359992   5.5324990  86.1889997
  99.4489992   6.1654990  86.5619997  99.3479992   5.0604990  85.5319997
  98.9891680   5.5554006  86.1512830 100.2179992  13.2804990  89.3109997
 100.2129992  14.1594990  88.9329997  99.3649992  13.1964990  89.7359997
 100.1019199  13.3895901  89.3166942  96.3399992  12.9514990  80.0929997
  96.0679992  13.1804990  79.2039997  96.3849992  13.7884990  80.5529997
  96.3088709  13.0961069  80.0336089 109.9649992  14.5724990  86.8059997
 109.0229992  14.6314990  86.9669997 110.2409992  15.4784990  86.6689997
 109.8735771  14.7030270  86.8094827 110.2649992   2.8594990  88.2229997
 109.5289992   3.4694990  88.1849997 110.9489992   3.2744990  87.6969997
 110.2565885   2.9991924  88.1466931 103.2679992   0.9454990  85.6889997
 103.1509992  -0.0025010  85.6349997 102.4129992   1.2784990  85.9619997
 103.1363691   0.8605842  85.7185072 108.2169992  16.3534990  83.4309997
 108.6419992  15.6464990  82.9459997 108.5339992  17.1554990  83.0139997
 108.3180266  16.3650201  83.3082461 109.3759992  14.2544990  81.9399997
 109.1189992  13.5644990  81.3279997 109.4469992  13.8114990  82.7849997
 109.3504322  14.1001568  81.9705372 111.0619992  12.8214990  90.4169997
 111.2019992  12.2294990  89.6779997 111.2299992  13.6944990  90.0609997
 111.1038734  12.8584041  90.2676937 105.5349992   9.7834990  80.1889997
 104.8229992  10.3184990  79.8379997 106.2259992   9.8384990  79.5289997
 105.5308696   9.8642591  80.0516372 112.9039992   9.1614990  88.4829997
 112.2519992   9.8554990  88.5719997 113.3689992   9.3714990  87.6729997
 112.8775357   9.2849544  88.3857056 108.9409992   9.9924990  81.1409997
 108.2089992  10.2214990  81.7139997 109.3879992   9.2794990  81.5959997
 108.9012753   9.9273984  81.2809698 108.8379992   8.1674990  90.2089997
 108.9179992   8.9304990  90.7809997 108.2369992   8.4464990  89.5179997
 108.7677115   8.3097707  90.1939631 100.5859992  10.6234990  83.0239997
 100.2559992  10.2524990  82.2049997 101.1739992   9.9524990  83.3699997
 100.6204056  10.4821257  82.9589035 101.9529992  14.0514990  85.7049997
 101.8579992  13.4724990  84.9479997 102.6819992  13.6804990  86.2009997
 102.0386161  13.9220902  85.6685192 100.9529992   9.3914990  86.6569997
 101.5179992   9.5134990  85.8939997 101.2709992  10.0294990  87.2959997
 101.0733430   9.4944448  86.6389094 107.2619992  14.8954990  87.3909997
 107.0209992  15.5574990  88.0389997 107.0639992  14.0604990  87.8159997
 107.2022662  14.8732704  87.5371008 101.8329992  13.7914990  91.3739997
 101.5209992  14.5734990  91.8299997 101.1829992  13.6384990  90.6879997
 101.7024643  13.8778019  91.3436657 107.8119992   9.1554990  78.8259997
 108.3909992   9.3054990  79.5729997 108.2259992   9.6254990  78.1029997
 107.9473122   9.2396288  78.8305024  98.7529992   9.9894990  90.6029997
  98.8229992  10.6404990  91.3009997  97.8619992  10.0924990  90.2679997
  98.6421802  10.0924769  90.6532231 105.5379992  15.8914990  82.2619997
 106.0119992  16.1874990  83.0389997 104.9749992  16.6304990  82.0279997
 105.5268460  16.0318336  82.3367626 100.0719992  15.8624990  92.1379997
 100.0799992  15.7264990  91.1899997  99.1559992  15.7454990  92.3899997
  99.9492512  15.8280664  92.0423179 111.5099992   0.9054990  78.6389997
 110.6099992   1.0434990  78.9339997 111.7619992   1.7364990  78.2369997
 111.4207355   1.0368200  78.6250539  99.5759992   9.6924990  80.6129997
  99.2839992  10.4604990  80.1219997  98.9019992   9.0334990  80.4499997
  99.4448843   9.7084537  80.5237695  95.6689992  12.0554990  89.4279997
  95.1679992  12.0274990  88.6129997  95.6749992  11.1504990  89.7379997
  95.6011690  11.9292234  89.3582770  95.4199992  14.8364990  86.3119997
  96.3659992  14.6914990  86.2929997  95.3069992  15.6204990  86.8489997
  95.5343578  14.9226708  86.3820300 113.6169992  15.5024990  91.9939997
 113.5679992  14.5464990  91.9569997 112.7909992  15.7694990  92.3959997
 113.4985767  15.4078841  92.0433133 104.5959992  15.0764990  90.8699997
 104.6829992  15.9024990  91.3449997 103.7319992  14.7464990  91.1189997
 104.4911944  15.1449871  90.9686558 105.0099992  18.8484990  80.6759997
 104.9349992  18.7274990  79.7299997 105.0429992  19.7974990  80.7949997
 105.0041862  18.9602492  80.5624840  98.6639992  17.6374990  82.4569997
  98.8159992  17.2894990  83.3359997  97.8129992  17.2804990  82.2019997
  98.5697899  17.5416749  82.5427322 108.1119992  18.0024990  77.6789997
 108.4869992  17.2584990  77.2079997 108.1159992  17.7324990  78.5969997
 108.1638969  17.8640920  77.7386475 107.7809992  17.9284990  80.4279997
 106.8459992  18.0284990  80.6069997 108.0609992  17.2184990  81.0059997
 107.6909270  17.8462300  80.5305984 110.7689992   6.9954990  92.4739997
 110.3619992   7.4754990  91.7539997 110.8099992   6.0894990  92.1669997
 110.7187178   6.9388609  92.3337441  67.6969992 134.7414990  84.9569997
  67.0219992 134.1114990  85.2119997  68.2609992 134.2574990  84.3539997
  67.6809558 134.5899283  84.9103451  72.8389992 132.8484990  85.0689997
  73.4429992 133.3964990  84.5679997  71.9699992 133.1674990  84.8289997
  72.8041126 132.9667070  84.9679180  74.5659992 133.9874990  83.4029997
  75.1779992 133.4734990  82.8759997  74.9489992 134.8644990  83.4259997
  74.7013867 134.0357613  83.3340888  60.0229992 133.3754990  82.7789997
  59.2459992 133.1404990  82.2709997  60.5539992 132.5784990  82.7879997
  59.9884443 133.2356721  82.7107200  64.6029992 133.3014990  82.5919997
  65.4769992 133.6904990  82.5619997  64.4669992 133.0864990  83.5149997
  64.7043125 133.3257120  82.7126523  70.1589992 133.3314990  84.2409997
  70.2359992 133.4274990  83.2919997  69.8839992 132.4244990  84.3699997
  70.1323407 133.2219188  84.1283532  71.5129992 133.3574990  79.9339997
  70.8099992 133.9724990  79.7239997  71.0679992 132.5204990  80.0649997
  71.3566550 133.3284679  79.9229819  65.7469992 135.3824990  79.4819997
  65.9249992 134.7354990  80.1649997  65.6929992 136.2164990  79.9489997
  65.7640678 135.4066615  79.6386283  59.9809992 133.8894990  92.2959997
  59.6149992 133.1234990  92.7389997  60.8939992 133.9184990  92.5829997
  60.0543225 133.7886917  92.3953441  61.9539992 133.2394990  93.8319997
  62.8529992 132.9654990  93.6469997  61.5679992 132.4974990  94.2959997
  62.0247237 133.1016520  93.8694693  97.9179992  13.3794990  90.4709997
  98.1339992  13.0174990  91.3309997  97.0629992  13.0044990  90.2609997
  97.8319349  13.2792914  90.5602134  70.3749992 132.5724990  94.0139997
  70.4519992 132.1464990  94.8679997  71.2689992 132.5854990  93.6719997
  70.5063315 132.5160320  94.0845052  93.9429992 135.8204990  87.4229997
  93.9919992 136.4304990  88.1589997  94.3689992 136.2814990  86.6999997
  94.0072851 135.9663266  87.4260532  88.4209992 138.6124990  86.8899997
  88.5629992 137.6664990  86.9099997  88.3149992 138.8194990  85.9609997
  88.4261158 138.5109722  86.7672241  81.5759992 136.7144990  84.1619997
  81.6189992 137.5744990  83.7439997  81.1179992 136.1614990  83.5289997
  81.5199613 136.7575689  84.0191276  89.2979992 136.8454990  82.5629997
  89.9439992 136.5164990  83.1879997  89.8079992 137.3624990  81.9399997
  89.4554392 136.8703710  82.5643248  78.1959992 139.1114990  84.9239997
  78.8499992 138.5614990  85.3559997  78.2199992 138.8374990  84.0079997
  78.2887022 138.9992005  84.8591698  94.3349992 137.2984990  89.6589997
  93.6459992 137.9564990  89.5639997  94.3499992 137.1004990  90.5959997
  94.2427756 137.3617614  89.7725795  80.3859992 135.6324990  88.2359997
  80.1669992 136.1624990  87.4699997  79.7179992 135.8584990  88.8839997
  80.2657271 135.7356508  88.2186206  91.0619992 136.1364990  84.5439997
  90.8469992 135.3704990  85.0759997  91.7179992 136.6084990  85.0569997
  91.1212451 136.0954472  84.6861699  79.9799992 137.5244990  86.1889997
  80.5929992 138.1574990  86.5619997  80.4919992 137.0524990  85.5319997
  80.1331680 137.5474006  86.1512830 100.5369992   1.8494990  86.4669997
  99.6749992   1.7624990  86.0589997 100.5149992   2.7054990  86.8939997
 100.4160953   1.9533558  86.4689262  91.4089992 134.8514990  88.2229997
  90.6729992 135.4614990  88.1849997  92.0929992 135.2664990  87.6969997
  91.4005885 134.9911924  88.1466931  84.4119992 132.9374990  85.6889997
  84.2949992 131.9894990  85.6349997  83.5569992 133.2704990  85.9619997
  84.2803691 132.8525842  85.7185072  92.6539992 132.8974990  78.6389997
  91.7539992 133.0354990  78.9339997  92.9059992 133.7284990  78.2369997
  92.5647355 133.0288200  78.6250539  91.9129992 138.9874990  92.4739997
  91.5059992 139.4674990  91.7539997  91.9539992 138.0814990  92.1669997
  91.8627178 138.9308609  92.3337441  81.6809992 133.8414990  86.4669997
  80.8189992 133.7544990  86.0589997  81.6589992 134.6974990  86.8939997
  81.5600953 133.9453558  86.4689262  86.3439992 133.5634990  89.8409997
  86.7639992 133.1484990  90.5939997  85.4109992 133.3844990  89.9579997
  86.2753736 133.4824921  89.9598950  89.6699992 137.3184990  90.6949997
  89.1559992 137.1934990  91.4919997  89.5149992 138.2314990  90.4499997
  89.5786643 137.4247068  90.7710624  86.0059992 136.0554990  77.1259997
  85.7519992 136.0744990  78.0489997  85.7489992 135.1844990  76.8249997
  85.9365133 135.9403121  77.2115065  81.7719992 138.8064990  87.5619997
  81.1299992 138.7664990  88.2709997  81.8089992 139.7334990  87.3239997
  81.6891659 138.9262540  87.6268463  81.7689992 139.0274990  82.4739997
  80.8759992 138.6874990  82.4149997  82.2199992 138.6504990  81.7179997
  81.7077185 138.9300220  82.3637698 105.1999992   1.5714990  89.8409997
 105.6199992   1.1564990  90.5939997 104.2669992   1.3924990  89.9579997
 105.1313736   1.4904921  89.9598950  87.3049992 139.4434990  81.2909997
  86.8959992 140.2584990  80.9989997  88.0249992 139.3034990  80.6759997
  87.3463946 139.5359963  81.1679616  88.3089992 138.8894990  84.1049997
  88.1139992 139.4954990  83.3899997  88.4909992 138.0564990  83.6699997
  88.3069272 138.8597955  83.9484075  79.5219992 139.1274990  89.4289997
  79.4839992 139.5274990  90.2969997  79.0309992 138.3104990  89.5189997
  79.4504246 139.0718842  89.5601171  82.8879992 136.5014990  76.2269997
  82.4569992 136.0564990  76.9569997  82.1699992 136.8724990  75.7149997
  82.7319363 136.4907979  76.2576194  76.1299992 136.2434990  83.2789997
  76.7609992 136.2144990  83.9989997  76.5799992 135.8184990  82.5489997
  76.2770905 136.1820839  83.2787479  77.4039992 136.9894990  78.7029997
  77.8789992 137.5804990  78.1179997  76.6869992 137.5194990  79.0499997
  77.3720406 137.1421011  78.6698495  84.3509992 136.4554990  83.5599997
  83.4399992 136.5124990  83.8489997  84.8559992 136.3954990  84.3709997
  84.2946873 136.4551838  83.7091190  79.1789992 138.0844990  82.3869997
  78.2899992 138.1834990  82.0469997  79.4749992 137.2424990  82.0409997
  79.0974001 137.9842473  82.2937318  82.8319992 138.0844990  80.0429997
  83.7639992 138.2134990  80.2209997  82.6169992 138.7534990  79.3939997
  82.9304245 138.1926452  79.9795602  88.7559992 135.6904990  86.8239997
  88.0789992 135.8214990  87.4879997  88.2699992 135.5354990  86.0139997
  88.5977265 135.6874665  86.8053380 108.5259992   5.3264990  90.6949997
 108.0119992   5.2014990  91.4919997 108.3709992   6.2394990  90.4499997
 108.4346643   5.4327068  90.7710624  81.5059992 139.2784990  77.6099997
  80.9639992 138.8994990  76.9189997  82.3399992 139.4734990  77.1809997
  81.5444283 139.2529383  77.4574298  85.6709992 139.2424990  85.4469997
  86.2349992 138.6964990  84.8999997  85.5229992 138.7214990  86.2359997
  85.7283037 139.0971798  85.4787212  80.6729992 135.3794990  81.8649997
  80.3549992 134.4764990  81.8299997  81.4539992 135.3814990  81.3129997
  80.7351560 135.2561148  81.7854975  84.2969992 137.6314990  87.8609997
  83.4619992 138.0854990  87.9709997  84.8209992 137.9074990  88.6129997
  84.2535070 137.7309677  87.9777134  89.4569992 138.5254990  79.4059997
  90.3489992 138.3874990  79.7249997  89.5139992 139.3164990  78.8689997
  89.5867380 138.6134777  79.3770981  94.3419992 138.7344990  79.0999997
  93.7879992 138.3384990  78.4279997  94.4429992 139.6454990  78.8229997
  94.2797084 138.8033565  78.9704381  78.6079992 136.3534990  90.1879997
  77.7149992 136.6914990  90.1209997  78.5089992 135.4974990  90.6059997
  78.4725241 136.2840941  90.2352982  87.3419992 136.0944990  89.0779997
  88.0409992 136.1684990  89.7279997  86.9619992 135.2294990  89.2329997
  87.3862095 135.9877402  89.1877982  88.1269992 135.7464990  80.1749997
  88.3469992 136.2174990  79.3719997  88.6849992 136.1404990  80.8459997
  88.2325851 135.8643272  80.1556134  85.3269992 137.4744990  81.0099997
  86.1389992 137.9784990  81.0559997  85.0819992 137.3294990  81.9239997
  85.4051091 137.5239366  81.1398552 100.6279992   6.8144990  87.5619997
  99.9859992   6.7744990  88.2709997 100.6649992   7.7414990  87.3239997
 100.5451659   6.9342540  87.6268463  85.8629992 138.4604990  90.1949997
  85.9819992 139.0344990  90.9519997  86.5179992 137.7724990  90.3099997
  85.9678684 138.4460205  90.3141656  86.2109992 134.5554990  81.9479997
  85.8639992 135.1724990  82.5929997  86.8689992 135.0564990  81.4669997
  86.2525290 134.7076384  81.9711635  81.8679992 135.6184990  78.6359997
  81.7849992 136.5064990  78.9819997  82.7579992 135.3534990  78.8669997
  81.9769751 135.7042482  78.7146066  92.0669992 136.3674990  91.0299997
  91.1509992 136.6294990  90.9419997  92.4029992 136.3644990  90.1329997
  91.9869789 136.4029637  90.8967829  78.4429992 138.7104990  76.8119997
  78.3979992 139.6494990  76.9909997  77.5549992 138.4744990  76.5419997
  78.3168472 138.8071946  76.8000282  79.2509992 133.4914990  85.4849997
  79.0219992 133.5504990  84.5579997  78.8079992 132.7004990  85.7919997
  79.1597387 133.3926412  85.3995223  82.4959992 137.4194990  91.8069997
  82.6459992 136.6904990  91.2039997  82.4979992 138.1964990  91.2479997
  82.5167664 137.4248971  91.6490525  82.9079992 135.7884990  89.2989997
  83.4439992 136.2404990  88.6469997  82.0559992 135.6804990  88.8769997
  82.8661648 135.8357883  89.1526395  88.9059992 139.0434990  94.5669997
  89.0979992 138.1124990  94.4559997  89.7629992 139.4684990  94.5569997
  89.0482320 138.9734743  94.5504433  80.9739992 138.6174990  93.7179997
  80.2069992 138.0844990  93.5079997  81.6529992 138.3074990  93.1189997
  80.9608292 138.5026360  93.6082693 100.6249992   7.0354990  82.4739997
  99.7319992   6.6954990  82.4149997 101.0759992   6.6584990  81.7179997
 100.5637185   6.9380220  82.3637698  83.7139992 133.2454990  89.7309997
  83.6159992 134.1914990  89.6249997  82.9709992 132.8724990  89.2549997
  83.6002363 133.3245987  89.6522029  84.9779992 137.5664990  93.2939997
  84.7419992 137.3474990  94.1959997  84.1949992 137.3594990  92.7849997
  84.8398444 137.5085688  93.3484518  87.6939992 136.6944990  92.3699997
  86.7459992 136.7264990  92.5019997  88.0059992 136.0684990  93.0239997
  87.6065293 136.6142934  92.4764130  89.3279992 135.3284990  94.3749997
  89.2309992 134.3764990  94.3689997  89.0059992 135.5964990  95.2359997
  89.2712229 135.2344706  94.4905108  79.1549992 136.5374990  93.4229997
  79.3659992 135.8314990  92.8119997  79.0429992 136.1004990  94.2669997
  79.1687674 136.3816376  93.4534199  83.9359992 132.5394990  92.4019997
  84.6469992 131.8994990  92.3879997  83.8349992 132.8054990  91.4879997
  84.0196732 132.4878451  92.2765475  84.2889992 134.2214990  94.4559997
  84.1579992 133.7464990  93.6349997  83.6899992 134.9664990  94.3999997
  84.1901524 134.2571968  94.3361553  91.6779992 137.7944990  80.8999997
  91.9579992 136.8874990  81.0249997  92.4369992 138.2284990  80.5109997
  91.8189471 137.7290654  80.8645052  92.2899992 138.3764990  86.3359997
  93.2229992 138.5884990  86.3019997  92.0549992 138.4774990  87.2589997
  92.3858357 138.4191303  86.4560232  92.3189992 139.1134990  89.1119997
  91.4759992 139.3814990  89.4779997  92.7619992 139.9354990  88.9009997
  92.2634358 139.2613294  89.1335999 106.1609992   7.4514990  81.2909997
 105.7519992   8.2664990  80.9989997 106.8809992   7.3114990  80.6759997
 106.2023946   7.5439963  81.1679616  76.5999992 137.5604990  92.5889997
  77.5199992 137.4384990  92.8249997  76.1509992 136.8104990  92.9779997
  76.6651561 137.4423720  92.6739015  94.6019992 133.0934990  94.4659997
  94.9519992 132.4394990  93.8599997  94.7489992 133.9304990  94.0259997
  94.6697192 133.1172545  94.3236712  92.2919992 135.0574990  80.9489997
  92.4739992 134.6084990  81.7739997  91.6919992 134.4734990  80.4849997
  92.2358187 134.9170563  80.9992721  77.8219992 135.8734990  85.4799997
  78.2669992 135.0814990  85.7819997  78.2879992 136.5894990  85.9109997
  77.9459059 135.8619485  85.5796061  76.1259992 138.8724990  86.5489997
  76.6179992 138.6514990  85.7589997  76.4879992 139.7124990  86.8299997
  76.2423429 138.9558220  86.4787918  94.1219992 135.2024990  92.8149997
  93.2049992 135.4734990  92.7789997  94.2449992 134.6674990  92.0309997
  94.0130828 135.1672711  92.7040767  76.4389992 135.1304990  80.6039997
  75.5139992 135.3384990  80.4739997  76.8929992 135.6144990  79.9139997
  76.3737401 135.2243895  80.4929433  76.4029992 133.8684990  88.9479997
  75.7379992 133.6224990  89.5909997  75.9599992 134.4904990  88.3709997
  76.2521168 133.9189225  88.9579830  93.1229992 133.2924990  90.6339997
  92.3099992 133.6174990  90.2459997  93.3559992 132.5314990  90.1009997
  93.0432566 133.2341570  90.5089196  86.5529992 134.7414990  84.9569997
  85.8779992 134.1114990  85.2119997  87.1169992 134.2574990  84.3539997
  86.5369558 134.5899283  84.9103451 105.2629992   7.6274990  92.7789997
 104.6999992   6.9224990  93.0989997 106.0889992   7.5064990  93.2459997
 105.2976423   7.5145614  92.8860168  91.6949992 132.8484990  85.0689997
  92.2989992 133.3964990  84.5679997  90.8259992 133.1674990  84.8289997
  91.6601126 132.9667070  84.9679180  93.4219992 133.9874990  83.4029997
  94.0339992 133.4734990  82.8759997  93.8049992 134.8644990  83.4259997
  93.5573867 134.0357613  83.3340888  78.8789992 133.3754990  82.7789997
  78.1019992 133.1404990  82.2709997  79.4099992 132.5784990  82.7879997
  78.8444443 133.2356721  82.7107200  83.4589992 133.3014990  82.5919997
  84.3329992 133.6904990  82.5619997  83.3229992 133.0864990  83.5149997
  83.5603125 133.3257120  82.7126523  89.0149992 133.3314990  84.2409997
  89.0919992 133.4274990  83.2919997  88.7399992 132.4244990  84.3699997
  88.9883407 133.2219188  84.1283532  90.3689992 133.3574990  79.9339997
  89.6659992 133.9724990  79.7239997  89.9239992 132.5204990  80.0649997
  90.2126550 133.3284679  79.9229819  79.5769992 135.0894990  77.0249997
  80.0679992 134.4594990  76.4969997  80.1999992 135.3854990  77.6879997
  79.7285459 135.0432419  77.0423667  84.6029992 135.3824990  79.4819997
  84.7809992 134.7354990  80.1649997  84.5489992 136.2164990  79.9489997
  84.6200678 135.4066615  79.6386283  78.8369992 133.8894990  92.2959997
  78.4709992 133.1234990  92.7389997  79.7499992 133.9184990  92.5829997
  78.9103225 133.7886917  92.3953441  80.8099992 133.2394990  93.8319997
  81.7089992 132.9654990  93.6469997  80.4239992 132.4974990  94.2959997
  80.8807237 133.1016520  93.8694693 107.1649992   6.8974990  84.1049997
 106.9699992   7.5034990  83.3899997 107.3469992   6.0644990  83.6699997
 107.1629272   6.8677955  83.9484075  89.2309992 132.5724990  94.0139997
  89.3079992 132.1464990  94.8679997  90.1249992 132.5854990  93.6719997
  89.3623315 132.5160320  94.0845052 112.7989992 135.8204990  87.4229997
 112.8479992 136.4304990  88.1589997 113.2249992 136.2814990  86.6999997
 112.8632851 135.9663266  87.4260532 107.2769992 138.6124990  86.8899997
 107.4189992 137.6664990  86.9099997 107.1709992 138.8194990  85.9609997
 107.2821158 138.5109722  86.7672241 100.4319992 136.7144990  84.1619997
 100.4749992 137.5744990  83.7439997  99.9739992 136.1614990  83.5289997
 100.3759613 136.7575689  84.0191276 108.1539992 136.8454990  82.5629997
 108.7999992 136.5164990  83.1879997 108.6639992 137.3624990  81.9399997
 108.3114392 136.8703710  82.5643248  97.0519992 139.1114990  84.9239997
  97.7059992 138.5614990  85.3559997  97.0759992 138.8374990  84.0079997
  97.1447022 138.9992005  84.8591698 113.1909992 137.2984990  89.6589997
 112.5019992 137.9564990  89.5639997 113.2059992 137.1004990  90.5959997
 113.0987756 137.3617614  89.7725795  99.2419992 135.6324990  88.2359997
  99.0229992 136.1624990  87.4699997  98.5739992 135.8584990  88.8839997
  99.1217271 135.7356508  88.2186206 109.9179992 136.1364990  84.5439997
 109.7029992 135.3704990  85.0759997 110.5739992 136.6084990  85.0569997
 109.9772451 136.0954472  84.6861699  98.8359992 137.5244990  86.1889997
  99.4489992 138.1574990  86.5619997  99.3479992 137.0524990  85.5319997
  98.9891680 137.5474006  86.1512830  98.3779992   7.1354990  89.4289997
  98.3399992   7.5354990  90.2969997  97.8869992   6.3184990  89.5189997
  98.3064246   7.0798842  89.5601171 110.2649992 134.8514990  88.2229997
 109.5289992 135.4614990  88.1849997 110.9489992 135.2664990  87.6969997
 110.2565885 134.9911924  88.1466931 103.2679992 132.9374990  85.6889997
 103.1509992 131.9894990  85.6349997 102.4129992 133.2704990  85.9619997
 103.1363691 132.8525842  85.7185072 111.5099992 132.8974990  78.6389997
 110.6099992 133.0354990  78.9339997 111.7619992 133.7284990  78.2369997
 111.4207355 133.0288200  78.6250539 110.7689992 138.9874990  92.4739997
 110.3619992 139.4674990  91.7539997 110.8099992 138.0814990  92.1669997
 110.7187178 138.9308609  92.3337441 100.5369992 133.8414990  86.4669997
  99.6749992 133.7544990  86.0589997 100.5149992 134.6974990  86.8939997
 100.4160953 133.9453558  86.4689262 105.1999992 133.5634990  89.8409997
 105.6199992 133.1484990  90.5939997 104.2669992 133.3844990  89.9579997
 105.1313736 133.4824921  89.9598950 108.5259992 137.3184990  90.6949997
 108.0119992 137.1934990  91.4919997 108.3709992 138.2314990  90.4499997
 108.4346643 137.4247068  90.7710624 100.6279992 138.8064990  87.5619997
  99.9859992 138.7664990  88.2709997 100.6649992 139.7334990  87.3239997
 100.5451659 138.9262540  87.6268463 100.6249992 139.0274990  82.4739997
  99.7319992 138.6874990  82.4149997 101.0759992 138.6504990  81.7179997
 100.5637185 138.9300220  82.3637698 106.1609992 139.4434990  81.2909997
 105.7519992 140.2584990  80.9989997 106.8809992 139.3034990  80.6759997
 106.2023946 139.5359963  81.1679616 101.7439992   4.5094990  76.2269997
 101.3129992   4.0644990  76.9569997 101.0259992   4.8804990  75.7149997
 101.5879363   4.4987979  76.2576194 107.1649992 138.8894990  84.1049997
 106.9699992 139.4954990  83.3899997 107.3469992 138.0564990  83.6699997
 107.1629272 138.8597955  83.9484075  98.3779992 139.1274990  89.4289997
  98.3399992 139.5274990  90.2969997  97.8869992 138.3104990  89.5189997
  98.3064246 139.0718842  89.5601171  94.9859992 136.2434990  83.2789997
  95.6169992 136.2144990  83.9989997  95.4359992 135.8184990  82.5489997
  95.1330905 136.1820839  83.2787479  96.2599992 136.9894990  78.7029997
  96.7349992 137.5804990  78.1179997  95.5429992 137.5194990  79.0499997
  96.2280406 137.1421011  78.6698495 103.2069992 136.4554990  83.5599997
 102.2959992 136.5124990  83.8489997 103.7119992 136.3954990  84.3709997
 103.1506873 136.4551838  83.7091190  98.0349992 138.0844990  82.3869997
  97.1459992 138.1834990  82.0469997  98.3309992 137.2424990  82.0409997
  97.9534001 137.9842473  82.2937318 101.6879992 138.0844990  80.0429997
 102.6199992 138.2134990  80.2209997 101.4729992 138.7534990  79.3939997
 101.7864245 138.1926452  79.9795602 107.6119992 135.6904990  86.8239997
 106.9349992 135.8214990  87.4879997 107.1259992 135.5354990  86.0139997
 107.4537265 135.6874665  86.8053380 100.3619992 139.2784990  77.6099997
  99.8199992 138.8994990  76.9189997 101.1959992 139.4734990  77.1809997
 100.4004283 139.2529383  77.4574298 104.5269992 139.2424990  85.4469997
 105.0909992 138.6964990  84.8999997 104.3789992 138.7214990  86.2359997
 104.5843037 139.0971798  85.4787212  94.9859992   4.2514990  83.2789997
  95.6169992   4.2224990  83.9989997  95.4359992   3.8264990  82.5489997
  95.1330905   4.1900839  83.2787479  99.5289992 135.3794990  81.8649997
  99.2109992 134.4764990  81.8299997 100.3099992 135.3814990  81.3129997
  99.5911560 135.2561148  81.7854975 103.1529992 137.6314990  87.8609997
 102.3179992 138.0854990  87.9709997 103.6769992 137.9074990  88.6129997
 103.1095070 137.7309677  87.9777134 108.3129992 138.5254990  79.4059997
 109.2049992 138.3874990  79.7249997 108.3699992 139.3164990  78.8689997
 108.4427380 138.6134777  79.3770981  97.4639992 136.3534990  90.1879997
  96.5709992 136.6914990  90.1209997  97.3649992 135.4974990  90.6059997
  97.3285241 136.2840941  90.2352982 106.1979992 136.0944990  89.0779997
 106.8969992 136.1684990  89.7279997 105.8179992 135.2294990  89.2329997
 106.2422095 135.9877402  89.1877982 106.9829992 135.7464990  80.1749997
 107.2029992 136.2174990  79.3719997 107.5409992 136.1404990  80.8459997
 107.0885851 135.8643272  80.1556134 104.1829992 137.4744990  81.0099997
 104.9949992 137.9784990  81.0559997 103.9379992 137.3294990  81.9239997
 104.2611091 137.5239366  81.1398552 104.7189992 138.4604990  90.1949997
 104.8379992 139.0344990  90.9519997 105.3739992 137.7724990  90.3099997
 104.8238684 138.4460205  90.3141656 105.0669992 134.5554990  81.9479997
 104.7199992 135.1724990  82.5929997 105.7249992 135.0564990  81.4669997
 105.1085290 134.7076384  81.9711635 100.7239992 135.6184990  78.6359997
 100.6409992 136.5064990  78.9819997 101.6139992 135.3534990  78.8669997
 100.8329751 135.7042482  78.7146066 106.4289992   8.5354990  88.7759997
 106.7529992   7.9044990  88.1329997 105.9889992   8.0014990  89.4369997
 106.4138707   8.3768261  88.7773195 110.9229992 136.3674990  91.0299997
 110.0069992 136.6294990  90.9419997 111.2589992 136.3644990  90.1329997
 110.8429789 136.4029637  90.8967829  97.2989992 138.7104990  76.8119997
  97.2539992 139.6494990  76.9909997  96.4109992 138.4744990  76.5419997
  97.1728472 138.8071946  76.8000282  98.1069992 133.4914990  85.4849997
  97.8779992 133.5504990  84.5579997  97.6639992 132.7004990  85.7919997
  98.0157387 133.3926412  85.3995223 101.3519992 137.4194990  91.8069997
 101.5019992 136.6904990  91.2039997 101.3539992 138.1964990  91.2479997
 101.3727664 137.4248971  91.6490525 101.7639992 135.7884990  89.2989997
 102.2999992 136.2404990  88.6469997 100.9119992 135.6804990  88.8769997
 101.7221648 135.8357883  89.1526395 107.7619992 139.0434990  94.5669997
 107.9539992 138.1124990  94.4559997 108.6189992 139.4684990  94.5569997
 107.9042320 138.9734743  94.5504433  99.8299992 138.6174990  93.7179997
  99.0629992 138.0844990  93.5079997 100.5089992 138.3074990  93.1189997
  99.8168292 138.5026360  93.6082693 102.5699992 133.2454990  89.7309997
 102.4719992 134.1914990  89.6249997 101.8269992 132.8724990  89.2549997
 102.4562363 133.3245987  89.6522029 103.8339992 137.5664990  93.2939997
 103.5979992 137.3474990  94.1959997 103.0509992 137.3594990  92.7849997
 103.6958444 137.5085688  93.3484518 106.5499992 136.6944990  92.3699997
 105.6019992 136.7264990  92.5019997 106.8619992 136.0684990  93.0239997
 106.4625293 136.6142934  92.4764130 103.2069992   4.4634990  83.5599997
 102.2959992   4.5204990  83.8489997 103.7119992   4.4034990  84.3709997
 103.1506873   4.4631838  83.7091190 108.1839992 135.3284990  94.3749997
 108.0869992 134.3764990  94.3689997 107.8619992 135.5964990  95.2359997
 108.1272229 135.2344706  94.4905108  98.0109992 136.5374990  93.4229997
  98.2219992 135.8314990  92.8119997  97.8989992 136.1004990  94.2669997
  98.0247674 136.3816376  93.4534199 102.7919992 132.5394990  92.4019997
 103.5029992 131.8994990  92.3879997 102.6909992 132.8054990  91.4879997
 102.8756732 132.4878451  92.2765475 103.1449992 134.2214990  94.4559997
 103.0139992 133.7464990  93.6349997 102.5459992 134.9664990  94.3999997
 103.0461524 134.2571968  94.3361553 110.5339992 137.7944990  80.8999997
 110.8139992 136.8874990  81.0249997 111.2929992 138.2284990  80.5109997
 110.6749471 137.7290654  80.8645052 111.1459992 138.3764990  86.3359997
 112.0789992 138.5884990  86.3019997 110.9109992 138.4774990  87.2589997
 111.2418357 138.4191303  86.4560232 111.1749992 139.1134990  89.1119997
 110.3319992 139.3814990  89.4779997 111.6179992 139.9354990  88.9009997
 111.1194358 139.2613294  89.1335999  95.4559992 137.5604990  92.5889997
  96.3759992 137.4384990  92.8249997  95.0069992 136.8104990  92.9779997
  95.5211561 137.4423720  92.6739015 113.4579992 133.0934990  94.4659997
 113.8079992 132.4394990  93.8599997 113.6049992 133.9304990  94.0259997
 113.5257192 133.1172545  94.3236712 111.1479992 135.0574990  80.9489997
 111.3299992 134.6084990  81.7739997 110.5479992 134.4734990  80.4849997
 111.0918187 134.9170563  80.9992721  98.0349992   6.0924990  82.3869997
  97.1459992   6.1914990  82.0469997  98.3309992   5.2504990  82.0409997
  97.9534001   5.9922473  82.2937318  96.6779992 135.8734990  85.4799997
  97.1229992 135.0814990  85.7819997  97.1439992 136.5894990  85.9109997
  96.8019059 135.8619485  85.5796061  94.9819992 138.8724990  86.5489997
  95.4739992 138.6514990  85.7589997  95.3439992 139.7124990  86.8299997
  95.0983428 138.9558220  86.4787918 112.9779992 135.2024990  92.8149997
 112.0609992 135.4734990  92.7789997 113.1009992 134.6674990  92.0309997
 112.8690828 135.1672711  92.7040767  95.2949992 135.1304990  80.6039997
  94.3699992 135.3384990  80.4739997  95.7489992 135.6144990  79.9139997
  95.2297401 135.2243895  80.4929433  95.2589992 133.8684990  88.9479997
  94.5939992 133.6224990  89.5909997  94.8159992 134.4904990  88.3709997
  95.1081168 133.9189225  88.9579830 111.9789992 133.2924990  90.6339997
 111.1659992 133.6174990  90.2459997 112.2119992 132.5314990  90.1009997
 111.8992566 133.2341570  90.5089196 105.4089992 134.7414990  84.9569997
 104.7339992 134.1114990  85.2119997 105.9729992 134.2574990  84.3539997
 105.3929558 134.5899283  84.9103451 110.5509992 132.8484990  85.0689997
 111.1549992 133.3964990  84.5679997 109.6819992 133.1674990  84.8289997
 110.5161126 132.9667070  84.9679180 112.2779992 133.9874990  83.4029997
 112.8899992 133.4734990  82.8759997 112.6609992 134.8644990  83.4259997
 112.4133867 134.0357613  83.3340888  97.7349992 133.3754990  82.7789997
  96.9579992 133.1404990  82.2709997  98.2659992 132.5784990  82.7879997
  97.7004443 133.2356721  82.7107200 101.6879992   6.0924990  80.0429997
 102.6199992   6.2214990  80.2209997 101.4729992   6.7614990  79.3939997
 101.7864245   6.2006452  79.9795602 102.3149992 133.3014990  82.5919997
 103.1889992 133.6904990  82.5619997 102.1789992 133.0864990  83.5149997
 102.4163125 133.3257120  82.7126523 107.8709992 133.3314990  84.2409997
 107.9479992 133.4274990  83.2919997 107.5959992 132.4244990  84.3699997
 107.8443407 133.2219188  84.1283532 109.2249992 133.3574990  79.9339997
 108.5219992 133.9724990  79.7239997 108.7799992 132.5204990  80.0649997
 109.0686550 133.3284679  79.9229819 103.4589992 135.3824990  79.4819997
 103.6369992 134.7354990  80.1649997 103.4049992 136.2164990  79.9489997
 103.4760678 135.4066615  79.6386283  97.6929992 133.8894990  92.2959997
  97.3269992 133.1234990  92.7389997  98.6059992 133.9184990  92.5829997
  97.7663225 133.7886917  92.3953441  99.6659992 133.2394990  93.8319997
 100.5649992 132.9654990  93.6469997  99.2799992 132.4974990  94.2959997
  99.7367237 133.1016520  93.8694693 108.0869992 132.5724990  94.0139997
 108.1639992 132.1464990  94.8679997 108.9809992 132.5854990  93.6719997
 108.2183315 132.5160320  94.0845052 131.6549992 135.8204990  87.4229997
 131.7039992 136.4304990  88.1589997 132.0809992 136.2814990  86.6999997
 131.7192851 135.9663266  87.4260532 126.1329992 138.6124990  86.8899997
 126.2749992 137.6664990  86.9099997 126.0269992 138.8194990  85.9609997
 126.1381158 138.5109722  86.7672241 119.2879992 136.7144990  84.1619997
 119.3309992 137.5744990  83.7439997 118.8299992 136.1614990  83.5289997
 119.2319613 136.7575689  84.0191276 107.6119992   3.6984990  86.8239997
 106.9349992   3.8294990  87.4879997 107.1259992   3.5434990  86.0139997
 107.4537265   3.6954665  86.8053380 127.0099992 136.8454990  82.5629997
 127.6559992 136.5164990  83.1879997 127.5199992 137.3624990  81.9399997
 127.1674392 136.8703710  82.5643248 115.9079992 139.1114990  84.9239997
 116.5619992 138.5614990  85.3559997 115.9319992 138.8374990  84.0079997
 116.0007022 138.9992005  84.8591698 132.0469992 137.2984990  89.6589997
 131.3579992 137.9564990  89.5639997 132.0619992 137.1004990  90.5959997
 131.9547756 137.3617614  89.7725795 118.0979992 135.6324990  88.2359997
 117.8789992 136.1624990  87.4699997 117.4299992 135.8584990  88.8839997
 117.9777271 135.7356508  88.2186206 128.7739992 136.1364990  84.5439997
 128.5589992 135.3704990  85.0759997 129.4299992 136.6084990  85.0569997
 128.8332451 136.0954472  84.6861699 117.6919992 137.5244990  86.1889997
 118.3049992 138.1574990  86.5619997 118.2039992 137.0524990  85.5319997
 117.8451680 137.5474006  86.1512830 129.1209992 134.8514990  88.2229997
 128.3849992 135.4614990  88.1849997 129.8049992 135.2664990  87.6969997
 129.1125885 134.9911924  88.1466931 122.1239992 132.9374990  85.6889997
 122.0069992 131.9894990  85.6349997 121.2689992 133.2704990  85.9619997
 121.9923691 132.8525842  85.7185072 130.3659992 132.8974990  78.6389997
 129.4659992 133.0354990  78.9339997 130.6179992 133.7284990  78.2369997
 130.2767355 133.0288200  78.6250539 129.6249992 138.9874990  92.4739997
 129.2179992 139.4674990  91.7539997 129.6659992 138.0814990  92.1669997
 129.5747178 138.9308609  92.3337441 100.3619992   7.2864990  77.6099997
  99.8199992   6.9074990  76.9189997 101.1959992   7.4814990  77.1809997
 100.4004283   7.2609383  77.4574298 119.3929992 133.8414990  86.4669997
 118.5309992 133.7544990  86.0589997 119.3709992 134.6974990  86.8939997
 119.2720953 133.9453558  86.4689262 124.0559992 133.5634990  89.8409997
 124.4759992 133.1484990  90.5939997 123.1229992 133.3844990  89.9579997
 123.9873736 133.4824921  89.9598950 127.3819992 137.3184990  90.6949997
 126.8679992 137.1934990  91.4919997 127.2269992 138.2314990  90.4499997
 127.2906643 137.4247068  90.7710624 119.4839992 138.8064990  87.5619997
 118.8419992 138.7664990  88.2709997 119.5209992 139.7334990  87.3239997
 119.4011659 138.9262540  87.6268463 119.4809992 139.0274990  82.4739997
 118.5879992 138.6874990  82.4149997 119.9319992 138.6504990  81.7179997
 119.4197185 138.9300220  82.3637698 125.0169992 139.4434990  81.2909997
 124.6079992 140.2584990  80.9989997 125.7369992 139.3034990  80.6759997
 125.0583946 139.5359963  81.1679616 126.0209992 138.8894990  84.1049997
 125.8259992 139.4954990  83.3899997 126.2029992 138.0564990  83.6699997
 126.0189272 138.8597955  83.9484075 117.2339992 139.1274990  89.4289997
 117.1959992 139.5274990  90.2969997 116.7429992 138.3104990  89.5189997
 117.1624246 139.0718842  89.5601171 120.5999992 136.5014990  76.2269997
 120.1689992 136.0564990  76.9569997 119.8819992 136.8724990  75.7149997
 120.4439363 136.4907979  76.2576194 113.8419992 136.2434990  83.2789997
 114.4729992 136.2144990  83.9989997 114.2919992 135.8184990  82.5489997
 113.9890905 136.1820839  83.2787479 110.8989992  19.3694990  93.1009997
 111.0989992  19.7934990  92.2659997 111.5549992  19.7134990  93.7079997
 111.0149916  19.4739784  93.0687890 122.0629992 136.4554990  83.5599997
 121.1519992 136.5124990  83.8489997 122.5679992 136.3954990  84.3709997
 122.0066873 136.4551838  83.7091190 116.8909992 138.0844990  82.3869997
 116.0019992 138.1834990  82.0469997 117.1869992 137.2424990  82.0409997
 116.8094001 137.9842473  82.2937318 120.5439992 138.0844990  80.0429997
 121.4759992 138.2134990  80.2209997 120.3289992 138.7534990  79.3939997
 120.6424245 138.1926452  79.9795602 126.4679992 135.6904990  86.8239997
 125.7909992 135.8214990  87.4879997 125.9819992 135.5354990  86.0139997
 126.3097265 135.6874665  86.8053380 119.2179992 139.2784990  77.6099997
 118.6759992 138.8994990  76.9189997 120.0519992 139.4734990  77.1809997
 119.2564283 139.2529383  77.4574298 123.3829992 139.2424990  85.4469997
 123.9469992 138.6964990  84.8999997 123.2349992 138.7214990  86.2359997
 123.4403037 139.0971798  85.4787212 118.3849992 135.3794990  81.8649997
 118.0669992 134.4764990  81.8299997 119.1659992 135.3814990  81.3129997
 118.4471560 135.2561148  81.7854975 122.0089992 137.6314990  87.8609997
 121.1739992 138.0854990  87.9709997 122.5329992 137.9074990  88.6129997
 121.9655070 137.7309677  87.9777134 127.1689992 138.5254990  79.4059997
 128.0609992 138.3874990  79.7249997 127.2259992 139.3164990  78.8689997
 127.2987380 138.6134777  79.3770981 132.0539992 138.7344990  79.0999997
 131.4999992 138.3384990  78.4279997 132.1549992 139.6454990  78.8229997
 131.9917084 138.8033565  78.9704381  98.4969992  11.8434990  92.7089997
  99.2289992  12.0984990  93.2699997  97.7169992  12.0484990  93.2239997
  98.4917684  11.9061457  92.8554774 116.3199992 136.3534990  90.1879997
 115.4269992 136.6914990  90.1209997 116.2209992 135.4974990  90.6059997
 116.1845241 136.2840941  90.2352982 125.0539992 136.0944990  89.0779997
 125.7529992 136.1684990  89.7279997 124.6739992 135.2294990  89.2329997
 125.0982095 135.9877402  89.1877982 125.8389992 135.7464990  80.1749997
 126.0589992 136.2174990  79.3719997 126.3969992 136.1404990  80.8459997
 125.9445851 135.8643272  80.1556134 123.0389992 137.4744990  81.0099997
 123.8509992 137.9784990  81.0559997 122.7939992 137.3294990  81.9239997
 123.1171091 137.5239366  81.1398552 123.5749992 138.4604990  90.1949997
 123.6939992 139.0344990  90.9519997 124.2299992 137.7724990  90.3099997
 123.6798684 138.4460205  90.3141656 123.9229992 134.5554990  81.9479997
 123.5759992 135.1724990  82.5929997 124.5809992 135.0564990  81.4669997
 123.9645290 134.7076384  81.9711635 119.5799992 135.6184990  78.6359997
 119.4969992 136.5064990  78.9819997 120.4699992 135.3534990  78.8669997
 119.6889751 135.7042482  78.7146066 129.7789992 136.3674990  91.0299997
 128.8629992 136.6294990  90.9419997 130.1149992 136.3644990  90.1329997
 129.6989789 136.4029637  90.8967829 116.1549992 138.7104990  76.8119997
 116.1099992 139.6494990  76.9909997 115.2669992 138.4744990  76.5419997
 116.0288472 138.8071946  76.8000282 116.9629992 133.4914990  85.4849997
 116.7339992 133.5504990  84.5579997 116.5199992 132.7004990  85.7919997
 116.8717387 133.3926412  85.3995223 104.5269992   7.2504990  85.4469997
 105.0909992   6.7044990  84.8999997 104.3789992   6.7294990  86.2359997
 104.5843037   7.1051798  85.4787212 120.2079992 137.4194990  91.8069997
 120.3579992 136.6904990  91.2039997 120.2099992 138.1964990  91.2479997
 120.2287664 137.4248971  91.6490525 120.6199992 135.7884990  89.2989997
 121.1559992 136.2404990  88.6469997 119.7679992 135.6804990  88.8769997
 120.5781648 135.8357883  89.1526395 126.6179992 139.0434990  94.5669997
 126.8099992 138.1124990  94.4559997 127.4749992 139.4684990  94.5569997
 126.7602320 138.9734743  94.5504433 118.6859992 138.6174990  93.7179997
 117.9189992 138.0844990  93.5079997 119.3649992 138.3074990  93.1189997
 118.6728292 138.5026360  93.6082693 121.4259992 133.2454990  89.7309997
 121.3279992 134.1914990  89.6249997 120.6829992 132.8724990  89.2549997
 121.3122363 133.3245987  89.6522029 122.6899992 137.5664990  93.2939997
 122.4539992 137.3474990  94.1959997 121.9069992 137.3594990  92.7849997
 122.5518444 137.5085688  93.3484518 125.4059992 136.6944990  92.3699997
 124.4579992 136.7264990  92.5019997 125.7179992 136.0684990  93.0239997
 125.3185293 136.6142934  92.4764130 127.0399992 135.3284990  94.3749997
 126.9429992 134.3764990  94.3689997 126.7179992 135.5964990  95.2359997
 126.9832229 135.2344706  94.4905108 116.8669992 136.5374990  93.4229997
 117.0779992 135.8314990  92.8119997 116.7549992 136.1004990  94.2669997
 116.8807674 136.3816376  93.4534199 121.6479992 132.5394990  92.4019997
 122.3589992 131.8994990  92.3879997 121.5469992 132.8054990  91.4879997
 121.7316732 132.4878451  92.2765475  99.5289992   3.3874990  81.8649997
  99.2109992   2.4844990  81.8299997 100.3099992   3.3894990  81.3129997
  99.5911560   3.2641148  81.7854975 122.0009992 134.2214990  94.4559997
 121.8699992 133.7464990  93.6349997 121.4019992 134.9664990  94.3999997
 121.9021524 134.2571968  94.3361553 129.3899992 137.7944990  80.8999997
 129.6699992 136.8874990  81.0249997 130.1489992 138.2284990  80.5109997
 129.5309471 137.7290654  80.8645051 130.0019992 138.3764990  86.3359997
 130.9349992 138.5884990  86.3019997 129.7669992 138.4774990  87.2589997
 130.0978357 138.4191303  86.4560232 130.0309992 139.1134990  89.1119997
 129.1879992 139.3814990  89.4779997 130.4739992 139.9354990  88.9009997
 129.9754358 139.2613294  89.1335999 114.3119992 137.5604990  92.5889997
 115.2319992 137.4384990  92.8249997 113.8629992 136.8104990  92.9779997
 114.3771561 137.4423720  92.6739015 132.3139992 133.0934990  94.4659997
 132.6639992 132.4394990  93.8599997 132.4609992 133.9304990  94.0259997
 132.3817192 133.1172545  94.3236712 130.0039992 135.0574990  80.9489997
 130.1859992 134.6084990  81.7739997 129.4039992 134.4734990  80.4849997
 129.9478187 134.9170563  80.9992721 115.5339992 135.8734990  85.4799997
 115.9789992 135.0814990  85.7819997 115.9999992 136.5894990  85.9109997
 115.6579059 135.8619485  85.5796061 113.8379992 138.8724990  86.5489997
 114.3299992 138.6514990  85.7589997 114.1999992 139.7124990  86.8299997
 113.9543428 138.9558220  86.4787918 131.8339992 135.2024990  92.8149997
 130.9169992 135.4734990  92.7789997 131.9569992 134.6674990  92.0309997
 131.7250828 135.1672711  92.7040767 103.1529992   5.6394990  87.8609997
 102.3179992   6.0934990  87.9709997 103.6769992   5.9154990  88.6129997
 103.1095070   5.7389677  87.9777134 131.8699992 135.1254990  77.4769997
 132.2829992 134.4044990  77.0009997 132.5519992 135.7944990  77.5349997
 132.0185712 135.1174304  77.4198247 114.1509992 135.1304990  80.6039997
 113.2259992 135.3384990  80.4739997 114.6049992 135.6144990  79.9139997
 114.0857401 135.2243895  80.4929433 114.1149992 133.8684990  88.9479997
 113.4499992 133.6224990  89.5909997 113.6719992 134.4904990  88.3709997
 113.9641168 133.9189225  88.9579830 130.8349992 133.2924990  90.6339997
 130.0219992 133.6174990  90.2459997 131.0679992 132.5314990  90.1009997
 130.7552566 133.2341570  90.5089196 124.2649992 134.7414990  84.9569997
 123.5899992 134.1114990  85.2119997 124.8289992 134.2574990  84.3539997
 124.2489558 134.5899283  84.9103451 129.4069992 132.8484990  85.0689997
 130.0109992 133.3964990  84.5679997 128.5379992 133.1674990  84.8289997
 129.3721126 132.9667070  84.9679180 131.1339992 133.9874990  83.4029997
 131.7459992 133.4734990  82.8759997 131.5169992 134.8644990  83.4259997
 131.2693867 134.0357613  83.3340888 116.5909992 133.3754990  82.7789997
 115.8139992 133.1404990  82.2709997 117.1219992 132.5784990  82.7879997
 116.5564443 133.2356721  82.7107200 115.4279992 133.1734990  78.5819997
 115.8669992 133.7844990  77.9909997 114.7939992 133.7114990  79.0559997
 115.4024103 133.3299233  78.5651376 121.1709992 133.3014990  82.5919997
 122.0449992 133.6904990  82.5619997 121.0349992 133.0864990  83.5149997
 121.2723125 133.3257120  82.7126523 103.6969992  11.8524990  79.5459997
 102.9519992  11.3444990  79.2229997 103.5629992  11.9014990  80.4919997
 103.5768633  11.7895714  79.6297563 126.7269992 133.3314990  84.2409997
 126.8039992 133.4274990  83.2919997 126.4519992 132.4244990  84.3699997
 126.7003407 133.2219188  84.1283532 128.0809992 133.3574990  79.9339997
 127.3779992 133.9724990  79.7239997 127.6359992 132.5204990  80.0649997
 127.9246550 133.3284679  79.9229819 117.2889992 135.0894990  77.0249997
 117.7799992 134.4594990  76.4969997 117.9119992 135.3854990  77.6879997
 117.4405459 135.0432419  77.0423667 122.3149992 135.3824990  79.4819997
 122.4929992 134.7354990  80.1649997 122.2609992 136.2164990  79.9489997
 122.3320678 135.4066615  79.6386283 116.5489992 133.8894990  92.2959997
 116.1829992 133.1234990  92.7389997 117.4619992 133.9184990  92.5829997
 116.6223225 133.7886917  92.3953441 118.5219992 133.2394990  93.8319997
 119.4209992 132.9654990  93.6469997 118.1359992 132.4974990  94.2959997
 118.5927237 133.1016520  93.8694693 126.9429992 132.5724990  94.0139997
 127.0199992 132.1464990  94.8679997 127.8369992 132.5854990  93.6719997
 127.0743315 132.5160320  94.0845052 138.1439992 136.7144990  84.1619997
 138.1869992 137.5744990  83.7439997 137.6859992 136.1614990  83.5289997
 138.0879613 136.7575689  84.0191276 134.7639992 139.1114990  84.9239997
 135.4179992 138.5614990  85.3559997 134.7879992 138.8374990  84.0079997
 134.8567022 138.9992005  84.8591698 136.9539992 135.6324990  88.2359997
 136.7349992 136.1624990  87.4699997 136.2859992 135.8584990  88.8839997
 136.8337271 135.7356508  88.2186206 110.8469992  10.9854990  88.3319997
 111.4889992  11.4414990  87.7889997 110.0169992  11.0984990  87.8699997
 110.8227352  11.0633223  88.1950234 136.5479992 137.5244990  86.1889997
 137.1609992 138.1574990  86.5619997 137.0599992 137.0524990  85.5319997
 136.7011680 137.5474006  86.1512830 138.2489992 133.8414990  86.4669997
 137.3869992 133.7544990  86.0589997 138.2269992 134.6974990  86.8939997
 138.1280953 133.9453558  86.4689262 138.3399992 138.8064990  87.5619997
 137.6979992 138.7664990  88.2709997 138.3769992 139.7334990  87.3239997
 138.2571659 138.9262540  87.6268463 138.3369992 139.0274990  82.4739997
 137.4439992 138.6874990  82.4149997 138.7879992 138.6504990  81.7179997
 138.2757185 138.9300220  82.3637698 136.0899992 139.1274990  89.4289997
 136.0519992 139.5274990  90.2969997 135.5989992 138.3104990  89.5189997
 136.0184246 139.0718842  89.5601171 139.4559992 136.5014990  76.2269997
 139.0249992 136.0564990  76.9569997 138.7379992 136.8724990  75.7149997
 139.2999363 136.4907979  76.2576194 132.6979992 136.2434990  83.2789997
 133.3289992 136.2144990  83.9989997 133.1479992 135.8184990  82.5489997
 132.8450905 136.1820839  83.2787479 135.7469992 138.0844990  82.3869997
 134.8579992 138.1834990  82.0469997 136.0429992 137.2424990  82.0409997
 135.6654001 137.9842473  82.2937318 139.3999992 138.0844990  80.0429997
 140.3319992 138.2134990  80.2209997 139.1849992 138.7534990  79.3939997
 139.4984245 138.1926452  79.9795602 137.2409992 135.3794990  81.8649997
 136.9229992 134.4764990  81.8299997 138.0219992 135.3814990  81.3129997
 137.3031560 135.2561148  81.7854975 107.5949992   4.6664990  77.7449997
 106.6559992   4.7774990  77.5939997 107.8919992   5.5224990  78.0509997
 107.5066371   4.7975327  77.7657362 135.1759992 136.3534990  90.1879997
 134.2829992 136.6914990  90.1209997 135.0769992 135.4974990  90.6059997
 135.0405241 136.2840941  90.2352982 138.4359992 135.6184990  78.6359997
 138.3529992 136.5064990  78.9819997 139.3259992 135.3534990  78.8669997
 138.5449751 135.7042482  78.7146066 135.8189992 133.4914990  85.4849997
 135.5899992 133.5504990  84.5579997 135.3759992 132.7004990  85.7919997
 135.7277387 133.3926412  85.3995223 139.0639992 137.4194990  91.8069997
 139.2139992 136.6904990  91.2039997 139.0659992 138.1964990  91.2479997
 139.0847664 137.4248971  91.6490525 139.4759992 135.7884990  89.2989997
 140.0119992 136.2404990  88.6469997 138.6239992 135.6804990  88.8769997
 139.4341648 135.8357883  89.1526395 137.5419992 138.6174990  93.7179997
 136.7749992 138.0844990  93.5079997 138.2209992 138.3074990  93.1189997
 137.5288292 138.5026360  93.6082693 135.7229992 136.5374990  93.4229997
 135.9339992 135.8314990  92.8119997 135.6109992 136.1004990  94.2669997
 135.7367674 136.3816376  93.4534199 133.1679992 137.5604990  92.5889997
 134.0879992 137.4384990  92.8249997 132.7189992 136.8104990  92.9779997
 133.2331561 137.4423720  92.6739015 134.3899992 135.8734990  85.4799997
 134.8349992 135.0814990  85.7819997 134.8559992 136.5894990  85.9109997
 134.5139059 135.8619485  85.5796061 132.6939992 138.8724990  86.5489997
 133.1859992 138.6514990  85.7589997 133.0559992 139.7124990  86.8299997
 132.8103428 138.9558220  86.4787918 105.2169992  12.0364990  90.7829997
 104.8709992  11.6544990  91.5889997 105.0169992  12.9694990  90.8539997
 105.1425400  12.1103489  90.9030401 133.0069992 135.1304990  80.6039997
 132.0819992 135.3384990  80.4739997 133.4609992 135.6144990  79.9139997
 132.9417401 135.2243895  80.4929433 132.9709992 133.8684990  88.9479997
 132.3059992 133.6224990  89.5909997 132.5279992 134.4904990  88.3709997
 132.8201168 133.9189225  88.9579830 135.4469992 133.3754990  82.7789997
 134.6699992 133.1404990  82.2709997 135.9779992 132.5784990  82.7879997
 135.4124443 133.2356721  82.7107200 134.2839992 133.1734990  78.5819997
 134.7229992 133.7844990  77.9909997 133.6499992 133.7114990  79.0559997
 134.2584103 133.3299233  78.5651376 135.4049992 133.8894990  92.2959997
 135.0389992 133.1234990  92.7389997 136.3179992 133.9184990  92.5829997
 135.4783225 133.7886917  92.3953441 137.3779992 133.2394990  93.8319997
 138.2769992 132.9654990  93.6469997 136.9919992 132.4974990  94.2959997
 137.4487237 133.1016520  93.8694693  12.5339992  10.5394990 101.5929997
  12.6229992  11.4834990 101.4609997  11.8949992  10.2644990 100.9349997
  12.4598319  10.6314984 101.4860276  11.4669992   9.7944990 105.0119997
  11.4279992   9.1484990 105.7169997  11.1439992   9.3274990 104.2409997
  11.4180199   9.6430089 105.0042865   3.8349992   9.4084990 106.6049997
   3.8759992   8.7834990 107.3289997   4.5379992  10.0324990 106.7869997
   3.9356054   9.4073262 106.7286311  15.1729992  12.7334990 103.3139997
  14.7319992  12.0134990 103.7639997  15.1599992  13.4544990 103.9439997
  15.1108398  12.7323187 103.4607734 108.3129992   6.5334990  79.4059997
 109.2049992   6.3954990  79.7249997 108.3699992   7.3244990  78.8689997
 108.4427380   6.6214777  79.3770981   4.7589992  13.8584990 105.1399997
   4.3889992  13.0564990 104.7709997   5.6999992  13.6904990 105.1869997
   4.8355630  13.7258680 105.0957873   1.3689992   7.5184990 100.5329997
   0.9209992   8.3644990 100.5149997   0.8079992   6.9394990 100.0179997
   1.2318546   7.5559004 100.4608874   2.0789992   9.6804990 102.6589997
   2.2929992   8.9104990 103.1859997   2.8169992   9.7704990 102.0559997
   2.2080073   9.5873546 102.6495786  12.2839992  17.8374990 103.5259997
  12.9039992  17.1614990 103.2529997  12.0759992  17.6194990 104.4339997
  12.3407360  17.7154792 103.6114387   9.8559992  12.2264990 105.4179997
  10.1599992  11.5404990 104.8239997  10.5779992  12.3454990 106.0359997
   9.9951152  12.1487201 105.4202106  18.5189992   3.8284990 106.2789997
  18.5679992   4.4384990 107.0149997  18.9449992   4.2894990 105.5559997
  18.5832851   3.9743266 106.2820532  12.9969992   6.6204990 105.7459997
  13.1389992   5.6744990 105.7659997  12.8909992   6.8274990 104.8169997
  13.0021158   6.5189722 105.6232241   6.1519992   4.7224990 103.0179997
   6.1949992   5.5824990 102.5999997   5.6939992   4.1694990 102.3849997
   6.0959613   4.7655689 102.8751276  13.8739992   4.8534990 101.4189997
  14.5199992   4.5244990 102.0439997  14.3839992   5.3704990 100.7959997
  14.0314392   4.8783710 101.4203248   2.7719992   7.1194990 103.7799997
   3.4259992   6.5694990 104.2119997   2.7959992   6.8454990 102.8639997
   2.8647022   7.0072005 103.7151698  98.8219992  11.1474990  85.3149997
  99.5669992  11.1444990  84.7139997  98.8999992  10.3234990  85.7969997
  98.9344159  11.0357928  85.2979136   7.9279992   8.6694990 102.9959997
   8.5439992   8.1424990 103.5049997   7.3419992   8.0294990 102.5919997
   7.9330652   8.5108919 103.0110277  18.9109992   5.3064990 108.5149997
  18.2219992   5.9644990 108.4199997  18.9259992   5.1084990 109.4519997
  18.8187756   5.3697614 108.6285795   4.9619992   3.6404990 107.0919997
   4.7429992   4.1704990 106.3259997   4.2939992   3.8664990 107.7399997
   4.8417271   3.7436508 107.0746206  12.3309992  13.1404990 100.6359997
  12.0349992  12.8174990  99.7849997  12.0069992  14.0404990 100.6779997
  12.2466501  13.2179058 100.5250893   7.5309992  11.3154990 107.3799997
   6.7909992  11.9144990 107.4829997   8.2449992  11.8694990 107.0639997
   7.5263288  11.4722368 107.3513787  15.6379992   4.1444990 103.3999997
  15.4229992   3.3784990 103.9319997  16.2939992   4.6164990 103.9129997
  15.6972451   4.1034472 103.5421699   4.5559992   5.5324990 105.0449997
   5.1689992   6.1654990 105.4179997   5.0679992   5.0604990 104.3879997
   4.7091680   5.5554006 105.0072830   5.9379992  13.2804990 108.1669997
   5.9329992  14.1594990 107.7889997   5.0849992  13.1964990 108.5919997
   5.8219199  13.3895901 108.1726942   2.0599992  12.9514990  98.9489997
   1.7879992  13.1804990  98.0599997   2.1049992  13.7884990  99.4089997
   2.0288709  13.0961069  98.8896089  15.6849992  14.5724990 105.6619997
  14.7429992  14.6314990 105.8229997  15.9609992  15.4784990 105.5249997
  15.5935771  14.7030270 105.6654827 105.8229992  13.3104990  78.5709997
 105.5279992  14.1374990  78.9529997 105.1199992  12.6914990  78.7669997
 105.6875855  13.3399458  78.6497634  15.9849992   2.8594990 107.0789997
  15.2489992   3.4694990 107.0409997  16.6689992   3.2744990 106.5529997
  15.9765885   2.9991924 107.0026931   8.9879992   0.9454990 104.5449997
   8.8709992  -0.0025010 104.4909997   8.1329992   1.2784990 104.8179997
   8.8563691   0.8605842 104.5745072  13.9369992  16.3534990 102.2869997
  14.3619992  15.6464990 101.8019997  14.2539992  17.1554990 101.8699997
  14.0380266  16.3650201 102.1642461  15.0959992  14.2544990 100.7959997
  14.8389992  13.5644990 100.1839997  15.1669992  13.8114990 101.6409997
  15.0704322  14.1001568 100.8265372  16.7819992  12.8214990 109.2729997
  16.9219992  12.2294990 108.5339997  16.9499992  13.6944990 108.9169997
  16.8238734  12.8584041 109.1236937  11.2549992   9.7834990  99.0449997
  10.5429992  10.3184990  98.6939997  11.9459992   9.8384990  98.3849997
  11.2508696   9.8642591  98.9076372  11.3089992   8.2404990  96.0839997
  12.0099992   8.2634990  96.7349997  11.6109992   7.6124990  95.4279997
  11.4458282   8.1587350  96.0844478  18.6239992   9.1614990 107.3389997
  17.9719992   9.8554990 107.4279997  19.0889992   9.3714990 106.5289997
  18.5975357   9.2849544 107.2417056  14.6609992   9.9924990  99.9969997
  13.9289992  10.2214990 100.5699997  15.1079992   9.2794990 100.4519997
  14.6212753   9.9273984 100.1369698  14.5579992   8.1674990 109.0649997
  14.6379992   8.9304990 109.6369997  13.9569992   8.4464990 108.3739997
  14.4877115   8.3097707 109.0499631  95.8299992   9.6074990  90.6299997
  96.0529992   9.1894990  91.4619997  95.2279992   8.9954990  90.2079997
  95.7790802   9.4675216  90.6867561   6.3059992  10.6234990 101.8799997
   5.9759992  10.2524990 101.0609997   6.8939992   9.9524990 102.2259997
   6.3404056  10.4821257 101.8149035   7.6729992  14.0514990 104.5609997
   7.5779992  13.4724990 103.8039997   8.4019992  13.6804990 105.0569997
   7.7586161  13.9220902 104.5245192   6.6729992   9.3914990 105.5129997
   7.2379992   9.5134990 104.7499997   6.9909992  10.0294990 106.1519997
   6.7933430   9.4944448 105.4949094  12.9819992  14.8954990 106.2469997
  12.7409992  15.5574990 106.8949997  12.7839992  14.0604990 106.6719997
  12.9222662  14.8732704 106.3931008  13.5319992   9.1554990  97.6819997
  14.1109992   9.3054990  98.4289997  13.9459992   9.6254990  96.9589997
  13.6673122   9.2396288  97.6865024   4.4729992   9.9894990 109.4589997
   4.5429992  10.6404990 110.1569997   3.5819992  10.0924990 109.1239997
   4.3621802  10.0924769 109.5092231  11.2579992  15.8914990 101.1179997
  11.7319992  16.1874990 101.8949997  10.6949992  16.6304990 100.8839997
  11.2468460  16.0318336 101.1927626  17.2299992   0.9054990  97.4949997
  16.3299992   1.0434990  97.7899997  17.4819992   1.7364990  97.0929997
  17.1407355   1.0368200  97.4810539   5.2959992   9.6924990  99.4689997
   5.0039992  10.4604990  98.9779997   4.6219992   9.0334990  99.3059997
   5.1648843   9.7084537  99.3797695  18.4199992  15.2714990  95.8719997
  18.4929992  16.2104990  96.0419997  19.3249992  14.9664990  95.8149997
  18.5524168  15.3588531  95.8875736 102.8469992   9.1244990  92.8429997
 102.5509992   8.9594990  91.9479997 103.7779992   8.9044990  92.8329997
 102.9323909   9.0721274  92.7190110   1.3889992  12.0554990 108.2839997
   0.8879992  12.0274990 107.4689997   1.3949992  11.1504990 108.5939997
   1.3211690  11.9292234 108.2142770   1.1399992  14.8364990 105.1679997
   2.0859992  14.6914990 105.1489997   1.0269992  15.6204990 105.7049997
   1.2543578  14.9226708 105.2380300  10.3159992  15.0764990 109.7259997
  10.4029992  15.9024990 110.2009997   9.4519992  14.7464990 109.9749997
  10.2111944  15.1449871 109.8246558  10.7299992  18.8484990  99.5319997
  10.6549992  18.7274990  98.5859997  10.7629992  19.7974990  99.6509997
  10.7241862  18.9602492  99.4184840   4.3839992  17.6374990 101.3129997
   4.5359992  17.2894990 102.1919997   3.5329992  17.2804990 101.0579997
   4.2897899  17.5416749 101.3987322  13.8319992  18.0024990  96.5349997
  14.2069992  17.2584990  96.0639997  13.8359992  17.7324990  97.4529997
  13.8838969  17.8640920  96.5946475  13.5009992  17.9284990  99.2839997
  12.5659992  18.0284990  99.4629997  13.7809992  17.2184990  99.8619997
  13.4109270  17.8462300  99.3865984   3.6379992  13.3794990 109.3269997
   3.8539992  13.0174990 110.1869997   2.7829992  13.0044990 109.1169997
   3.5519349  13.2792914 109.4162134   6.2569992   1.8494990 105.3229997
   5.3949992   1.7624990 104.9149997   6.2349992   2.7054990 105.7499997
   6.1360953   1.9533558 105.3249262  10.9199992   1.5714990 108.6969997
  11.3399992   1.1564990 109.4499997   9.9869992   1.3924990 108.8139997
  10.8513736   1.4904921 108.8158950 107.4669992  14.4984990  90.7329997
 106.5659992  14.6814990  90.4649997 107.5009992  14.7574990  91.6539997
 107.3483021  14.5585505  90.8208206  14.2459992   5.3264990 109.5509997
  13.7319992   5.2014990 110.3479997  14.0909992   6.2394990 109.3059997
  14.1546643   5.4327068 109.6270624  15.0089992  10.1874990  95.3119997
  15.0509992   9.9654990  94.3819997  15.8579992  10.5864990  95.5019997
  15.1295253  10.2110510  95.2103804  10.5819992   4.0634990  95.9819997
  10.3279992   4.0824990  96.9049997  10.3249992   3.1924990  95.6809997
  10.5125133   3.9483121  96.0675065   6.3479992   6.8144990 106.4179997
   5.7059992   6.7744990 107.1269997   6.3849992   7.7414990 106.1799997
   6.2651659   6.9342540 106.4828463   6.3449992   7.0354990 101.3299997
   5.4519992   6.6954990 101.2709997   6.7959992   6.6584990 100.5739997
   6.2837185   6.9380220 101.2197698  11.8809992   7.4514990 100.1469997
  11.4719992   8.2664990  99.8549997  12.6009992   7.3114990  99.5319997
  11.9223946   7.5439963 100.0239616  12.8849992   6.8974990 102.9609997
  12.6899992   7.5034990 102.2459997  13.0669992   6.0644990 102.5259997
  12.8829272   6.8677955 102.8044075   4.0979992   7.1354990 108.2849997
   4.0599992   7.5354990 109.1529997   3.6069992   6.3184990 108.3749997
   4.0264246   7.0798842 108.4161171   7.4639992   4.5094990  95.0829997
   7.0329992   4.0644990  95.8129997   6.7459992   4.8804990  94.5709997
   7.3079363   4.4987979  95.1136194   0.7059992   4.2514990 102.1349997
   1.3369992   4.2224990 102.8549997   1.1559992   3.8264990 101.4049997
   0.8530905   4.1900839 102.1347479 113.1979992   6.7424990  79.0999997
 112.6439992   6.3464990  78.4279997 113.2989992   7.6534990  78.8229997
 113.1357084   6.8113565  78.9704381   1.9799992   4.9974990  97.5589997
   2.4549992   5.5884990  96.9739997   1.2629992   5.5274990  97.9059997
   1.9480406   5.1501011  97.5258495  12.1489992   8.5354990 107.6319997
  12.4729992   7.9044990 106.9889997  11.7089992   8.0014990 108.2929997
  12.1338707   8.3768261 107.6333195   8.9269992   4.4634990 102.4159997
   8.0159992   4.5204990 102.7049997   9.4319992   4.4034990 103.2269997
   8.8706873   4.4631838 102.5651190   3.7549992   6.0924990 101.2429997
   2.8659992   6.1914990 100.9029997   4.0509992   5.2504990 100.8969997
   3.6734001   5.9922473 101.1497318   7.4079992   6.0924990  98.8989997
   8.3399992   6.2214990  99.0769997   7.1929992   6.7614990  98.2499997
   7.5064245   6.2006452  98.8355602  13.3319992   3.6984990 105.6799997
  12.6549992   3.8294990 106.3439997  12.8459992   3.5434990 104.8699997
  13.1737265   3.6954665 105.6613380   6.0819992   7.2864990  96.4659997
   5.5399992   6.9074990  95.7749997   6.9159992   7.4814990  96.0369997
   6.1204283   7.2609383  96.3134298  10.2469992   7.2504990 104.3029997
  10.8109992   6.7044990 103.7559997  10.0989992   6.7294990 105.0919997
  10.3043037   7.1051798 104.3347212   5.2489992   3.3874990 100.7209997
   4.9309992   2.4844990 100.6859997   6.0299992   3.3894990 100.1689997
   5.3111560   3.2641148 100.6414975   8.8729992   5.6394990 106.7169997
   8.0379992   6.0934990 106.8269997   9.3969992   5.9154990 107.4689997
   8.8295070   5.7389677 106.8337134 113.1609992  12.5434990  91.9369997
 112.3099992  12.7814990  91.5699997 113.7519992  12.5264990  91.1839997
 113.1242468  12.5738251  91.7848902   9.4169992  11.8524990  98.4019997
   8.6719992  11.3444990  98.0789997   9.2829992  11.9014990  99.3479997
   9.2968633  11.7895714  98.4857563  16.5669992  10.9854990 107.1879997
  17.2089992  11.4414990 106.6449997  15.7369992  11.0984990 106.7259997
  16.5427352  11.0633223 107.0510234  13.3149992   4.6664990  96.6009997
  12.3759992   4.7774990  96.4499997  13.6119992   5.5224990  96.9069997
  13.2266371   4.7975327  96.6217362  10.9369992  12.0364990 109.6389997
  10.5909992  11.6544990 110.4449997  10.7369992  12.9694990 109.7099997
  10.8625400  12.1103489 109.7590401  14.0329992   6.5334990  98.2619997
  14.9249992   6.3954990  98.5809997  14.0899992   7.3244990  97.7249997
  14.1627380   6.6214777  98.2330981   4.5419992  11.1474990 104.1709997
   5.2869992  11.1444990 103.5699997   4.6199992  10.3234990 104.6529997
   4.6544158  11.0357928 104.1539136  11.5429992  13.3104990  97.4269997
  11.2479992  14.1374990  97.8089997  10.8399992  12.6914990  97.6229997
  11.4075855  13.3399458  97.5057633   1.5499992   9.6074990 109.4859997
   1.7729992   9.1894990 110.3179997   0.9479992   8.9954990 109.0639997
   1.4990802   9.4675216 109.5427561  13.1869992  14.4984990 109.5889997
  12.2859992  14.6814990 109.3209997  13.2209992  14.7574990 110.5099997
  13.0683021  14.5585505 109.6768206  18.9179992   6.7424990  97.9559997
  18.3639992   6.3464990  97.2839997  19.0189992   7.6534990  97.6789997
  18.8557084   6.8113565  97.8264381 111.4929992  15.5284990  79.5649997
 111.1209992  14.7034990  79.8749997 111.7709992  15.3454990  78.6679997
 111.4795997  15.3906160  79.4861551  17.2129992  15.5284990  98.4209997
  16.8409992  14.7034990  98.7309997  17.4909992  15.3454990  97.5239997
  17.1995997  15.3906160  98.3421551  14.3739992  10.3364990 105.4429997
  13.4459992  10.1054990 105.4159997  14.8249992   9.5594990 105.1129997
  14.3078165  10.1997785 105.3946772   6.9169992  14.6654990 101.5759997
   7.4439992  15.4384990 101.3749997   6.0369992  14.8894990 101.2739997
   6.8701793  14.8016652 101.5076304   2.6719992   9.5274990  96.1629997
   3.2879992  10.1544990  96.5419997   1.8099992   9.8434990  96.4339997
   2.6398195   9.6560810  96.2515369   8.3439992  12.3284990 101.1519997
   8.1029992  13.2534990 101.1939997   7.6039992  11.8694990 101.5479997
   8.2108934  12.3930881 101.2113191   8.8589992  16.4774990 107.4669997
   9.2219992  17.3314990 107.2339997   9.3909992  16.1854990 108.2079997
   8.9805141  16.5548907 107.5352079   7.0269992  17.3494990 100.6969997
   6.0779992  17.4554990 100.7489997   7.3789992  18.1704990 101.0419997
   6.9446214  17.4749361 100.7507317  12.4029992  12.5764990 107.1679997
  11.9769992  12.3484990 107.9939997  12.9839992  11.8374990 106.9849997
  12.4231587  12.4454084 107.2564111  14.6059992  13.5054990  96.2419997
  14.9589992  13.1254990  97.0459997  13.6569992  13.4114990  96.3279997
  14.5260985  13.4407330  96.3637738  15.0619992  17.1284990 109.6369997
  14.4599992  16.5724990 109.1419997  15.3429992  17.7954990 109.0109997
  15.0175757  17.1425755 109.4845657 108.6539992  10.3364990  86.5869997
 107.7259992  10.1054990  86.5599997 109.1049992   9.5594990  86.2569997
 108.5878165  10.1997785  86.5386772  19.1089992  17.9844990  96.4429997
  19.8529992  18.5704990  96.3029997  18.4149992  18.5534990  96.7759997
  19.1169809  18.1415830  96.4688572   3.1839992   4.3614990 109.0439997
   2.2909992   4.6994990 108.9769997   3.0849992   3.5054990 109.4619997
   3.0485241   4.2920941 109.0912982  15.4719992  12.1774990  98.4679997
  15.1949992  11.4494990  99.0239997  16.3989992  12.2964990  98.6739997
  15.5594181  12.0940068  98.5718972   2.8349992  16.1654990 107.4789997
   3.0519992  15.2334990 107.4479997   3.0819992  16.4404990 108.3629997
   2.8980543  16.0750877 107.5941412   8.6969992  14.6174990  94.6889997
   8.9359992  13.8684990  94.1409997   8.4279992  14.2294990  95.5209997
   8.6932804  14.4626524  94.7266352   7.6339992  14.1874990  97.1449997
   7.7809992  13.6674990  97.9349997   7.6309992  15.0944990  97.4509997
   7.6537300  14.2388975  97.2945877   4.0869992  11.4394990  97.6549997
   3.4009992  11.7924990  98.2219997   4.6099992  12.2024990  97.4089997
   4.0639033  11.5908757  97.6992644  11.9179992   4.1024990 107.9339997
  12.6169992   4.1764990 108.5839997  11.5379992   3.2374990 108.0889997
  11.9622095   3.9957402 108.0437982  12.7029992   3.7544990  99.0309997
  12.9229992   4.2254990  98.2279997  13.2609992   4.1484990  99.7019997
  12.8085851   3.8723272  99.0116134  10.3719992  15.8844990  97.8939997
   9.5549992  16.3814990  97.9469997  10.9009992  16.3604990  97.2539997
  10.3317898  16.0168123  97.8147274 101.1969992  14.6654990  82.7199997
 101.7239992  15.4384990  82.5189997 100.3169992  14.8894990  82.4179997
 101.1501793  14.8016652  82.6516304   9.9029992   5.4824990  99.8659997
  10.7149992   5.9864990  99.9119997   9.6579992   5.3374990 100.7799997
   9.9811091   5.5319366  99.9958552  10.4389992   6.4684990 109.0509997
  10.5579992   7.0424990 109.8079997  11.0939992   5.7804990 109.1659997
  10.5438684   6.4540205 109.1701656  10.7869992   2.5634990 100.8039997
  10.4399992   3.1804990 101.4489997  11.4449992   3.0644990 100.3229997
  10.8285290   2.7156384 100.8271635   7.7099992  16.9284990  97.8759997
   7.8709992  17.7284990  97.3749997   7.5129992  17.2354990  98.7609997
   7.7053919  17.0794140  97.9270988   6.4439992   3.6264990  97.4919997
   6.3609992   4.5144990  97.8379997   7.3339992   3.3614990  97.7229997
   6.5529751   3.7122482  97.5706066  16.6429992   4.3754990 109.8859997
  15.7269992   4.6374990 109.7979997  16.9789992   4.3724990 108.9889997
  16.5629789   4.4109637 109.7527829  15.2449992   8.1254990 103.9819997
  14.4479992   7.7104990 103.6529997  15.6899992   7.4354990 104.4729997
  15.1960317   7.9753197 104.0033556   4.7029992  14.0534990  96.5519997
   5.2949992  14.7534990  96.8279997   5.1619992  13.6204990  95.8329997
   4.8461172  14.0907371  96.4925163   3.0189992   6.7184990  95.6679997
   2.9739992   7.6574990  95.8469997   2.1309992   6.4824990  95.3979997
   2.8928472   6.8151946  95.6560282  16.3319992  17.3814990 105.6039997
  16.1759992  18.0604990 104.9469997  17.2639992  17.4534990 105.8069997
  16.4367328  17.4841586 105.5415529  96.9519992   9.5274990  77.3069997
  97.5679992  10.1544990  77.6859997  96.0899992   9.8434990  77.5779997
  96.9198195   9.6560810  77.3955369   3.8269992   1.4994990 104.3409997
   3.5979992   1.5584990 103.4139997   3.3839992   0.7084990 104.6479997
   3.7357387   1.4006412 104.2555223   2.7569992  15.4404990 100.5019997
   1.9249992  15.9124990 100.5289997   3.3029992  15.9504990  99.9029997
   2.7168710  15.5740317 100.4247570  10.7349992  16.4804990  94.8269997
  10.0909992  15.8494990  95.1489997  11.4969992  15.9494990  94.5949997
  10.7498260  16.3223035  94.8397298  15.3389992  16.2974990  95.0609997
  15.6219992  15.5024990  95.5139997  16.0789992  16.5304990  94.4999997
  15.4777295  16.2202349  95.0471469   6.2939992  12.2064990  94.9179997
   6.3579992  11.4124990  95.4489997   6.9469992  12.0884990  94.2289997
   6.3911168  12.0817748  94.8975119  11.6459992  13.2534990  94.6539997
  11.3779992  13.4344990  95.5549997  11.4399992  12.3284990  94.5229997
  11.5814251  13.1531528  94.7596809  14.3429992  11.7484990 109.6019997
  15.0879992  12.3374990 109.4819997  13.5849992  12.3304990 109.6649997
  14.3425185  11.9077000 109.5940940   7.4429992  10.1794990  97.2239997
   6.9839992   9.6954990  97.9099997   7.6979992   9.5104990  96.5879997
   7.4146178  10.0228511  97.2319785   6.7319992   8.0724990 109.5799997
   6.1139992   8.7464990 109.8609997   7.0759992   8.3934990 108.7469997
   6.6938181   8.2083233 109.5058266   8.5139992   8.4224990  95.4869997
   8.3339992   8.2674990  94.5589997   9.4639992   8.5304990  95.5309997
   8.6178016   8.4159264  95.3662123 102.6239992  12.3284990  82.2959997
 102.3829992  13.2534990  82.3379997 101.8839992  11.8694990  82.6919997
 102.4908934  12.3930881  82.3553191  17.9039992  10.7764990  94.9319997
  17.6309992  10.3524990  94.1189997  17.9439992  11.7084990  94.7149997
  17.8720201  10.8443523  94.7913548   7.4839992   3.7964990 108.1549997
   8.0199992   4.2484990 107.5029997   6.6319992   3.6884990 107.7329997
   7.4421648   3.8437883 108.0086395   9.0659992   9.2364990 108.3949997
   9.8169992   9.0804990 107.8219997   8.7269992  10.0884990 108.1189997
   9.1229052   9.3302745 108.2793469   8.2899992   1.2534990 108.5869997
   8.1919992   2.1994990 108.4809997   7.5469992   0.8804990 108.1109997
   8.1762363   1.3325987 108.5082029   8.4119992  19.1124990  96.4879997
   9.3449992  19.2704990  96.6319997   8.1469992  19.7884990  95.8629997
   8.5039846  19.2254567  96.4232930   1.9799992  13.7494990  95.9709997
   2.8939992  13.8284990  96.2439997   1.9869992  13.0624990  95.3039997
   2.1060769  13.6674735  95.9182366   0.6289992  19.1424990 101.0479997
  -0.0180008  18.6804990 100.5149997   0.9839992  18.4704990 101.6309997
   0.5883861  18.9884707 101.0537939   1.4989992  17.2224990 102.8529997
   1.1649992  16.3424990 103.0249997   1.7209992  17.5684990 103.7169997
   1.4832677  17.1487365 102.9934252  19.0479992  18.0324990 105.8329997
  19.0259992  18.2174990 106.7719997  19.7379992  18.6004990 105.4919997
  19.1383439  18.1346898 105.9154774  18.6109992  17.5994990 108.7549997
  18.1239992  16.8634990 108.3839997  19.1599992  17.2054990 109.4329997
  18.6186101  17.4456267 108.7959034 103.1389992  16.4774990  88.6109997
 103.5019992  17.3314990  88.3779997 103.6709992  16.1854990  89.3519997
 103.2605141  16.5548907  88.6792079  18.3629992  11.6454990  98.9069997
  19.2129992  12.0664990  99.0349997  18.3679992  10.9054990  99.5149997
  18.4799745  11.6031347  99.0066479  18.7569992   9.6994990 100.7309997
  18.0309992   9.2194990 101.1289997  19.3379992   9.9044990 101.4629997
  18.7362504   9.6615592 100.8844199  18.5159992  12.4844990 105.6789997
  19.3499992  12.1064990 105.3979997  18.6279992  13.4274990 105.5599997
  18.6451917  12.5602954 105.6244844  17.0019992  15.3624990 107.9859997
  16.3549992  15.6874990 108.6109997  16.4849992  14.9214990 107.3109997
  16.8434068  15.3474726 107.9804918  19.0249992   9.6004990  97.1219997
  18.5039992   9.9564990  96.4029997  18.9919992  10.2754990  97.7999997
  18.9491525   9.7405273  97.1151408  17.3739992   6.8394990  95.6729997
  17.4709992   7.5064990  94.9929997  17.2339992   6.0244990  95.1909997
  17.3683428   6.8205667  95.5148311  16.5439992   8.2204990 101.2939997
  16.3939992   7.2754990 101.2739997  16.1899992   8.5014990 102.1379997
  16.4756351   8.1291656 101.4053202   1.5789992  10.2984990 105.3039997
   1.7629992  10.2164990 104.3689997   2.4279992  10.1744990 105.7279997
   1.7190259  10.2704915 105.2331771  16.6219992   4.2474990  94.7899997
  17.2319992   3.8764990  95.4269997  15.7849992   3.8264990  94.9859997
  16.5923704   4.1397942  94.9037077  16.2539992   5.8024990  99.7559997
  16.5339992   4.8954990  99.8809997  17.0129992   6.2364990  99.3669997
  16.3949471   5.7370654  99.7205052 101.3069992  17.3494990  81.8409997
 100.3579992  17.4554990  81.8929997 101.6589992  18.1704990  82.1859997
 101.2246214  17.4749361  81.8947317  16.8659992   6.3844990 105.1919997
  17.7989992   6.5964990 105.1579997  16.6309992   6.4854990 106.1149997
  16.9618357   6.4271303 105.3120232  16.8949992   7.1214990 107.9679997
  16.0519992   7.3894990 108.3339997  17.3379992   7.9434990 107.7569997
  16.8394358   7.2693294 107.9895999  16.8679992   3.0654990  99.8049997
  17.0499992   2.6164990 100.6299997  16.2679992   2.4814990  99.3409997
  16.8118187   2.9250563  99.8552721   2.3979992   3.8814990 104.3359997
   2.8429992   3.0894990 104.6379997   2.8639992   4.5974990 104.7669997
   2.5219059   3.8699485 104.4356061   0.7019992   6.8804990 105.4049997
   1.1939992   6.6594990 104.6149997   1.0639992   7.7204990 105.6859997
   0.8183428   6.9638220 105.3347918  18.7339992   3.1334990  96.3329997
  19.1469992   2.4124990  95.8569997  19.4159992   3.8024990  96.3909997
  18.8825712   3.1254304  96.2758247   1.0149992   3.1384990  99.4599997
   0.0899992   3.3464990  99.3299997   1.4689992   3.6224990  98.7699997
   0.9497401   3.2323895  99.3489433  15.7859992  18.1224990 101.4049997
  16.4379992  17.7744990 100.7969997  16.2969992  18.6104990 102.0509997
  15.9442872  18.1408248 101.4090964   0.9789992   1.8764990 107.8039997
   0.3139992   1.6304990 108.4469997   0.5359992   2.4984990 107.2269997
   0.8281168   1.9269225 107.8139830   6.1249992  16.0254990 108.2069997
   5.6999992  16.8354990 107.9239997   7.0289992  16.1114990 107.9049997
   6.1891002  16.1478728 108.1274798 106.6829992  12.5764990  88.3119997
 106.2569992  12.3484990  89.1379997 107.2639992  11.8374990  88.1289997
 106.7031587  12.4454084  88.4004111  17.6989992   1.3004990 109.4899997
  16.8859992   1.6254990 109.1019997  17.9319992   0.5394990 108.9569997
  17.6192566   1.2421570 109.3649196   3.5269992  19.2824990 108.2539997
   2.8059992  19.7224990 107.8029997   3.1609992  19.0314990 109.1029997
   3.3789785  19.3087691 108.3069849   5.9939992  18.8824990 107.2839997
   5.1289992  18.9544990 107.6879997   5.9389992  19.4294990 106.4999997
   5.8682066  18.9662678 107.2333371  10.7049992  18.7704990 106.4599997
  10.2479992  19.2994990 105.8059997  10.8669992  19.3734990 107.1849997
  10.6643919  18.9243990 106.4685740  13.0319992  17.6484990 107.4049997
  12.1279992  17.8134990 107.1389997  13.4609992  18.5014990 107.3389997
  12.9662017  17.7864184 107.3596495  15.6359992  19.2184990 107.6999997
  15.4549992  20.1344990 107.4889997  15.8129992  18.8074990 106.8529997
  15.6351377  19.2883365 107.5567178   2.9419992  17.9054990 105.1649997
   2.9229992  17.4794990 106.0219997   3.7459992  17.5864990 104.7559997
   3.0481393  17.8040297 105.2270155   5.0829992  16.6154990 103.8199997
   4.8639992  15.6984990 103.9889997   5.9069992  16.7554990 104.2859997
   5.1644637  16.5089586 103.9061414   7.6199992  17.0854990 104.6679997
   7.8329992  16.1974990 104.3809997   7.6849992  17.0504990 105.6229997
   7.6579075  16.9593318 104.7577355  11.1289992   2.7494990 103.8129997
  10.4539992   2.1194990 104.0679997  11.6929992   2.2654990 103.2099997
  11.1129558   2.5979283 103.7663451 109.3419992  17.1284990  90.7809997
 108.7399992  16.5724990  90.2859997 109.6229992  17.7954990  90.1549997
 109.2975757  17.1425755  90.6285657  16.2709992   0.8564990 103.9249997
  16.8749992   1.4044990 103.4239997  15.4019992   1.1754990 103.6849997
  16.2361126   0.9747070 103.8239180  17.9979992   1.9954990 102.2589997
  18.6099992   1.4814990 101.7319997  18.3809992   2.8724990 102.2819997
  18.1333867   2.0437613 102.1900888   3.4549992   1.3834990 101.6349997
   2.6779992   1.1484990 101.1269997   3.9859992   0.5864990 101.6439997
   3.4204443   1.2436721 101.5667200   2.2919992   1.1814990  97.4379997
   2.7309992   1.7924990  96.8469997   1.6579992   1.7194990  97.9119997
   2.2664104   1.3379233  97.4211376   8.0349992   1.3094990 101.4479997
   8.9089992   1.6984990 101.4179997   7.8989992   1.0944990 102.3709997
   8.1363125   1.3337120 101.5686523  13.5909992   1.3394990 103.0969997
  13.6679992   1.4354990 102.1479997  13.3159992   0.4324990 103.2259997
  13.5643407   1.2299188 102.9843532  14.9449992   1.3654990  98.7899997
  14.2419992   1.9804990  98.5799997  14.4999992   0.5284990  98.9209997
  14.7886550   1.3364679  98.7789819   2.1929992  17.1294990  98.3359997
   1.5079992  17.0914990  97.6679997   2.1959992  18.0414990  98.6239997
   2.0997358  17.2476744  98.2836145   4.1529992   3.0974990  95.8809997
   4.6439992   2.4674990  95.3529997   4.7759992   3.3934990  96.5439997
   4.3045459   3.0512419  95.8983667   9.1789992   3.3904990  98.3379997
   9.3569992   2.7434990  99.0209997   9.1249992   4.2244990  98.8049997
   9.1960678   3.4146615  98.4946283  97.4639992   4.3614990  90.1879997
  96.5709992   4.6994990  90.1209997  97.3649992   3.5054990  90.6059997
  97.3285241   4.2920941  90.2352982  11.0569992  18.3384990  96.7329997
  11.9229992  18.7054990  96.5549997  10.8099992  17.8994990  95.9199997
  11.1422041  18.3293648  96.5985958  17.7659992  17.9014990  99.4129997
  17.5719992  17.1534990  98.8479997  17.7269992  18.6594990  98.8289997
  17.7341907  17.9015770  99.2568077   4.0109992  18.0494990  95.3609997
   3.7429992  18.3354990  96.2339997   4.7819992  17.5034990  95.5129997
   4.0785600  18.0148341  95.5011482  31.3899992  10.5394990 101.5929997
  31.4789992  11.4834990 101.4609997  30.7509992  10.2644990 100.9349997
  31.3158319  10.6314984 101.4860276  30.3229992   9.7944990 105.0119997
  30.2839992   9.1484990 105.7169997  29.9999992   9.3274990 104.2409997
  30.2740199   9.6430089 105.0042865  22.6909992   9.4084990 106.6049997
  22.7319992   8.7834990 107.3289997  23.3939992  10.0324990 106.7869997
  22.7916054   9.4073262 106.7286311  34.0289992  12.7334990 103.3139997
  33.5879992  12.0134990 103.7639997  34.0159992  13.4544990 103.9439997
  33.9668398  12.7323187 103.4607734  23.6149992  13.8584990 105.1399997
  23.2449992  13.0564990 104.7709997  24.5559992  13.6904990 105.1869997
  23.6915630  13.7258680 105.0957873  20.2249992   7.5184990 100.5329997
  19.7769992   8.3644990 100.5149997  19.6639992   6.9394990 100.0179997
  20.0878546   7.5559004 100.4608874  20.9349992   9.6804990 102.6589997
  21.1489992   8.9104990 103.1859997  21.6729992   9.7704990 102.0559997
  21.0640073   9.5873546 102.6495786 109.7519992  12.1774990  79.6119997
 109.4749992  11.4494990  80.1679997 110.6789992  12.2964990  79.8179997
 109.8394181  12.0940068  79.7158972  31.1399992  17.8374990 103.5259997
  31.7599992  17.1614990 103.2529997  30.9319992  17.6194990 104.4339997
  31.1967360  17.7154792 103.6114387  28.7119992  12.2264990 105.4179997
  29.0159992  11.5404990 104.8239997  29.4339992  12.3454990 106.0359997
  28.8511152  12.1487201 105.4202106  37.3749992   3.8284990 106.2789997
  37.4239992   4.4384990 107.0149997  37.8009992   4.2894990 105.5559997
  37.4392851   3.9743266 106.2820532  31.8529992   6.6204990 105.7459997
  31.9949992   5.6744990 105.7659997  31.7469992   6.8274990 104.8169997
  31.8581158   6.5189722 105.6232241  25.0079992   4.7224990 103.0179997
  25.0509992   5.5824990 102.5999997  24.5499992   4.1694990 102.3849997
  24.9519613   4.7655689 102.8751276  32.7299992   4.8534990 101.4189997
  33.3759992   4.5244990 102.0439997  33.2399992   5.3704990 100.7959997
  32.8874392   4.8783710 101.4203248  21.6279992   7.1194990 103.7799997
  22.2819992   6.5694990 104.2119997  21.6519992   6.8454990 102.8639997
  21.7207022   7.0072005 103.7151698  26.7839992   8.6694990 102.9959997
  27.3999992   8.1424990 103.5049997  26.1979992   8.0294990 102.5919997
  26.7890652   8.5108919 103.0110277  37.7669992   5.3064990 108.5149997
  37.0779992   5.9644990 108.4199997  37.7819992   5.1084990 109.4519997
  37.6747756   5.3697614 108.6285795  23.8179992   3.6404990 107.0919997
  23.5989992   4.1704990 106.3259997  23.1499992   3.8664990 107.7399997
  23.6977271   3.7436508 107.0746206  97.1149992  16.1654990  88.6229997
  97.3319992  15.2334990  88.5919997  97.3619992  16.4404990  89.5069997
  97.1780543  16.0750877  88.7381412  31.1869992  13.1404990 100.6359997
  30.8909992  12.8174990  99.7849997  30.8629992  14.0404990 100.6779997
  31.1026501  13.2179058 100.5250893  26.3869992  11.3154990 107.3799997
  25.6469992  11.9144990 107.4829997  27.1009992  11.8694990 107.0639997
  26.3823288  11.4722368 107.3513787  34.4939992   4.1444990 103.3999997
  34.2789992   3.3784990 103.9319997  35.1499992   4.6164990 103.9129997
  34.5532451   4.1034472 103.5421699  23.4119992   5.5324990 105.0449997
  24.0249992   6.1654990 105.4179997  23.9239992   5.0604990 104.3879997
  23.5651680   5.5554006 105.0072830  24.7939992  13.2804990 108.1669997
  24.7889992  14.1594990 107.7889997  23.9409992  13.1964990 108.5919997
  24.6779199  13.3895901 108.1726942  20.9159992  12.9514990  98.9489997
  20.6439992  13.1804990  98.0599997  20.9609992  13.7884990  99.4089997
  20.8848709  13.0961069  98.8896089  34.5409992  14.5724990 105.6619997
  33.5989992  14.6314990 105.8229997  34.8169992  15.4784990 105.5249997
  34.4495771  14.7030270 105.6654827  34.8409992   2.8594990 107.0789997
  34.1049992   3.4694990 107.0409997  35.5249992   3.2744990 106.5529997
  34.8325885   2.9991924 107.0026931  27.8439992   0.9454990 104.5449997
  27.7269992  -0.0025010 104.4909997  26.9889992   1.2784990 104.8179997
  27.7123691   0.8605842 104.5745072  32.7929992  16.3534990 102.2869997
  33.2179992  15.6464990 101.8019997  33.1099992  17.1554990 101.8699997
  32.8940266  16.3650201 102.1642461 106.1979992   4.1024990  89.0779997
 106.8969992   4.1764990  89.7279997 105.8179992   3.2374990  89.2329997
 106.2422095   3.9957402  89.1877982  33.9519992  14.2544990 100.7959997
  33.6949992  13.5644990 100.1839997  34.0229992  13.8114990 101.6409997
  33.9264322  14.1001568 100.8265372  35.6379992  12.8214990 109.2729997
  35.7779992  12.2294990 108.5339997  35.8059992  13.6944990 108.9169997
  35.6798734  12.8584041 109.1236937  30.1109992   9.7834990  99.0449997
  29.3989992  10.3184990  98.6939997  30.8019992   9.8384990  98.3849997
  30.1068696   9.8642591  98.9076372  30.1649992   8.2404990  96.0839997
  30.8659992   8.2634990  96.7349997  30.4669992   7.6124990  95.4279997
  30.3018282   8.1587350  96.0844478  37.4799992   9.1614990 107.3389997
  36.8279992   9.8554990 107.4279997  37.9449992   9.3714990 106.5289997
  37.4535357   9.2849544 107.2417056  33.5169992   9.9924990  99.9969997
  32.7849992  10.2214990 100.5699997  33.9639992   9.2794990 100.4519997
  33.4772753   9.9273984 100.1369698  33.4139992   8.1674990 109.0649997
  33.4939992   8.9304990 109.6369997  32.8129992   8.4464990 108.3739997
  33.3437115   8.3097707 109.0499631  25.1619992  10.6234990 101.8799997
  24.8319992  10.2524990 101.0609997  25.7499992   9.9524990 102.2259997
  25.1964056  10.4821257 101.8149035  26.5289992  14.0514990 104.5609997
  26.4339992  13.4724990 103.8039997  27.2579992  13.6804990 105.0569997
  26.6146161  13.9220902 104.5245192  25.5289992   9.3914990 105.5129997
  26.0939992   9.5134990 104.7499997  25.8469992  10.0294990 106.1519997
  25.6493430   9.4944448 105.4949094 106.9829992   3.7544990  80.1749997
 107.2029992   4.2254990  79.3719997 107.5409992   4.1484990  80.8459997
 107.0885851   3.8723272  80.1556134  31.8379992  14.8954990 106.2469997
  31.5969992  15.5574990 106.8949997  31.6399992  14.0604990 106.6719997
  31.7782662  14.8732704 106.3931008  32.3879992   9.1554990  97.6819997
  32.9669992   9.3054990  98.4289997  32.8019992   9.6254990  96.9589997
  32.5233122   9.2396288  97.6865024  23.3289992   9.9894990 109.4589997
  23.3989992  10.6404990 110.1569997  22.4379992  10.0924990 109.1239997
  23.2181802  10.0924769 109.5092231  30.1139992  15.8914990 101.1179997
  30.5879992  16.1874990 101.8949997  29.5509992  16.6304990 100.8839997
  30.1028460  16.0318336 101.1927626  36.0859992   0.9054990  97.4949997
  35.1859992   1.0434990  97.7899997  36.3379992   1.7364990  97.0929997
  35.9967355   1.0368200  97.4810539  24.1519992   9.6924990  99.4689997
  23.8599992  10.4604990  98.9779997  23.4779992   9.0334990  99.3059997
  24.0208843   9.7084537  99.3797695  37.2759992  15.2714990  95.8719997
  37.3489992  16.2104990  96.0419997  38.1809992  14.9664990  95.8149997
  37.4084168  15.3588531  95.8875736  20.2449992  12.0554990 108.2839997
  19.7439992  12.0274990 107.4689997  20.2509992  11.1504990 108.5939997
  20.1771690  11.9292234 108.2142770  19.9959992  14.8364990 105.1679997
  20.9419992  14.6914990 105.1489997  19.8829992  15.6204990 105.7049997
  20.1103578  14.9226708 105.2380300  29.1719992  15.0764990 109.7259997
  29.2589992  15.9024990 110.2009997  28.3079992  14.7464990 109.9749997
  29.0671944  15.1449871 109.8246558 104.6519992  15.8844990  79.0379997
 103.8349992  16.3814990  79.0909997 105.1809992  16.3604990  78.3979997
 104.6117898  16.0168123  78.9587274  29.5859992  18.8484990  99.5319997
  29.5109992  18.7274990  98.5859997  29.6189992  19.7974990  99.6509997
  29.5801862  18.9602492  99.4184840  23.2399992  17.6374990 101.3129997
  23.3919992  17.2894990 102.1919997  22.3889992  17.2804990 101.0579997
  23.1457899  17.5416749 101.3987322  32.6879992  18.0024990  96.5349997
  33.0629992  17.2584990  96.0639997  32.6919992  17.7324990  97.4529997
  32.7398969  17.8640920  96.5946475  32.3569992  17.9284990  99.2839997
  31.4219992  18.0284990  99.4629997  32.6369992  17.2184990  99.8619997
  32.2669270  17.8462300  99.3865984  22.4939992  13.3794990 109.3269997
  22.7099992  13.0174990 110.1869997  21.6389992  13.0044990 109.1169997
  22.4079349  13.2792914 109.4162134  25.1129992   1.8494990 105.3229997
  24.2509992   1.7624990 104.9149997  25.0909992   2.7054990 105.7499997
  24.9920953   1.9533558 105.3249262  29.7759992   1.5714990 108.6969997
  30.1959992   1.1564990 109.4499997  28.8429992   1.3924990 108.8139997
  29.7073736   1.4904921 108.8158950  33.1019992   5.3264990 109.5509997
  32.5879992   5.2014990 110.3479997  32.9469992   6.2394990 109.3059997
  33.0106643   5.4327068 109.6270624  33.8649992  10.1874990  95.3119997
  33.9069992   9.9654990  94.3819997  34.7139992  10.5864990  95.5019997
  33.9855253  10.2110510  95.2103804  29.4379992   4.0634990  95.9819997
  29.1839992   4.0824990  96.9049997  29.1809992   3.1924990  95.6809997
  29.3685133   3.9483121  96.0675065 104.1829992   5.4824990  81.0099997
 104.9949992   5.9864990  81.0559997 103.9379992   5.3374990  81.9239997
 104.2611091   5.5319366  81.1398552  25.2039992   6.8144990 106.4179997
  24.5619992   6.7744990 107.1269997  25.2409992   7.7414990 106.1799997
  25.1211659   6.9342540 106.4828463  25.2009992   7.0354990 101.3299997
  24.3079992   6.6954990 101.2709997  25.6519992   6.6584990 100.5739997
  25.1397185   6.9380220 101.2197698  30.7369992   7.4514990 100.1469997
  30.3279992   8.2664990  99.8549997  31.4569992   7.3114990  99.5319997
  30.7783946   7.5439963 100.0239616  31.7409992   6.8974990 102.9609997
  31.5459992   7.5034990 102.2459997  31.9229992   6.0644990 102.5259997
  31.7389272   6.8677955 102.8044075  22.9539992   7.1354990 108.2849997
  22.9159992   7.5354990 109.1529997  22.4629992   6.3184990 108.3749997
  22.8824246   7.0798842 108.4161171  26.3199992   4.5094990  95.0829997
  25.8889992   4.0644990  95.8129997  25.6019992   4.8804990  94.5709997
  26.1639363   4.4987979  95.1136194  19.5619992   4.2514990 102.1349997
  20.1929992   4.2224990 102.8549997  20.0119992   3.8264990 101.4049997
  19.7090905   4.1900839 102.1347479  20.8359992   4.9974990  97.5589997
  21.3109992   5.5884990  96.9739997  20.1189992   5.5274990  97.9059997
  20.8040406   5.1501011  97.5258495  31.0049992   8.5354990 107.6319997
  31.3289992   7.9044990 106.9889997  30.5649992   8.0014990 108.2929997
  30.9898707   8.3768261 107.6333195  27.7829992   4.4634990 102.4159997
  26.8719992   4.5204990 102.7049997  28.2879992   4.4034990 103.2269997
  27.7266873   4.4631838 102.5651190 104.7189992   6.4684990  90.1949997
 104.8379992   7.0424990  90.9519997 105.3739992   5.7804990  90.3099997
 104.8238684   6.4540205  90.3141656  22.6109992   6.0924990 101.2429997
  21.7219992   6.1914990 100.9029997  22.9069992   5.2504990 100.8969997
  22.5294001   5.9922473 101.1497318  26.2639992   6.0924990  98.8989997
  27.1959992   6.2214990  99.0769997  26.0489992   6.7614990  98.2499997
  26.3624245   6.2006452  98.8355602  32.1879992   3.6984990 105.6799997
  31.5109992   3.8294990 106.3439997  31.7019992   3.5434990 104.8699997
  32.0297265   3.6954665 105.6613380  24.9379992   7.2864990  96.4659997
  24.3959992   6.9074990  95.7749997  25.7719992   7.4814990  96.0369997
  24.9764283   7.2609383  96.3134298  29.1029992   7.2504990 104.3029997
  29.6669992   6.7044990 103.7559997  28.9549992   6.7294990 105.0919997
  29.1603037   7.1051798 104.3347212  24.1049992   3.3874990 100.7209997
  23.7869992   2.4844990 100.6859997  24.8859992   3.3894990 100.1689997
  24.1671560   3.2641148 100.6414975  27.7289992   5.6394990 106.7169997
  26.8939992   6.0934990 106.8269997  28.2529992   5.9154990 107.4689997
  27.6855070   5.7389677 106.8337134  28.2729992  11.8524990  98.4019997
  27.5279992  11.3444990  98.0789997  28.1389992  11.9014990  99.3479997
  28.1528633  11.7895714  98.4857563  35.4229992  10.9854990 107.1879997
  36.0649992  11.4414990 106.6449997  34.5929992  11.0984990 106.7259997
  35.3987352  11.0633223 107.0510234  32.1709992   4.6664990  96.6009997
  31.2319992   4.7774990  96.4499997  32.4679992   5.5224990  96.9069997
  32.0826371   4.7975327  96.6217362 105.0669992   2.5634990  81.9479997
 104.7199992   3.1804990  82.5929997 105.7249992   3.0644990  81.4669997
 105.1085290   2.7156384  81.9711635  29.7929992  12.0364990 109.6389997
  29.4469992  11.6544990 110.4449997  29.5929992  12.9694990 109.7099997
  29.7185400  12.1103489 109.7590401  32.8889992   6.5334990  98.2619997
  33.7809992   6.3954990  98.5809997  32.9459992   7.3244990  97.7249997
  33.0187380   6.6214777  98.2330981  23.3979992  11.1474990 104.1709997
  24.1429992  11.1444990 103.5699997  23.4759992  10.3234990 104.6529997
  23.5104158  11.0357928 104.1539136  30.3989992  13.3104990  97.4269997
  30.1039992  14.1374990  97.8089997  29.6959992  12.6914990  97.6229997
  30.2635855  13.3399458  97.5057634  20.4059992   9.6074990 109.4859997
  20.6289992   9.1894990 110.3179997  19.8039992   8.9954990 109.0639997
  20.3550802   9.4675216 109.5427561  32.0429992  14.4984990 109.5889997
  31.1419992  14.6814990 109.3209997  32.0769992  14.7574990 110.5099997
  31.9243021  14.5585505 109.6768206  37.7739992   6.7424990  97.9559997
  37.2199992   6.3464990  97.2839997  37.8749992   7.6534990  97.6789997
  37.7117084   6.8113565  97.8264381  36.0689992  15.5284990  98.4209997
  35.6969992  14.7034990  98.7309997  36.3469992  15.3454990  97.5239997
  36.0555997  15.3906160  98.3421551  33.2299992  10.3364990 105.4429997
  32.3019992  10.1054990 105.4159997  33.6809992   9.5594990 105.1129997
  33.1638165  10.1997785 105.3946772  25.7729992  14.6654990 101.5759997
  26.2999992  15.4384990 101.3749997  24.8929992  14.8894990 101.2739997
  25.7261793  14.8016652 101.5076304 100.7239992   3.6264990  78.6359997
 100.6409992   4.5144990  78.9819997 101.6139992   3.3614990  78.8669997
 100.8329751   3.7122482  78.7146066  21.5279992   9.5274990  96.1629997
  22.1439992  10.1544990  96.5419997  20.6659992   9.8434990  96.4339997
  21.4958195   9.6560810  96.2515369  27.1999992  12.3284990 101.1519997
  26.9589992  13.2534990 101.1939997  26.4599992  11.8694990 101.5479997
  27.0668934  12.3930881 101.2113191  27.7149992  16.4774990 107.4669997
  28.0779992  17.3314990 107.2339997  28.2469992  16.1854990 108.2079997
  27.8365141  16.5548907 107.5352079  25.8829992  17.3494990 100.6969997
  24.9339992  17.4554990 100.7489997  26.2349992  18.1704990 101.0419997
  25.8006214  17.4749361 100.7507317  31.2589992  12.5764990 107.1679997
  30.8329992  12.3484990 107.9939997  31.8399992  11.8374990 106.9849997
  31.2791587  12.4454084 107.2564111  33.4619992  13.5054990  96.2419997
  33.8149992  13.1254990  97.0459997  32.5129992  13.4114990  96.3279997
  33.3820985  13.4407330  96.3637738  33.9179992  17.1284990 109.6369997
  33.3159992  16.5724990 109.1419997  34.1989992  17.7954990 109.0109997
  33.8735757  17.1425755 109.4845657  37.9649992  17.9844990  96.4429997
  38.7089992  18.5704990  96.3029997  37.2709992  18.5534990  96.7759997
  37.9729809  18.1415830  96.4688572  22.0399992   4.3614990 109.0439997
  21.1469992   4.6994990 108.9769997  21.9409992   3.5054990 109.4619997
  21.9045241   4.2920941 109.0912982  34.3279992  12.1774990  98.4679997
  34.0509992  11.4494990  99.0239997  35.2549992  12.2964990  98.6739997
  34.4154181  12.0940068  98.5718972 110.9229992   4.3754990  91.0299997
 110.0069992   4.6374990  90.9419997 111.2589992   4.3724990  90.1329997
 110.8429789   4.4109637  90.8967829  21.6909992  16.1654990 107.4789997
  21.9079992  15.2334990 107.4479997  21.9379992  16.4404990 108.3629997
  21.7540543  16.0750877 107.5941412  27.5529992  14.6174990  94.6889997
  27.7919992  13.8684990  94.1409997  27.2839992  14.2294990  95.5209997
  27.5492804  14.4626524  94.7266352  26.4899992  14.1874990  97.1449997
  26.6369992  13.6674990  97.9349997  26.4869992  15.0944990  97.4509997
  26.5097300  14.2388975  97.2945877  22.9429992  11.4394990  97.6549997
  22.2569992  11.7924990  98.2219997  23.4659992  12.2024990  97.4089997
  22.9199033  11.5908757  97.6992644  30.7739992   4.1024990 107.9339997
  31.4729992   4.1764990 108.5839997  30.3939992   3.2374990 108.0889997
  30.8182095   3.9957402 108.0437982  31.5589992   3.7544990  99.0309997
  31.7789992   4.2254990  98.2279997  32.1169992   4.1484990  99.7019997
  31.6645851   3.8723272  99.0116134  29.2279992  15.8844990  97.8939997
  28.4109992  16.3814990  97.9469997  29.7569992  16.3604990  97.2539997
  29.1877898  16.0168123  97.8147274  28.7589992   5.4824990  99.8659997
  29.5709992   5.9864990  99.9119997  28.5139992   5.3374990 100.7799997
  28.8371091   5.5319366  99.9958552  29.2949992   6.4684990 109.0509997
  29.4139992   7.0424990 109.8079997  29.9499992   5.7804990 109.1659997
  29.3998684   6.4540205 109.1701656  29.6429992   2.5634990 100.8039997
  29.2959992   3.1804990 101.4489997  30.3009992   3.0644990 100.3229997
  29.6845290   2.7156384 100.8271635 109.5249992   8.1254990  85.1259997
 108.7279992   7.7104990  84.7969997 109.9699992   7.4354990  85.6169997
 109.4760317   7.9753197  85.1473556  26.5659992  16.9284990  97.8759997
  26.7269992  17.7284990  97.3749997  26.3689992  17.2354990  98.7609997
  26.5613919  17.0794140  97.9270988  25.2999992   3.6264990  97.4919997
  25.2169992   4.5144990  97.8379997  26.1899992   3.3614990  97.7229997
  25.4089751   3.7122482  97.5706066  35.4989992   4.3754990 109.8859997
  34.5829992   4.6374990 109.7979997  35.8349992   4.3724990 108.9889997
  35.4189789   4.4109637 109.7527829  34.1009992   8.1254990 103.9819997
  33.3039992   7.7104990 103.6529997  34.5459992   7.4354990 104.4729997
  34.0520317   7.9753197 104.0033556  23.5589992  14.0534990  96.5519997
  24.1509992  14.7534990  96.8279997  24.0179992  13.6204990  95.8329997
  23.7021172  14.0907371  96.4925163  21.8749992   6.7184990  95.6679997
  21.8299992   7.6574990  95.8469997  20.9869992   6.4824990  95.3979997
  21.7488472   6.8151946  95.6560282  35.1879992  17.3814990 105.6039997
  35.0319992  18.0604990 104.9469997  36.1199992  17.4534990 105.8069997
  35.2927328  17.4841586 105.5415529  22.6829992   1.4994990 104.3409997
  22.4539992   1.5584990 103.4139997  22.2399992   0.7084990 104.6479997
  22.5917387   1.4006412 104.2555223  21.6129992  15.4404990 100.5019997
  20.7809992  15.9124990 100.5289997  22.1589992  15.9504990  99.9029997
  21.5728710  15.5740317 100.4247570  29.5909992  16.4804990  94.8269997
  28.9469992  15.8494990  95.1489997  30.3529992  15.9494990  94.5949997
  29.6058260  16.3223035  94.8397298 110.6119992  17.3814990  86.7479997
 110.4559992  18.0604990  86.0909997 111.5439992  17.4534990  86.9509997
 110.7167328  17.4841586  86.6855529  34.1949992  16.2974990  95.0609997
  34.4779992  15.5024990  95.5139997  34.9349992  16.5304990  94.4999997
  34.3337295  16.2202349  95.0471469  25.1499992  12.2064990  94.9179997
  25.2139992  11.4124990  95.4489997  25.8029992  12.0884990  94.2289997
  25.2471168  12.0817748  94.8975119  30.5019992  13.2534990  94.6539997
  30.2339992  13.4344990  95.5549997  30.2959992  12.3284990  94.5229997
  30.4374251  13.1531528  94.7596809  33.1989992  11.7484990 109.6019997
  33.9439992  12.3374990 109.4819997  32.4409992  12.3304990 109.6649997
  33.1985185  11.9077000 109.5940940  26.2989992  10.1794990  97.2239997
  25.8399992   9.6954990  97.9099997  26.5539992   9.5104990  96.5879997
  26.2706178  10.0228511  97.2319785  25.5879992   8.0724990 109.5799997
  24.9699992   8.7464990 109.8609997  25.9319992   8.3934990 108.7469997
  25.5498181   8.2083233 109.5058266  27.3699992   8.4224990  95.4869997
  27.1899992   8.2674990  94.5589997  28.3199992   8.5304990  95.5309997
  27.4738016   8.4159264  95.3662123  36.7599992  10.7764990  94.9319997
  36.4869992  10.3524990  94.1189997  36.7999992  11.7084990  94.7149997
  36.7280201  10.8443523  94.7913548  26.3399992   3.7964990 108.1549997
  26.8759992   4.2484990 107.5029997  25.4879992   3.6884990 107.7329997
  26.2981648   3.8437883 108.0086395  27.9219992   9.2364990 108.3949997
  28.6729992   9.0804990 107.8219997  27.5829992  10.0884990 108.1189997
  27.9789052   9.3302745 108.2793469  98.1069992   1.4994990  85.4849997
  97.8779992   1.5584990  84.5579997  97.6639992   0.7084990  85.7919997
  98.0157387   1.4006412  85.3995223  27.1459992   1.2534990 108.5869997
  27.0479992   2.1994990 108.4809997  26.4029992   0.8804990 108.1109997
  27.0322363   1.3325987 108.5082029  27.2679992  19.1124990  96.4879997
  28.2009992  19.2704990  96.6319997  27.0029992  19.7884990  95.8629997
  27.3599846  19.2254567  96.4232930  20.8359992  13.7494990  95.9709997
  21.7499992  13.8284990  96.2439997  20.8429992  13.0624990  95.3039997
  20.9620769  13.6674735  95.9182366  19.4849992  19.1424990 101.0479997
  18.8379992  18.6804990 100.5149997  19.8399992  18.4704990 101.6309997
  19.4443861  18.9884707 101.0537939  20.3549992  17.2224990 102.8529997
  20.0209992  16.3424990 103.0249997  20.5769992  17.5684990 103.7169997
  20.3392677  17.1487365 102.9934252  37.9039992  18.0324990 105.8329997
  37.8819992  18.2174990 106.7719997  38.5939992  18.6004990 105.4919997
  37.9943439  18.1346898 105.9154774  37.4669992  17.5994990 108.7549997
  36.9799992  16.8634990 108.3839997  38.0159992  17.2054990 109.4329997
  37.4746101  17.4456267 108.7959034  37.2189992  11.6454990  98.9069997
  38.0689992  12.0664990  99.0349997  37.2239992  10.9054990  99.5149997
  37.3359745  11.6031347  99.0066479  37.6129992   9.6994990 100.7309997
  36.8869992   9.2194990 101.1289997  38.1939992   9.9044990 101.4629997
  37.5922504   9.6615592 100.8844199  37.3719992  12.4844990 105.6789997
  38.2059992  12.1064990 105.3979997  37.4839992  13.4274990 105.5599997
  37.5011917  12.5602954 105.6244844  97.0369992  15.4404990  81.6459997
  96.2049992  15.9124990  81.6729997  97.5829992  15.9504990  81.0469997
  96.9968710  15.5740317  81.5687570  35.8579992  15.3624990 107.9859997
  35.2109992  15.6874990 108.6109997  35.3409992  14.9214990 107.3109997
  35.6994068  15.3474726 107.9804918  37.8809992   9.6004990  97.1219997
  37.3599992   9.9564990  96.4029997  37.8479992  10.2754990  97.7999997
  37.8051525   9.7405273  97.1151408  36.2299992   6.8394990  95.6729997
  36.3269992   7.5064990  94.9929997  36.0899992   6.0244990  95.1909997
  36.2243428   6.8205667  95.5148311  35.3999992   8.2204990 101.2939997
  35.2499992   7.2754990 101.2739997  35.0459992   8.5014990 102.1379997
  35.3316351   8.1291656 101.4053202  20.4349992  10.2984990 105.3039997
  20.6189992  10.2164990 104.3689997  21.2839992  10.1744990 105.7279997
  20.5750259  10.2704915 105.2331771  35.4779992   4.2474990  94.7899997
  36.0879992   3.8764990  95.4269997  34.6409992   3.8264990  94.9859997
  35.4483704   4.1397942  94.9037077  35.1099992   5.8024990  99.7559997
  35.3899992   4.8954990  99.8809997  35.8689992   6.2364990  99.3669997
  35.2509471   5.7370654  99.7205052  35.7219992   6.3844990 105.1919997
  36.6549992   6.5964990 105.1579997  35.4869992   6.4854990 106.1149997
  35.8178357   6.4271303 105.3120232  35.7509992   7.1214990 107.9679997
  34.9079992   7.3894990 108.3339997  36.1939992   7.9434990 107.7569997
  35.6954358   7.2693294 107.9895999  35.7239992   3.0654990  99.8049997
  35.9059992   2.6164990 100.6299997  35.1239992   2.4814990  99.3409997
  35.6678187   2.9250563  99.8552721  96.3259992  18.0524990  92.9759997
  96.8659992  17.8364990  93.7349997  95.8439992  17.2474990  92.7859997
  96.3349101  17.9140216  93.0544364  21.2539992   3.8814990 104.3359997
  21.6989992   3.0894990 104.6379997  21.7199992   4.5974990 104.7669997
  21.3779059   3.8699485 104.4356061  19.5579992   6.8804990 105.4049997
  20.0499992   6.6594990 104.6149997  19.9199992   7.7204990 105.6859997
  19.6743429   6.9638220 105.3347918  37.5899992   3.1334990  96.3329997
  38.0029992   2.4124990  95.8569997  38.2719992   3.8024990  96.3909997
  37.7385712   3.1254304  96.2758247  19.8709992   3.1384990  99.4599997
  18.9459992   3.3464990  99.3299997  20.3249992   3.6224990  98.7699997
  19.8057401   3.2323895  99.3489433  34.6419992  18.1224990 101.4049997
  35.2939992  17.7744990 100.7969997  35.1529992  18.6104990 102.0509997
  34.8002872  18.1408248 101.4090964  19.8349992   1.8764990 107.8039997
  19.1699992   1.6304990 108.4469997  19.3919992   2.4984990 107.2269997
  19.6841168   1.9269225 107.8139830  24.9809992  16.0254990 108.2069997
  24.5559992  16.8354990 107.9239997  25.8849992  16.1114990 107.9049997
  25.0451002  16.1478728 108.1274798  36.5549992   1.3004990 109.4899997
  35.7419992   1.6254990 109.1019997  36.7879992   0.5394990 108.9569997
  36.4752566   1.2421570 109.3649196  22.3829992  19.2824990 108.2539997
  21.6619992  19.7224990 107.8029997  22.0169992  19.0314990 109.1029997
  22.2349785  19.3087691 108.3069849  24.8499992  18.8824990 107.2839997
  23.9849992  18.9544990 107.6879997  24.7949992  19.4294990 106.4999997
  24.7242066  18.9662678 107.2333371 100.9229992  16.9724990  94.5959997
 101.6909992  16.5134990  94.9369997 100.9019992  16.7464990  93.6659997
 101.0252135  16.8791680  94.5169473  29.5609992  18.7704990 106.4599997
  29.1039992  19.2994990 105.8059997  29.7229992  19.3734990 107.1849997
  29.5203919  18.9243990 106.4685740  31.8879992  17.6484990 107.4049997
  30.9839992  17.8134990 107.1389997  32.3169992  18.5014990 107.3389997
  31.8222017  17.7864184 107.3596495  34.4919992  19.2184990 107.6999997
  34.3109992  20.1344990 107.4889997  34.6689992  18.8074990 106.8529997
  34.4911377  19.2883365 107.5567178  21.7979992  17.9054990 105.1649997
  21.7789992  17.4794990 106.0219997  22.6019992  17.5864990 104.7559997
  21.9041393  17.8040297 105.2270155  23.9389992  16.6154990 103.8199997
  23.7199992  15.6984990 103.9889997  24.7629992  16.7554990 104.2859997
  24.0204637  16.5089586 103.9061414  26.4759992  17.0854990 104.6679997
  26.6889992  16.1974990 104.3809997  26.5409992  17.0504990 105.6229997
  26.5139075  16.9593318 104.7577355  29.9849992   2.7494990 103.8129997
  29.3099992   2.1194990 104.0679997  30.5489992   2.2654990 103.2099997
  29.9689558   2.5979283 103.7663451  35.1269992   0.8564990 103.9249997
  35.7309992   1.4044990 103.4239997  34.2579992   1.1754990 103.6849997
  35.0921126   0.9747070 103.8239180  36.8539992   1.9954990 102.2589997
  37.4659992   1.4814990 101.7319997  37.2369992   2.8724990 102.2819997
  36.9893867   2.0437613 102.1900888  22.3109992   1.3834990 101.6349997
  21.5339992   1.1484990 101.1269997  22.8419992   0.5864990 101.6439997
  22.2764443   1.2436721 101.5667200 107.4999992  15.3524990  93.3249997
 107.1489992  14.4954990  93.5679997 108.2259992  15.4944990  93.9319997
 107.5501590  15.2545189  93.4402889  21.1479992   1.1814990  97.4379997
  21.5869992   1.7924990  96.8469997  20.5139992   1.7194990  97.9119997
  21.1224104   1.3379233  97.4211376  26.8909992   1.3094990 101.4479997
  27.7649992   1.6984990 101.4179997  26.7549992   1.0944990 102.3709997
  26.9923125   1.3337120 101.5686523  32.4469992   1.3394990 103.0969997
  32.5239992   1.4354990 102.1479997  32.1719992   0.4324990 103.2259997
  32.4203407   1.2299188 102.9843532  33.8009992   1.3654990  98.7899997
  33.0979992   1.9804990  98.5799997  33.3559992   0.5284990  98.9209997
  33.6446550   1.3364679  98.7789819  21.0489992  17.1294990  98.3359997
  20.3639992  17.0914990  97.6679997  21.0519992  18.0414990  98.6239997
  20.9557358  17.2476744  98.2836145  23.0089992   3.0974990  95.8809997
  23.4999992   2.4674990  95.3529997  23.6319992   3.3934990  96.5439997
  23.1605459   3.0512419  95.8983667  28.0349992   3.3904990  98.3379997
  28.2129992   2.7434990  99.0209997  27.9809992   4.2244990  98.8049997
  28.0520678   3.4146615  98.4946283  29.9129992  18.3384990  96.7329997
  30.7789992  18.7054990  96.5549997  29.6659992  17.8994990  95.9199997
  29.9982041  18.3293648  96.5985958  36.6219992  17.9014990  99.4129997
  36.4279992  17.1534990  98.8479997  36.5829992  18.6594990  98.8289997
  36.5901907  17.9015770  99.2568077  22.8669992  18.0494990  95.3609997
  22.5989992  18.3354990  96.2339997  23.6379992  17.5034990  95.5129997
  22.9345600  18.0148341  95.5011482  96.2329992  11.8634990  93.9299997
  96.3769992  10.9614990  93.6439997  95.4599992  12.1494990  93.4419997
  96.1482854  11.7786876  93.8249363  50.2459992  10.5394990 101.5929997
  50.3349992  11.4834990 101.4609997  49.6069992  10.2644990 100.9349997
  50.1718319  10.6314984 101.4860276  49.1789992   9.7944990 105.0119997
  49.1399992   9.1484990 105.7169997  48.8559992   9.3274990 104.2409997
  49.1300199   9.6430089 105.0042865  41.5469992   9.4084990 106.6049997
  41.5879992   8.7834990 107.3289997  42.2499992  10.0324990 106.7869997
  41.6476054   9.4073262 106.7286311  52.8849992  12.7334990 103.3139997
  52.4439992  12.0134990 103.7639997  52.8719992  13.4544990 103.9439997
  52.8228398  12.7323187 103.4607734  42.4709992  13.8584990 105.1399997
  42.1009992  13.0564990 104.7709997  43.4119992  13.6904990 105.1869997
  42.5475630  13.7258680 105.0957873  39.0809992   7.5184990 100.5329997
  38.6329992   8.3644990 100.5149997  38.5199992   6.9394990 100.0179997
  38.9438546   7.5559004 100.4608874  39.7909992   9.6804990 102.6589997
  40.0049992   8.9104990 103.1859997  40.5289992   9.7704990 102.0559997
  39.9200073   9.5873546 102.6495786  49.9959992  17.8374990 103.5259997
  50.6159992  17.1614990 103.2529997  49.7879992  17.6194990 104.4339997
  50.0527360  17.7154792 103.6114387  47.5679992  12.2264990 105.4179997
  47.8719992  11.5404990 104.8239997  48.2899992  12.3454990 106.0359997
  47.7071152  12.1487201 105.4202106  56.2309992   3.8284990 106.2789997
  56.2799992   4.4384990 107.0149997  56.6569992   4.2894990 105.5559997
  56.2952851   3.9743266 106.2820532 102.8879992  11.8324990  93.3629997
 102.5599992  12.1034990  92.5049997 103.0399992  10.8914990  93.2749997
 102.8636970  11.7423694  93.2337953  50.7089992   6.6204990 105.7459997
  50.8509992   5.6744990 105.7659997  50.6029992   6.8274990 104.8169997
  50.7141158   6.5189722 105.6232241  43.8639992   4.7224990 103.0179997
  43.9069992   5.5824990 102.5999997  43.4059992   4.1694990 102.3849997
  43.8079613   4.7655689 102.8751276  51.5859992   4.8534990 101.4189997
  52.2319992   4.5244990 102.0439997  52.0959992   5.3704990 100.7959997
  51.7434392   4.8783710 101.4203248  40.4839992   7.1194990 103.7799997
  41.1379992   6.5694990 104.2119997  40.5079992   6.8454990 102.8639997
  40.5767022   7.0072005 103.7151698  45.6399992   8.6694990 102.9959997
  46.2559992   8.1424990 103.5049997  45.0539992   8.0294990 102.5919997
  45.6450652   8.5108919 103.0110277  56.6229992   5.3064990 108.5149997
  55.9339992   5.9644990 108.4199997  56.6379992   5.1084990 109.4519997
  56.5307756   5.3697614 108.6285795  42.6739992   3.6404990 107.0919997
  42.4549992   4.1704990 106.3259997  42.0059992   3.8664990 107.7399997
  42.5537271   3.7436508 107.0746206  50.0429992  13.1404990 100.6359997
  49.7469992  12.8174990  99.7849997  49.7189992  14.0404990 100.6779997
  49.9586501  13.2179058 100.5250893  45.2429992  11.3154990 107.3799997
  44.5029992  11.9144990 107.4829997  45.9569992  11.8694990 107.0639997
  45.2383288  11.4722368 107.3513787  53.3499992   4.1444990 103.3999997
  53.1349992   3.3784990 103.9319997  54.0059992   4.6164990 103.9129997
  53.4092451   4.1034472 103.5421699 105.9259992  13.2534990  75.7979997
 105.6579992  13.4344990  76.6989997 105.7199992  12.3284990  75.6669997
 105.8614251  13.1531528  75.9036809  42.2679992   5.5324990 105.0449997
  42.8809992   6.1654990 105.4179997  42.7799992   5.0604990 104.3879997
  42.4211680   5.5554006 105.0072830  43.6499992  13.2804990 108.1669997
  43.6449992  14.1594990 107.7889997  42.7969992  13.1964990 108.5919997
  43.5339199  13.3895901 108.1726942  39.7719992  12.9514990  98.9489997
  39.4999992  13.1804990  98.0599997  39.8169992  13.7884990  99.4089997
  39.7408709  13.0961069  98.8896089  53.3969992  14.5724990 105.6619997
  52.4549992  14.6314990 105.8229997  53.6729992  15.4784990 105.5249997
  53.3055771  14.7030270 105.6654827  53.6969992   2.8594990 107.0789997
  52.9609992   3.4694990 107.0409997  54.3809992   3.2744990 106.5529997
  53.6885885   2.9991924 107.0026931  46.6999992   0.9454990 104.5449997
  46.5829992  -0.0025010 104.4909997  45.8449992   1.2784990 104.8179997
  46.5683691   0.8605842 104.5745072  51.6489992  16.3534990 102.2869997
  52.0739992  15.6464990 101.8019997  51.9659992  17.1554990 101.8699997
  51.7500266  16.3650201 102.1642461  52.8079992  14.2544990 100.7959997
  52.5509992  13.5644990 100.1839997  52.8789992  13.8114990 101.6409997
  52.7824322  14.1001568 100.8265372  54.4939992  12.8214990 109.2729997
  54.6339992  12.2294990 108.5339997  54.6619992  13.6944990 108.9169997
  54.5358734  12.8584041 109.1236937  48.9669992   9.7834990  99.0449997
  48.2549992  10.3184990  98.6939997  49.6579992   9.8384990  98.3849997
  48.9628696   9.8642591  98.9076372 108.6229992  11.7484990  90.7459997
 109.3679992  12.3374990  90.6259997 107.8649992  12.3304990  90.8089997
 108.6225185  11.9077000  90.7380940  49.0209992   8.2404990  96.0839997
  49.7219992   8.2634990  96.7349997  49.3229992   7.6124990  95.4279997
  49.1578282   8.1587350  96.0844478  56.3359992   9.1614990 107.3389997
  55.6839992   9.8554990 107.4279997  56.8009992   9.3714990 106.5289997
  56.3095357   9.2849544 107.2417056  52.3729992   9.9924990  99.9969997
  51.6409992  10.2214990 100.5699997  52.8199992   9.2794990 100.4519997
  52.3332753   9.9273984 100.1369698  52.2699992   8.1674990 109.0649997
  52.3499992   8.9304990 109.6369997  51.6689992   8.4464990 108.3739997
  52.1997115   8.3097707 109.0499631  44.0179992  10.6234990 101.8799997
  43.6879992  10.2524990 101.0609997  44.6059992   9.9524990 102.2259997
  44.0524056  10.4821257 101.8149035  45.3849992  14.0514990 104.5609997
  45.2899992  13.4724990 103.8039997  46.1139992  13.6804990 105.0569997
  45.4706161  13.9220902 104.5245192  44.3849992   9.3914990 105.5129997
  44.9499992   9.5134990 104.7499997  44.7029992  10.0294990 106.1519997
  44.5053430   9.4944448 105.4949094  50.6939992  14.8954990 106.2469997
  50.4529992  15.5574990 106.8949997  50.4959992  14.0604990 106.6719997
  50.6342662  14.8732704 106.3931008  51.2439992   9.1554990  97.6819997
  51.8229992   9.3054990  98.4289997  51.6579992   9.6254990  96.9589997
  51.3793122   9.2396288  97.6865024  42.1849992   9.9894990 109.4589997
  42.2549992  10.6404990 110.1569997  41.2939992  10.0924990 109.1239997
  42.0741802  10.0924769 109.5092231  97.0649992   9.0634990  93.3499997
  97.4729992   8.2064990  93.2289997  96.8049992   9.0774990  94.2709997
  97.0857082   8.9480596  93.4579469  48.9699992  15.8914990 101.1179997
  49.4439992  16.1874990 101.8949997  48.4069992  16.6304990 100.8839997
  48.9588460  16.0318336 101.1927626  54.9419992   0.9054990  97.4949997
  54.0419992   1.0434990  97.7899997  55.1939992   1.7364990  97.0929997
  54.8527355   1.0368200  97.4810539  43.0079992   9.6924990  99.4689997
  42.7159992  10.4604990  98.9779997  42.3339992   9.0334990  99.3059997
  42.8768843   9.7084537  99.3797695  56.1319992  15.2714990  95.8719997
  56.2049992  16.2104990  96.0419997  57.0369992  14.9664990  95.8149997
  56.2644168  15.3588531  95.8875736  39.1009992  12.0554990 108.2839997
  38.5999992  12.0274990 107.4689997  39.1069992  11.1504990 108.5939997
  39.0331690  11.9292234 108.2142770  38.8519992  14.8364990 105.1679997
  39.7979992  14.6914990 105.1489997  38.7389992  15.6204990 105.7049997
  38.9663578  14.9226708 105.2380300  48.0279992  15.0764990 109.7259997
  48.1149992  15.9024990 110.2009997  47.1639992  14.7464990 109.9749997
  47.9231944  15.1449871 109.8246558  48.4419992  18.8484990  99.5319997
  48.3669992  18.7274990  98.5859997  48.4749992  19.7974990  99.6509997
  48.4361862  18.9602492  99.4184840  42.0959992  17.6374990 101.3129997
  42.2479992  17.2894990 102.1919997  41.2449992  17.2804990 101.0579997
  42.0017899  17.5416749 101.3987322  51.5439992  18.0024990  96.5349997
  51.9189992  17.2584990  96.0639997  51.5479992  17.7324990  97.4529997
  51.5958969  17.8640920  96.5946475 101.7229992  10.1794990  78.3679997
 101.2639992   9.6954990  79.0539997 101.9779992   9.5104990  77.7319997
 101.6946178  10.0228511  78.3759785  51.2129992  17.9284990  99.2839997
  50.2779992  18.0284990  99.4629997  51.4929992  17.2184990  99.8619997
  51.1229270  17.8462300  99.3865984  41.3499992  13.3794990 109.3269997
  41.5659992  13.0174990 110.1869997  40.4949992  13.0044990 109.1169997
  41.2639349  13.2792914 109.4162134  43.9689992   1.8494990 105.3229997
  43.1069992   1.7624990 104.9149997  43.9469992   2.7054990 105.7499997
  43.8480953   1.9533558 105.3249262  48.6319992   1.5714990 108.6969997
  49.0519992   1.1564990 109.4499997  47.6989992   1.3924990 108.8139997
  48.5633736   1.4904921 108.8158950  51.9579992   5.3264990 109.5509997
  51.4439992   5.2014990 110.3479997  51.8029992   6.2394990 109.3059997
  51.8666643   5.4327068 109.6270624  52.7209992  10.1874990  95.3119997
  52.7629992   9.9654990  94.3819997  53.5699992  10.5864990  95.5019997
  52.8415253  10.2110510  95.2103804  48.2939992   4.0634990  95.9819997
  48.0399992   4.0824990  96.9049997  48.0369992   3.1924990  95.6809997
  48.2245133   3.9483121  96.0675065  44.0599992   6.8144990 106.4179997
  43.4179992   6.7744990 107.1269997  44.0969992   7.7414990 106.1799997
  43.9771659   6.9342540 106.4828463  44.0569992   7.0354990 101.3299997
  43.1639992   6.6954990 101.2709997  44.5079992   6.6584990 100.5739997
  43.9957185   6.9380220 101.2197698  49.5929992   7.4514990 100.1469997
  49.1839992   8.2664990  99.8549997  50.3129992   7.3114990  99.5319997
  49.6343946   7.5439963 100.0239616 101.0119992   8.0724990  90.7239997
 100.3939992   8.7464990  91.0049997 101.3559992   8.3934990  89.8909997
 100.9738181   8.2083233  90.6498266  50.5969992   6.8974990 102.9609997
  50.4019992   7.5034990 102.2459997  50.7789992   6.0644990 102.5259997
  50.5949272   6.8677955 102.8044075  41.8099992   7.1354990 108.2849997
  41.7719992   7.5354990 109.1529997  41.3189992   6.3184990 108.3749997
  41.7384246   7.0798842 108.4161171  45.1759992   4.5094990  95.0829997
  44.7449992   4.0644990  95.8129997  44.4579992   4.8804990  94.5709997
  45.0199363   4.4987979  95.1136194  38.4179992   4.2514990 102.1349997
  39.0489992   4.2224990 102.8549997  38.8679992   3.8264990 101.4049997
  38.5650905   4.1900839 102.1347479  39.6919992   4.9974990  97.5589997
  40.1669992   5.5884990  96.9739997  38.9749992   5.5274990  97.9059997
  39.6600406   5.1501011  97.5258495  49.8609992   8.5354990 107.6319997
  50.1849992   7.9044990 106.9889997  49.4209992   8.0014990 108.2929997
  49.8458707   8.3768261 107.6333195  46.6389992   4.4634990 102.4159997
  45.7279992   4.5204990 102.7049997  47.1439992   4.4034990 103.2269997
  46.5826873   4.4631838 102.5651190  41.4669992   6.0924990 101.2429997
  40.5779992   6.1914990 100.9029997  41.7629992   5.2504990 100.8969997
  41.3854001   5.9922473 101.1497318  45.1199992   6.0924990  98.8989997
  46.0519992   6.2214990  99.0769997  44.9049992   6.7614990  98.2499997
  45.2184245   6.2006452  98.8355602  51.0439992   3.6984990 105.6799997
  50.3669992   3.8294990 106.3439997  50.5579992   3.5434990 104.8699997
  50.8857265   3.6954665 105.6613380 106.0319992  10.5434990  94.0019997
 106.9849992  10.6274990  93.9739997 105.8719992   9.8314990  94.6209997
 106.1408161  10.4587198  94.0818689  43.7939992   7.2864990  96.4659997
  43.2519992   6.9074990  95.7749997  44.6279992   7.4814990  96.0369997
  43.8324283   7.2609383  96.3134298  47.9589992   7.2504990 104.3029997
  48.5229992   6.7044990 103.7559997  47.8109992   6.7294990 105.0919997
  48.0163037   7.1051798 104.3347212  42.9609992   3.3874990 100.7209997
  42.6429992   2.4844990 100.6859997  43.7419992   3.3894990 100.1689997
  43.0231560   3.2641148 100.6414975  46.5849992   5.6394990 106.7169997
  45.7499992   6.0934990 106.8269997  47.1089992   5.9154990 107.4689997
  46.5415070   5.7389677 106.8337134  47.1289992  11.8524990  98.4019997
  46.3839992  11.3444990  98.0789997  46.9949992  11.9014990  99.3479997
  47.0088633  11.7895714  98.4857563  54.2789992  10.9854990 107.1879997
  54.9209992  11.4414990 106.6449997  53.4489992  11.0984990 106.7259997
  54.2547352  11.0633223 107.0510234  51.0269992   4.6664990  96.6009997
  50.0879992   4.7774990  96.4499997  51.3239992   5.5224990  96.9069997
  50.9386371   4.7975327  96.6217362  48.6489992  12.0364990 109.6389997
  48.3029992  11.6544990 110.4449997  48.4489992  12.9694990 109.7099997
  48.5745399  12.1103489 109.7590401  51.7449992   6.5334990  98.2619997
  52.6369992   6.3954990  98.5809997  51.8019992   7.3244990  97.7249997
  51.8747380   6.6214777  98.2330981  42.2539992  11.1474990 104.1709997
  42.9989992  11.1444990 103.5699997  42.3319992  10.3234990 104.6529997
  42.3664158  11.0357928 104.1539136 101.3519992   5.4274990  91.8069997
 101.5019992   4.6984990  91.2039997 101.3539992   6.2044990  91.2479997
 101.3727664   5.4328971  91.6490525  49.2549992  13.3104990  97.4269997
  48.9599992  14.1374990  97.8089997  48.5519992  12.6914990  97.6229997
  49.1195855  13.3399458  97.5057633  39.2619992   9.6074990 109.4859997
  39.4849992   9.1894990 110.3179997  38.6599992   8.9954990 109.0639997
  39.2110802   9.4675216 109.5427561  50.8989992  14.4984990 109.5889997
  49.9979992  14.6814990 109.3209997  50.9329992  14.7574990 110.5099997
  50.7803021  14.5585505 109.6768206  56.6299992   6.7424990  97.9559997
  56.0759992   6.3464990  97.2839997  56.7309992   7.6534990  97.6789997
  56.5677084   6.8113565  97.8264381  54.9249992  15.5284990  98.4209997
  54.5529992  14.7034990  98.7309997  55.2029992  15.3454990  97.5239997
  54.9115997  15.3906160  98.3421551  52.0859992  10.3364990 105.4429997
  51.1579992  10.1054990 105.4159997  52.5369992   9.5594990 105.1129997
  52.0198165  10.1997785 105.3946772  44.6289992  14.6654990 101.5759997
  45.1559992  15.4384990 101.3749997  43.7489992  14.8894990 101.2739997
  44.5821793  14.8016652 101.5076304  40.3839992   9.5274990  96.1629997
  40.9999992  10.1544990  96.5419997  39.5219992   9.8434990  96.4339997
  40.3518195   9.6560810  96.2515369  46.0559992  12.3284990 101.1519997
  45.8149992  13.2534990 101.1939997  45.3159992  11.8694990 101.5479997
  45.9228934  12.3930881 101.2113191  46.5709992  16.4774990 107.4669997
  46.9339992  17.3314990 107.2339997  47.1029992  16.1854990 108.2079997
  46.6925141  16.5548907 107.5352079 101.7639992   3.7964990  89.2989997
 102.2999992   4.2484990  88.6469997 100.9119992   3.6884990  88.8769997
 101.7221648   3.8437883  89.1526395  44.7389992  17.3494990 100.6969997
  43.7899992  17.4554990 100.7489997  45.0909992  18.1704990 101.0419997
  44.6566214  17.4749361 100.7507317  50.1149992  12.5764990 107.1679997
  49.6889992  12.3484990 107.9939997  50.6959992  11.8374990 106.9849997
  50.1351587  12.4454084 107.2564111  52.3179992  13.5054990  96.2419997
  52.6709992  13.1254990  97.0459997  51.3689992  13.4114990  96.3279997
  52.2380985  13.4407330  96.3637738  52.7739992  17.1284990 109.6369997
  52.1719992  16.5724990 109.1419997  53.0549992  17.7954990 109.0109997
  52.7295757  17.1425755 109.4845657  56.8209992  17.9844990  96.4429997
  57.5649992  18.5704990  96.3029997  56.1269992  18.5534990  96.7759997
  56.8289809  18.1415830  96.4688572  40.8959992   4.3614990 109.0439997
  40.0029992   4.6994990 108.9769997  40.7969992   3.5054990 109.4619997
  40.7605241   4.2920941 109.0912982  53.1839992  12.1774990  98.4679997
  52.9069992  11.4494990  99.0239997  54.1109992  12.2964990  98.6739997
  53.2714181  12.0940068  98.5718972  40.5469992  16.1654990 107.4789997
  40.7639992  15.2334990 107.4479997  40.7939992  16.4404990 108.3629997
  40.6100543  16.0750877 107.5941412  46.4089992  14.6174990  94.6889997
  46.6479992  13.8684990  94.1409997  46.1399992  14.2294990  95.5209997
  46.4052804  14.4626524  94.7266352  45.3459992  14.1874990  97.1449997
  45.4929992  13.6674990  97.9349997  45.3429992  15.0944990  97.4509997
  45.3657300  14.2388975  97.2945877 103.3459992   9.2364990  89.5389997
 104.0969992   9.0804990  88.9659997 103.0069992  10.0884990  89.2629997
 103.4029052   9.3302745  89.4233469  41.7989992  11.4394990  97.6549997
  41.1129992  11.7924990  98.2219997  42.3219992  12.2024990  97.4089997
  41.7759033  11.5908757  97.6992644  49.6299992   4.1024990 107.9339997
  50.3289992   4.1764990 108.5839997  49.2499992   3.2374990 108.0889997
  49.6742095   3.9957402 108.0437982  50.4149992   3.7544990  99.0309997
  50.6349992   4.2254990  98.2279997  50.9729992   4.1484990  99.7019997
  50.5205851   3.8723272  99.0116134  48.0839992  15.8844990  97.8939997
  47.2669992  16.3814990  97.9469997  48.6129992  16.3604990  97.2539997
  48.0437898  16.0168123  97.8147274  47.6149992   5.4824990  99.8659997
  48.4269992   5.9864990  99.9119997  47.3699992   5.3374990 100.7799997
  47.6931091   5.5319366  99.9958552  48.1509992   6.4684990 109.0509997
  48.2699992   7.0424990 109.8079997  48.8059992   5.7804990 109.1659997
  48.2558684   6.4540205 109.1701656  48.4989992   2.5634990 100.8039997
  48.1519992   3.1804990 101.4489997  49.1569992   3.0644990 100.3229997
  48.5405290   2.7156384 100.8271635  45.4219992  16.9284990  97.8759997
  45.5829992  17.7284990  97.3749997  45.2249992  17.2354990  98.7609997
  45.4173919  17.0794140  97.9270988  44.1559992   3.6264990  97.4919997
  44.0729992   4.5144990  97.8379997  45.0459992   3.3614990  97.7229997
  44.2649751   3.7122482  97.5706066  54.3549992   4.3754990 109.8859997
  53.4389992   4.6374990 109.7979997  54.6909992   4.3724990 108.9889997
  54.2749789   4.4109637 109.7527829 107.7619992   7.0514990  94.5669997
 107.9539992   6.1204990  94.4559997 108.6189992   7.4764990  94.5569997
 107.9042320   6.9814743  94.5504433  52.9569992   8.1254990 103.9819997
  52.1599992   7.7104990 103.6529997  53.4019992   7.4354990 104.4729997
  52.9080317   7.9753197 104.0033557  42.4149992  14.0534990  96.5519997
  43.0069992  14.7534990  96.8279997  42.8739992  13.6204990  95.8329997
  42.5581172  14.0907371  96.4925163  40.7309992   6.7184990  95.6679997
  40.6859992   7.6574990  95.8469997  39.8429992   6.4824990  95.3979997
  40.6048472   6.8151946  95.6560282  54.0439992  17.3814990 105.6039997
  53.8879992  18.0604990 104.9469997  54.9759992  17.4534990 105.8069997
  54.1487328  17.4841586 105.5415529  41.5389992   1.4994990 104.3409997
  41.3099992   1.5584990 103.4139997  41.0959992   0.7084990 104.6479997
  41.4477387   1.4006412 104.2555223  40.4689992  15.4404990 100.5019997
  39.6369992  15.9124990 100.5289997  41.0149992  15.9504990  99.9029997
  40.4288710  15.5740317 100.4247570  48.4469992  16.4804990  94.8269997
  47.8029992  15.8494990  95.1489997  49.2089992  15.9494990  94.5949997
  48.4618260  16.3223035  94.8397298  53.0509992  16.2974990  95.0609997
  53.3339992  15.5024990  95.5139997  53.7909992  16.5304990  94.4999997
  53.1897295  16.2202349  95.0471469  44.0059992  12.2064990  94.9179997
  44.0699992  11.4124990  95.4489997  44.6589992  12.0884990  94.2289997
  44.1031168  12.0817747  94.8975119  49.3579992  13.2534990  94.6539997
  49.0899992  13.4344990  95.5549997  49.1519992  12.3284990  94.5229997
  49.2934251  13.1531528  94.7596809 109.0779992   9.8404990  92.6449997
 108.7969992  10.5494990  92.0669997 110.0209992   9.7674990  92.4939997
 109.1669272   9.9276704  92.5454976  52.0549992  11.7484990 109.6019997
  52.7999992  12.3374990 109.4819997  51.2969992  12.3304990 109.6649997
  52.0545185  11.9077000 109.5940940  45.1549992  10.1794990  97.2239997
  44.6959992   9.6954990  97.9099997  45.4099992   9.5104990  96.5879997
  45.1266178  10.0228511  97.2319785  44.4439992   8.0724990 109.5799997
  43.8259992   8.7464990 109.8609997  44.7879992   8.3934990 108.7469997
  44.4058181   8.2083233 109.5058266  46.2259992   8.4224990  95.4869997
  46.0459992   8.2674990  94.5589997  47.1759992   8.5304990  95.5309997
  46.3298016   8.4159264  95.3662123  55.6159992  10.7764990  94.9319997
  55.3429992  10.3524990  94.1189997  55.6559992  11.7084990  94.7149997
  55.5840201  10.8443523  94.7913548  45.1959992   3.7964990 108.1549997
  45.7319992   4.2484990 107.5029997  44.3439992   3.6884990 107.7329997
  45.1541648   3.8437883 108.0086395  46.7779992   9.2364990 108.3949997
  47.5289992   9.0804990 107.8219997  46.4389992  10.0884990 108.1189997
  46.8349052   9.3302745 108.2793469  46.0019992   1.2534990 108.5869997
  45.9039992   2.1994990 108.4809997  45.2589992   0.8804990 108.1109997
  45.8882363   1.3325987 108.5082029  46.1239992  19.1124990  96.4879997
  47.0569992  19.2704990  96.6319997  45.8589992  19.7884990  95.8629997
  46.2159846  19.2254567  96.4232930  39.6919992  13.7494990  95.9709997
  40.6059992  13.8284990  96.2439997  39.6989992  13.0624990  95.3039997
  39.8180769  13.6674735  95.9182366  99.8299992   6.6254990  93.7179997
  99.0629992   6.0924990  93.5079997 100.5089992   6.3154990  93.1189997
  99.8168292   6.5106360  93.6082693  38.3409992  19.1424990 101.0479997
  37.6939992  18.6804990 100.5149997  38.6959992  18.4704990 101.6309997
  38.3003861  18.9884707 101.0537939  39.2109992  17.2224990 102.8529997
  38.8769992  16.3424990 103.0249997  39.4329992  17.5684990 103.7169997
  39.1952677  17.1487366 102.9934252  56.7599992  18.0324990 105.8329997
  56.7379992  18.2174990 106.7719997  57.4499992  18.6004990 105.4919997
  56.8503439  18.1346898 105.9154774  56.3229992  17.5994990 108.7549997
  55.8359992  16.8634990 108.3839997  56.8719992  17.2054990 109.4329997
  56.3306101  17.4456267 108.7959034  56.0749992  11.6454990  98.9069997
  56.9249992  12.0664990  99.0349997  56.0799992  10.9054990  99.5149997
  56.1919745  11.6031347  99.0066479  56.4689992   9.6994990 100.7309997
  55.7429992   9.2194990 101.1289997  57.0499992   9.9044990 101.4629997
  56.4482504   9.6615592 100.8844199  56.2279992  12.4844990 105.6789997
  57.0619992  12.1064990 105.3979997  56.3399992  13.4274990 105.5599997
  56.3571917  12.5602954 105.6244844  54.7139992  15.3624990 107.9859997
  54.0669992  15.6874990 108.6109997  54.1969992  14.9214990 107.3109997
  54.5554068  15.3474726 107.9804918  56.7369992   9.6004990  97.1219997
  56.2159992   9.9564990  96.4029997  56.7039992  10.2754990  97.7999997
  56.6611525   9.7405273  97.1151408  55.0859992   6.8394990  95.6729997
  55.1829992   7.5064990  94.9929997  54.9459992   6.0244990  95.1909997
  55.0803428   6.8205667  95.5148311 102.5699992   1.2534990  89.7309997
 102.4719992   2.1994990  89.6249997 101.8269992   0.8804990  89.2549997
 102.4562363   1.3325987  89.6522029  54.2559992   8.2204990 101.2939997
  54.1059992   7.2754990 101.2739997  53.9019992   8.5014990 102.1379997
  54.1876351   8.1291656 101.4053202  39.2909992  10.2984990 105.3039997
  39.4749992  10.2164990 104.3689997  40.1399992  10.1744990 105.7279997
  39.4310259  10.2704915 105.2331771  54.3339992   4.2474990  94.7899997
  54.9439992   3.8764990  95.4269997  53.4969992   3.8264990  94.9859997
  54.3043704   4.1397942  94.9037077  53.9659992   5.8024990  99.7559997
  54.2459992   4.8954990  99.8809997  54.7249992   6.2364990  99.3669997
  54.1069471   5.7370654  99.7205051  54.5779992   6.3844990 105.1919997
  55.5109992   6.5964990 105.1579997  54.3429992   6.4854990 106.1149997
  54.6738357   6.4271303 105.3120232  54.6069992   7.1214990 107.9679997
  53.7639992   7.3894990 108.3339997  55.0499992   7.9434990 107.7569997
  54.5514358   7.2693294 107.9895999  54.5799992   3.0654990  99.8049997
  54.7619992   2.6164990 100.6299997  53.9799992   2.4814990  99.3409997
  54.5238187   2.9250563  99.8552721  40.1099992   3.8814990 104.3359997
  40.5549992   3.0894990 104.6379997  40.5759992   4.5974990 104.7669997
  40.2339059   3.8699485 104.4356061  38.4139992   6.8804990 105.4049997
  38.9059992   6.6594990 104.6149997  38.7759992   7.7204990 105.6859997
  38.5303429   6.9638220 105.3347918  56.4459992   3.1334990  96.3329997
  56.8589992   2.4124990  95.8569997  57.1279992   3.8024990  96.3909997
  56.5945712   3.1254304  96.2758247 103.8339992   5.5744990  93.2939997
 103.5979992   5.3554990  94.1959997 103.0509992   5.3674990  92.7849997
 103.6958444   5.5165688  93.3484518  38.7269992   3.1384990  99.4599997
  37.8019992   3.3464990  99.3299997  39.1809992   3.6224990  98.7699997
  38.6617401   3.2323895  99.3489433  53.4979992  18.1224990 101.4049997
  54.1499992  17.7744990 100.7969997  54.0089992  18.6104990 102.0509997
  53.6562872  18.1408248 101.4090964  38.6909992   1.8764990 107.8039997
  38.0259992   1.6304990 108.4469997  38.2479992   2.4984990 107.2269997
  38.5401168   1.9269225 107.8139830  43.8369992  16.0254990 108.2069997
  43.4119992  16.8354990 107.9239997  44.7409992  16.1114990 107.9049997
  43.9011002  16.1478728 108.1274798  55.4109992   1.3004990 109.4899997
  54.5979992   1.6254990 109.1019997  55.6439992   0.5394990 108.9569997
  55.3312566   1.2421570 109.3649196  41.2389992  19.2824990 108.2539997
  40.5179992  19.7224990 107.8029997  40.8729992  19.0314990 109.1029997
  41.0909785  19.3087691 108.3069849  43.7059992  18.8824990 107.2839997
  42.8409992  18.9544990 107.6879997  43.6509992  19.4294990 106.4999997
  43.5802066  18.9662678 107.2333371  48.4169992  18.7704990 106.4599997
  47.9599992  19.2994990 105.8059997  48.5789992  19.3734990 107.1849997
  48.3763919  18.9243990 106.4685740  50.7439992  17.6484990 107.4049997
  49.8399992  17.8134990 107.1389997  51.1729992  18.5014990 107.3389997
  50.6782017  17.7864184 107.3596495  53.3479992  19.2184990 107.6999997
  53.1669992  20.1344990 107.4889997  53.5249992  18.8074990 106.8529997
  53.3471377  19.2883365 107.5567178 106.5499992   4.7024990  92.3699997
 105.6019992   4.7344990  92.5019997 106.8619992   4.0764990  93.0239997
 106.4625293   4.6222934  92.4764130  40.6539992  17.9054990 105.1649997
  40.6349992  17.4794990 106.0219997  41.4579992  17.5864990 104.7559997
  40.7601393  17.8040297 105.2270155  42.7949992  16.6154990 103.8199997
  42.5759992  15.6984990 103.9889997  43.6189992  16.7554990 104.2859997
  42.8764637  16.5089586 103.9061414  45.3319992  17.0854990 104.6679997
  45.5449992  16.1974990 104.3809997  45.3969992  17.0504990 105.6229997
  45.3699075  16.9593318 104.7577355  48.8409992   2.7494990 103.8129997
  48.1659992   2.1194990 104.0679997  49.4049992   2.2654990 103.2099997
  48.8249558   2.5979283 103.7663451  53.9829992   0.8564990 103.9249997
  54.5869992   1.4044990 103.4239997  53.1139992   1.1754990 103.6849997
  53.9481126   0.9747070 103.8239180  55.7099992   1.9954990 102.2589997
  56.3219992   1.4814990 101.7319997  56.0929992   2.8724990 102.2819997
  55.8453867   2.0437613 102.1900888  41.1669992   1.3834990 101.6349997
  40.3899992   1.1484990 101.1269997  41.6979992   0.5864990 101.6439997
  41.1324443   1.2436721 101.5667200  40.0039992   1.1814990  97.4379997
  40.4429992   1.7924990  96.8469997  39.3699992   1.7194990  97.9119997
  39.9784104   1.3379233  97.4211376  45.7469992   1.3094990 101.4479997
  46.6209992   1.6984990 101.4179997  45.6109992   1.0944990 102.3709997
  45.8483125   1.3337120 101.5686523  51.3029992   1.3394990 103.0969997
  51.3799992   1.4354990 102.1479997  51.0279992   0.4324990 103.2259997
  51.2763407   1.2299188 102.9843532 108.1839992   3.3364990  94.3749997
 108.0869992   2.3844990  94.3689997 107.8619992   3.6044990  95.2359997
 108.1272229   3.2424706  94.4905108  52.6569992   1.3654990  98.7899997
  51.9539992   1.9804990  98.5799997  52.2119992   0.5284990  98.9209997
  52.5006550   1.3364679  98.7789819  39.9049992  17.1294990  98.3359997
  39.2199992  17.0914990  97.6679997  39.9079992  18.0414990  98.6239997
  39.8117358  17.2476744  98.2836145  41.8649992   3.0974990  95.8809997
  42.3559992   2.4674990  95.3529997  42.4879992   3.3934990  96.5439997
  42.0165459   3.0512419  95.8983667  46.8909992   3.3904990  98.3379997
  47.0689992   2.7434990  99.0209997  46.8369992   4.2244990  98.8049997
  46.9080678   3.4146615  98.4946283  48.7689992  18.3384990  96.7329997
  49.6349992  18.7054990  96.5549997  48.5219992  17.8994990  95.9199997
  48.8542041  18.3293648  96.5985958  55.4779992  17.9014990  99.4129997
  55.2839992  17.1534990  98.8479997  55.4389992  18.6594990  98.8289997
  55.4461907  17.9015770  99.2568077  41.7229992  18.0494990  95.3609997
  41.4549992  18.3354990  96.2339997  42.4939992  17.5034990  95.5129997
  41.7905600  18.0148341  95.5011482  69.1019992  10.5394990 101.5929997
  69.1909992  11.4834990 101.4609997  68.4629992  10.2644990 100.9349997
  69.0278319  10.6314984 101.4860276  68.0349992   9.7944990 105.0119997
  67.9959992   9.1484990 105.7169997  67.7119992   9.3274990 104.2409997
  67.9860199   9.6430089 105.0042865  60.4029992   9.4084990 106.6049997
  60.4439992   8.7834990 107.3289997  61.1059992  10.0324990 106.7869997
  60.5036054   9.4073262 106.7286311  98.0109992   4.5454990  93.4229997
  98.2219992   3.8394990  92.8119997  97.8989992   4.1084990  94.2669997
  98.0247674   4.3896376  93.4534199  71.7409992  12.7334990 103.3139997
  71.2999992  12.0134990 103.7639997  71.7279992  13.4544990 103.9439997
  71.6788398  12.7323187 103.4607734  61.3269992  13.8584990 105.1399997
  60.9569992  13.0564990 104.7709997  62.2679992  13.6904990 105.1869997
  61.4035630  13.7258680 105.0957873  57.9369992   7.5184990 100.5329997
  57.4889992   8.3644990 100.5149997  57.3759992   6.9394990 100.0179997
  57.7998546   7.5559004 100.4608874  58.6469992   9.6804990 102.6589997
  58.8609992   8.9104990 103.1859997  59.3849992   9.7704990 102.0559997
  58.7760073   9.5873546 102.6495786  68.8519992  17.8374990 103.5259997
  69.4719992  17.1614990 103.2529997  68.6439992  17.6194990 104.4339997
  68.9087360  17.7154792 103.6114387  66.4239992  12.2264990 105.4179997
  66.7279992  11.5404990 104.8239997  67.1459992  12.3454990 106.0359997
  66.5631152  12.1487201 105.4202106  75.0869992   3.8284990 106.2789997
  75.1359992   4.4384990 107.0149997  75.5129992   4.2894990 105.5559997
  75.1512851   3.9743266 106.2820532  69.5649992   6.6204990 105.7459997
  69.7069992   5.6744990 105.7659997  69.4589992   6.8274990 104.8169997
  69.5701158   6.5189722 105.6232241  62.7199992   4.7224990 103.0179997
  62.7629992   5.5824990 102.5999997  62.2619992   4.1694990 102.3849997
  62.6639613   4.7655689 102.8751276  70.4419992   4.8534990 101.4189997
  71.0879992   4.5244990 102.0439997  70.9519992   5.3704990 100.7959997
  70.5994392   4.8783710 101.4203248 102.7919992   0.5474990  92.4019997
 103.5029992  -0.0925010  92.3879997 102.6909992   0.8134990  91.4879997
 102.8756732   0.4958451  92.2765475  59.3399992   7.1194990 103.7799997
  59.9939992   6.5694990 104.2119997  59.3639992   6.8454990 102.8639997
  59.4327022   7.0072005 103.7151698  64.4959992   8.6694990 102.9959997
  65.1119992   8.1424990 103.5049997  63.9099992   8.0294990 102.5919997
  64.5010652   8.5108919 103.0110277  75.4789992   5.3064990 108.5149997
  74.7899992   5.9644990 108.4199997  75.4939992   5.1084990 109.4519997
  75.3867756   5.3697614 108.6285795  61.5299992   3.6404990 107.0919997
  61.3109992   4.1704990 106.3259997  60.8619992   3.8664990 107.7399997
  61.4097271   3.7436508 107.0746206  68.8989992  13.1404990 100.6359997
  68.6029992  12.8174990  99.7849997  68.5749992  14.0404990 100.6779997
  68.8146501  13.2179058 100.5250893  64.0989992  11.3154990 107.3799997
  63.3589992  11.9144990 107.4829997  64.8129992  11.8694990 107.0639997
  64.0943288  11.4722368 107.3513787  72.2059992   4.1444990 103.3999997
  71.9909992   3.3784990 103.9319997  72.8619992   4.6164990 103.9129997
  72.2652451   4.1034472 103.5421699  61.1239992   5.5324990 105.0449997
  61.7369992   6.1654990 105.4179997  61.6359992   5.0604990 104.3879997
  61.2771680   5.5554006 105.0072830  62.5059992  13.2804990 108.1669997
  62.5009992  14.1594990 107.7889997  61.6529992  13.1964990 108.5919997
  62.3899199  13.3895901 108.1726942  58.6279992  12.9514990  98.9489997
  58.3559992  13.1804990  98.0599997  58.6729992  13.7884990  99.4089997
  58.5968709  13.0961069  98.8896089 103.1449992   2.2294990  94.4559997
 103.0139992   1.7544990  93.6349997 102.5459992   2.9744990  94.3999997
 103.0461524   2.2651968  94.3361553  72.2529992  14.5724990 105.6619997
  71.3109992  14.6314990 105.8229997  72.5289992  15.4784990 105.5249997
  72.1615771  14.7030270 105.6654827  72.5529992   2.8594990 107.0789997
  71.8169992   3.4694990 107.0409997  73.2369992   3.2744990 106.5529997
  72.5445885   2.9991924 107.0026931  65.5559992   0.9454990 104.5449997
  65.4389992  -0.0025010 104.4909997  64.7009992   1.2784990 104.8179997
  65.4243691   0.8605842 104.5745072  70.5049992  16.3534990 102.2869997
  70.9299992  15.6464990 101.8019997  70.8219992  17.1554990 101.8699997
  70.6060266  16.3650201 102.1642461  71.6639992  14.2544990 100.7959997
  71.4069992  13.5644990 100.1839997  71.7349992  13.8114990 101.6409997
  71.6384322  14.1001568 100.8265372  73.3499992  12.8214990 109.2729997
  73.4899992  12.2294990 108.5339997  73.5179992  13.6944990 108.9169997
  73.3918734  12.8584041 109.1236937  67.8229992   9.7834990  99.0449997
  67.1109992  10.3184990  98.6939997  68.5139992   9.8384990  98.3849997
  67.8188696   9.8642591  98.9076372  67.8769992   8.2404990  96.0839997
  68.5779992   8.2634990  96.7349997  68.1789992   7.6124990  95.4279997
  68.0138282   8.1587350  96.0844478  75.1919992   9.1614990 107.3389997
  74.5399992   9.8554990 107.4279997  75.6569992   9.3714990 106.5289997
  75.1655357   9.2849544 107.2417056  71.2289992   9.9924990  99.9969997
  70.4969992  10.2214990 100.5699997  71.6759992   9.2794990 100.4519997
  71.1892753   9.9273984 100.1369698  94.9089992  19.1424990  82.1919997
  94.2619992  18.6804990  81.6589997  95.2639992  18.4704990  82.7749997
  94.8683861  18.9884707  82.1977939  71.1259992   8.1674990 109.0649997
  71.2059992   8.9304990 109.6369997  70.5249992   8.4464990 108.3739997
  71.0557115   8.3097707 109.0499631  62.8739992  10.6234990 101.8799997
  62.5439992  10.2524990 101.0609997  63.4619992   9.9524990 102.2259997
  62.9084056  10.4821257 101.8149035  64.2409992  14.0514990 104.5609997
  64.1459992  13.4724990 103.8039997  64.9699992  13.6804990 105.0569997
  64.3266161  13.9220902 104.5245192  63.2409992   9.3914990 105.5129997
  63.8059992   9.5134990 104.7499997  63.5589992  10.0294990 106.1519997
  63.3613430   9.4944448 105.4949094  69.5499992  14.8954990 106.2469997
  69.3089992  15.5574990 106.8949997  69.3519992  14.0604990 106.6719997
  69.4902662  14.8732704 106.3931008  70.0999992   9.1554990  97.6819997
  70.6789992   9.3054990  98.4289997  70.5139992   9.6254990  96.9589997
  70.2353122   9.2396288  97.6865024  61.0409992   9.9894990 109.4589997
  61.1109992  10.6404990 110.1569997  60.1499992  10.0924990 109.1239997
  60.9301802  10.0924769 109.5092231  67.8259992  15.8914990 101.1179997
  68.2999992  16.1874990 101.8949997  67.2629992  16.6304990 100.8839997
  67.8148460  16.0318336 101.1927626  73.7979992   0.9054990  97.4949997
  72.8979992   1.0434990  97.7899997  74.0499992   1.7364990  97.0929997
  73.7087355   1.0368200  97.4810539  61.8639992   9.6924990  99.4689997
  61.5719992  10.4604990  98.9779997  61.1899992   9.0334990  99.3059997
  61.7328843   9.7084537  99.3797695  95.7789992  17.2224990  83.9969997
  95.4449992  16.3424990  84.1689997  96.0009992  17.5684990  84.8609997
  95.7632677  17.1487365  84.1374252  74.9879992  15.2714990  95.8719997
  75.0609992  16.2104990  96.0419997  75.8929992  14.9664990  95.8149997
  75.1204168  15.3588531  95.8875736  57.9569992  12.0554990 108.2839997
  57.4559992  12.0274990 107.4689997  57.9629992  11.1504990 108.5939997
  57.8891690  11.9292234 108.2142770  57.7079992  14.8364990 105.1679997
  58.6539992  14.6914990 105.1489997  57.5949992  15.6204990 105.7049997
  57.8223578  14.9226708 105.2380300  66.8839992  15.0764990 109.7259997
  66.9709992  15.9024990 110.2009997  66.0199992  14.7464990 109.9749997
  66.7791944  15.1449871 109.8246558  67.2979992  18.8484990  99.5319997
  67.2229992  18.7274990  98.5859997  67.3309992  19.7974990  99.6509997
  67.2921862  18.9602492  99.4184840  60.9519992  17.6374990 101.3129997
  61.1039992  17.2894990 102.1919997  60.1009992  17.2804990 101.0579997
  60.8577899  17.5416749 101.3987322  70.3999992  18.0024990  96.5349997
  70.7749992  17.2584990  96.0639997  70.4039992  17.7324990  97.4529997
  70.4518969  17.8640920  96.5946475  70.0689992  17.9284990  99.2839997
  69.1339992  18.0284990  99.4629997  70.3489992  17.2184990  99.8619997
  69.9789270  17.8462300  99.3865984  60.2059992  13.3794990 109.3269997
  60.4219992  13.0174990 110.1869997  59.3509992  13.0044990 109.1169997
  60.1199349  13.2792914 109.4162134  62.8249992   1.8494990 105.3229997
  61.9629992   1.7624990 104.9149997  62.8029992   2.7054990 105.7499997
  62.7040953   1.9533558 105.3249262 113.3279992  18.0324990  86.9769997
 113.3059992  18.2174990  87.9159997 114.0179992  18.6004990  86.6359997
 113.4183439  18.1346898  87.0594774  67.4879992   1.5714990 108.6969997
  67.9079992   1.1564990 109.4499997  66.5549992   1.3924990 108.8139997
  67.4193736   1.4904921 108.8158950  70.8139992   5.3264990 109.5509997
  70.2999992   5.2014990 110.3479997  70.6589992   6.2394990 109.3059997
  70.7226643   5.4327068 109.6270624  71.5769992  10.1874990  95.3119997
  71.6189992   9.9654990  94.3819997  72.4259992  10.5864990  95.5019997
  71.6975253  10.2110510  95.2103804  67.1499992   4.0634990  95.9819997
  66.8959992   4.0824990  96.9049997  66.8929992   3.1924990  95.6809997
  67.0805133   3.9483121  96.0675065  62.9159992   6.8144990 106.4179997
  62.2739992   6.7744990 107.1269997  62.9529992   7.7414990 106.1799997
  62.8331659   6.9342540 106.4828463  62.9129992   7.0354990 101.3299997
  62.0199992   6.6954990 101.2709997  63.3639992   6.6584990 100.5739997
  62.8517185   6.9380220 101.2197698  68.4489992   7.4514990 100.1469997
  68.0399992   8.2664990  99.8549997  69.1689992   7.3114990  99.5319997
  68.4903946   7.5439963 100.0239616  69.4529992   6.8974990 102.9609997
  69.2579992   7.5034990 102.2459997  69.6349992   6.0644990 102.5259997
  69.4509272   6.8677955 102.8044075  60.6659992   7.1354990 108.2849997
  60.6279992   7.5354990 109.1529997  60.1749992   6.3184990 108.3749997
  60.5944246   7.0798842 108.4161171  64.0319992   4.5094990  95.0829997
  63.6009992   4.0644990  95.8129997  63.3139992   4.8804990  94.5709997
  63.8759363   4.4987979  95.1136194 112.8909992  17.5994990  89.8989997
 112.4039992  16.8634990  89.5279997 113.4399992  17.2054990  90.5769997
 112.8986101  17.4456267  89.9399034  57.2739992   4.2514990 102.1349997
  57.9049992   4.2224990 102.8549997  57.7239992   3.8264990 101.4049997
  57.4210905   4.1900839 102.1347479  58.5479992   4.9974990  97.5589997
  59.0229992   5.5884990  96.9739997  57.8309992   5.5274990  97.9059997
  58.5160406   5.1501011  97.5258495  68.7169992   8.5354990 107.6319997
  69.0409992   7.9044990 106.9889997  68.2769992   8.0014990 108.2929997
  68.7018707   8.3768261 107.6333195  65.4949992   4.4634990 102.4159997
  64.5839992   4.5204990 102.7049997  65.9999992   4.4034990 103.2269997
  65.4386873   4.4631838 102.5651190  60.3229992   6.0924990 101.2429997
  59.4339992   6.1914990 100.9029997  60.6189992   5.2504990 100.8969997
  60.2414001   5.9922473 101.1497318  63.9759992   6.0924990  98.8989997
  64.9079992   6.2214990  99.0769997  63.7609992   6.7614990  98.2499997
  64.0744245   6.2006452  98.8355602  69.8999992   3.6984990 105.6799997
  69.2229992   3.8294990 106.3439997  69.4139992   3.5434990 104.8699997
  69.7417265   3.6954665 105.6613380  62.6499992   7.2864990  96.4659997
  62.1079992   6.9074990  95.7749997  63.4839992   7.4814990  96.0369997
  62.6884283   7.2609383  96.3134298  66.8149992   7.2504990 104.3029997
  67.3789992   6.7044990 103.7559997  66.6669992   6.7294990 105.0919997
  66.8723037   7.1051798 104.3347212  61.8169992   3.3874990 100.7209997
  61.4989992   2.4844990 100.6859997  62.5979992   3.3894990 100.1689997
  61.8791560   3.2641148 100.6414975 111.3419992  13.3894990  94.5369997
 110.4759992  13.2844990  94.9309997 111.7179992  14.1474990  94.9839997
 111.2743768  13.4776151  94.6513258  65.4409992   5.6394990 106.7169997
  64.6059992   6.0934990 106.8269997  65.9649992   5.9154990 107.4689997
  65.3975070   5.7389677 106.8337134  65.9849992  11.8524990  98.4019997
  65.2399992  11.3444990  98.0789997  65.8509992  11.9014990  99.3479997
  65.8648633  11.7895714  98.4857563  73.1349992  10.9854990 107.1879997
  73.7769992  11.4414990 106.6449997  72.3049992  11.0984990 106.7259997
  73.1107352  11.0633223 107.0510234  69.8829992   4.6664990  96.6009997
  68.9439992   4.7774990  96.4499997  70.1799992   5.5224990  96.9069997
  69.7946371   4.7975327  96.6217362  67.5049992  12.0364990 109.6389997
  67.1589992  11.6544990 110.4449997  67.3049992  12.9694990 109.7099997
  67.4305399  12.1103489 109.7590401  70.6009992   6.5334990  98.2619997
  71.4929992   6.3954990  98.5809997  70.6579992   7.3244990  97.7249997
  70.7307380   6.6214777  98.2330981  61.1099992  11.1474990 104.1709997
  61.8549992  11.1444990 103.5699997  61.1879992  10.3234990 104.6529997
  61.2224158  11.0357928 104.1539136  68.1109992  13.3104990  97.4269997
  67.8159992  14.1374990  97.8089997  67.4079992  12.6914990  97.6229997
  67.9755855  13.3399458  97.5057633  58.1179992   9.6074990 109.4859997
  58.3409992   9.1894990 110.3179997  57.5159992   8.9954990 109.0639997
  58.0670802   9.4675216 109.5427561  69.7549992  14.4984990 109.5889997
  68.8539992  14.6814990 109.3209997  69.7889992  14.7574990 110.5099997
  69.6363021  14.5585505 109.6768206 112.6429992  11.6454990  80.0509997
 113.4929992  12.0664990  80.1789997 112.6479992  10.9054990  80.6589997
 112.7599745  11.6031347  80.1506479  75.4859992   6.7424990  97.9559997
  74.9319992   6.3464990  97.2839997  75.5869992   7.6534990  97.6789997
  75.4237084   6.8113565  97.8264381  73.7809992  15.5284990  98.4209997
  73.4089992  14.7034990  98.7309997  74.0589992  15.3454990  97.5239997
  73.7675997  15.3906160  98.3421551  70.9419992  10.3364990 105.4429997
  70.0139992  10.1054990 105.4159997  71.3929992   9.5594990 105.1129997
  70.8758165  10.1997785 105.3946772  63.4849992  14.6654990 101.5759997
  64.0119992  15.4384990 101.3749997  62.6049992  14.8894990 101.2739997
  63.4381793  14.8016652 101.5076304  59.2399992   9.5274990  96.1629997
  59.8559992  10.1544990  96.5419997  58.3779992   9.8434990  96.4339997
  59.2078195   9.6560810  96.2515369  64.9119992  12.3284990 101.1519997
  64.6709992  13.2534990 101.1939997  64.1719992  11.8694990 101.5479997
  64.7788934  12.3930881 101.2113191  65.4269992  16.4774990 107.4669997
  65.7899992  17.3314990 107.2339997  65.9589992  16.1854990 108.2079997
  65.5485141  16.5548907 107.5352079  63.5949992  17.3494990 100.6969997
  62.6459992  17.4554990 100.7489997  63.9469992  18.1704990 101.0419997
  63.5126214  17.4749361 100.7507317  68.9709992  12.5764990 107.1679997
  68.5449992  12.3484990 107.9939997  69.5519992  11.8374990 106.9849997
  68.9911587  12.4454084 107.2564111  71.1739992  13.5054990  96.2419997
  71.5269992  13.1254990  97.0459997  70.2249992  13.4114990  96.3279997
  71.0940985  13.4407330  96.3637738 113.0369992   9.6994990  81.8749997
 112.3109992   9.2194990  82.2729997 113.6179992   9.9044990  82.6069997
 113.0162504   9.6615592  82.0284199  71.6299992  17.1284990 109.6369997
  71.0279992  16.5724990 109.1419997  71.9109992  17.7954990 109.0109997
  71.5855757  17.1425755 109.4845657  75.6769992  17.9844990  96.4429997
  76.4209992  18.5704990  96.3029997  74.9829992  18.5534990  96.7759997
  75.6849809  18.1415830  96.4688572  59.7519992   4.3614990 109.0439997
  58.8589992   4.6994990 108.9769997  59.6529992   3.5054990 109.4619997
  59.6165241   4.2920941 109.0912982  72.0399992  12.1774990  98.4679997
  71.7629992  11.4494990  99.0239997  72.9669992  12.2964990  98.6739997
  72.1274181  12.0940068  98.5718972  59.4029992  16.1654990 107.4789997
  59.6199992  15.2334990 107.4479997  59.6499992  16.4404990 108.3629997
  59.4660543  16.0750877 107.5941412  65.2649992  14.6174990  94.6889997
  65.5039992  13.8684990  94.1409997  64.9959992  14.2294990  95.5209997
  65.2612804  14.4626524  94.7266352  64.2019992  14.1874990  97.1449997
  64.3489992  13.6674990  97.9349997  64.1989992  15.0944990  97.4509997
  64.2217300  14.2388975  97.2945877  60.6549992  11.4394990  97.6549997
  59.9689992  11.7924990  98.2219997  61.1779992  12.2024990  97.4089997
  60.6319033  11.5908757  97.6992644  68.4859992   4.1024990 107.9339997
  69.1849992   4.1764990 108.5839997  68.1059992   3.2374990 108.0889997
  68.5302095   3.9957402 108.0437982  69.2709992   3.7544990  99.0309997
  69.4909992   4.2254990  98.2279997  69.8289992   4.1484990  99.7019997
  69.3765851   3.8723272  99.0116134 112.7959992  12.4844990  86.8229997
 113.6299992  12.1064990  86.5419997 112.9079992  13.4274990  86.7039997
 112.9251917  12.5602954  86.7684844  66.9399992  15.8844990  97.8939997
  66.1229992  16.3814990  97.9469997  67.4689992  16.3604990  97.2539997
  66.8997898  16.0168123  97.8147274  66.4709992   5.4824990  99.8659997
  67.2829992   5.9864990  99.9119997  66.2259992   5.3374990 100.7799997
  66.5491091   5.5319366  99.9958552  67.0069992   6.4684990 109.0509997
  67.1259992   7.0424990 109.8079997  67.6619992   5.7804990 109.1659997
  67.1118684   6.4540205 109.1701656  67.3549992   2.5634990 100.8039997
  67.0079992   3.1804990 101.4489997  68.0129992   3.0644990 100.3229997
  67.3965290   2.7156384 100.8271635  64.2779992  16.9284990  97.8759997
  64.4389992  17.7284990  97.3749997  64.0809992  17.2354990  98.7609997
  64.2733919  17.0794140  97.9270988  63.0119992   3.6264990  97.4919997
  62.9289992   4.5144990  97.8379997  63.9019992   3.3614990  97.7229997
  63.1209751   3.7122482  97.5706066  73.2109992   4.3754990 109.8859997
  72.2949992   4.6374990 109.7979997  73.5469992   4.3724990 108.9889997
  73.1309789   4.4109637 109.7527829  71.8129992   8.1254990 103.9819997
  71.0159992   7.7104990 103.6529997  72.2579992   7.4354990 104.4729997
  71.7640317   7.9753197 104.0033556  61.2709992  14.0534990  96.5519997
  61.8629992  14.7534990  96.8279997  61.7299992  13.6204990  95.8329997
  61.4141172  14.0907371  96.4925163  59.5869992   6.7184990  95.6679997
  59.5419992   7.6574990  95.8469997  58.6989992   6.4824990  95.3979997
  59.4608472   6.8151946  95.6560282 111.2819992  15.3624990  89.1299997
 110.6349992  15.6874990  89.7549997 110.7649992  14.9214990  88.4549997
 111.1234068  15.3474726  89.1244918  72.8999992  17.3814990 105.6039997
  72.7439992  18.0604990 104.9469997  73.8319992  17.4534990 105.8069997
  73.0047328  17.4841586 105.5415529  60.3949992   1.4994990 104.3409997
  60.1659992   1.5584990 103.4139997  59.9519992   0.7084990 104.6479997
  60.3037387   1.4006412 104.2555223  59.3249992  15.4404990 100.5019997
  58.4929992  15.9124990 100.5289997  59.8709992  15.9504990  99.9029997
  59.2848710  15.5740317 100.4247570  67.3029992  16.4804990  94.8269997
  66.6589992  15.8494990  95.1489997  68.0649992  15.9494990  94.5949997
  67.3178260  16.3223035  94.8397298  71.9069992  16.2974990  95.0609997
  72.1899992  15.5024990  95.5139997  72.6469992  16.5304990  94.4999997
  72.0457295  16.2202349  95.0471469  62.8619992  12.2064990  94.9179997
  62.9259992  11.4124990  95.4489997  63.5149992  12.0884990  94.2289997
  62.9591168  12.0817748  94.8975119  68.2139992  13.2534990  94.6539997
  67.9459992  13.4344990  95.5549997  68.0079992  12.3284990  94.5229997
  68.1494251  13.1531528  94.7596809  70.9109992  11.7484990 109.6019997
  71.6559992  12.3374990 109.4819997  70.1529992  12.3304990 109.6649997
  70.9105185  11.9077000 109.5940940  64.0109992  10.1794990  97.2239997
  63.5519992   9.6954990  97.9099997  64.2659992   9.5104990  96.5879997
  63.9826178  10.0228511  97.2319785  63.2999992   8.0724990 109.5799997
  62.6819992   8.7464990 109.8609997  63.6439992   8.3934990 108.7469997
  63.2618181   8.2083233 109.5058266 113.3049992   9.6004990  78.2659997
 112.7839992   9.9564990  77.5469997 113.2719992  10.2754990  78.9439997
 113.2291525   9.7405273  78.2591408  65.0819992   8.4224990  95.4869997
  64.9019992   8.2674990  94.5589997  66.0319992   8.5304990  95.5309997
  65.1858016   8.4159264  95.3662123  74.4719992  10.7764990  94.9319997
  74.1989992  10.3524990  94.1189997  74.5119992  11.7084990  94.7149997
  74.4400201  10.8443523  94.7913548  64.0519992   3.7964990 108.1549997
  64.5879992   4.2484990 107.5029997  63.1999992   3.6884990 107.7329997
  64.0101648   3.8437883 108.0086395  65.6339992   9.2364990 108.3949997
  66.3849992   9.0804990 107.8219997  65.2949992  10.0884990 108.1189997
  65.6909052   9.3302745 108.2793469  64.8579992   1.2534990 108.5869997
  64.7599992   2.1994990 108.4809997  64.1149992   0.8804990 108.1109997
  64.7442363   1.3325987 108.5082029  64.9799992  19.1124990  96.4879997
  65.9129992  19.2704990  96.6319997  64.7149992  19.7884990  95.8629997
  65.0719846  19.2254567  96.4232930  58.5479992  13.7494990  95.9709997
  59.4619992  13.8284990  96.2439997  58.5549992  13.0624990  95.3039997
  58.6740769  13.6674735  95.9182366  57.1969992  19.1424990 101.0479997
  56.5499992  18.6804990 100.5149997  57.5519992  18.4704990 101.6309997
  57.1563861  18.9884707 101.0537939  58.0669992  17.2224990 102.8529997
  57.7329992  16.3424990 103.0249997  58.2889992  17.5684990 103.7169997
  58.0512677  17.1487365 102.9934252  75.6159992  18.0324990 105.8329997
  75.5939992  18.2174990 106.7719997  76.3059992  18.6004990 105.4919997
  75.7063439  18.1346898 105.9154774 110.8239992   8.2204990  82.4379997
 110.6739992   7.2754990  82.4179997 110.4699992   8.5014990  83.2819997
 110.7556351   8.1291656  82.5493202  75.1789992  17.5994990 108.7549997
  74.6919992  16.8634990 108.3839997  75.7279992  17.2054990 109.4329997
  75.1866101  17.4456267 108.7959034  74.9309992  11.6454990  98.9069997
  75.7809992  12.0664990  99.0349997  74.9359992  10.9054990  99.5149997
  75.0479745  11.6031347  99.0066479  75.3249992   9.6994990 100.7309997
  74.5989992   9.2194990 101.1289997  75.9059992   9.9044990 101.4629997
  75.3042504   9.6615592 100.8844199  75.0839992  12.4844990 105.6789997
  75.9179992  12.1064990 105.3979997  75.1959992  13.4274990 105.5599997
  75.2131917  12.5602954 105.6244844  73.5699992  15.3624990 107.9859997
  72.9229992  15.6874990 108.6109997  73.0529992  14.9214990 107.3109997
  73.4114068  15.3474726 107.9804918  75.5929992   9.6004990  97.1219997
  75.0719992   9.9564990  96.4029997  75.5599992  10.2754990  97.7999997
  75.5171525   9.7405273  97.1151408  73.9419992   6.8394990  95.6729997
  74.0389992   7.5064990  94.9929997  73.8019992   6.0244990  95.1909997
  73.9363428   6.8205667  95.5148311  73.1119992   8.2204990 101.2939997
  72.9619992   7.2754990 101.2739997  72.7579992   8.5014990 102.1379997
  73.0436351   8.1291656 101.4053202  58.1469992  10.2984990 105.3039997
  58.3309992  10.2164990 104.3689997  58.9959992  10.1744990 105.7279997
  58.2870259  10.2704915 105.2331771  73.1899992   4.2474990  94.7899997
  73.7999992   3.8764990  95.4269997  72.3529992   3.8264990  94.9859997
  73.1603704   4.1397942  94.9037077  95.8589992  10.2984990  86.4479997
  96.0429992  10.2164990  85.5129997  96.7079992  10.1744990  86.8719997
  95.9990259  10.2704915  86.3771771  72.8219992   5.8024990  99.7559997
  73.1019992   4.8954990  99.8809997  73.5809992   6.2364990  99.3669997
  72.9629471   5.7370654  99.7205051  73.4339992   6.3844990 105.1919997
  74.3669992   6.5964990 105.1579997  73.1989992   6.4854990 106.1149997
  73.5298357   6.4271303 105.3120232  73.4629992   7.1214990 107.9679997
  72.6199992   7.3894990 108.3339997  73.9059992   7.9434990 107.7569997
  73.4074358   7.2693294 107.9895999  73.4359992   3.0654990  99.8049997
  73.6179992   2.6164990 100.6299997  72.8359992   2.4814990  99.3409997
  73.3798187   2.9250563  99.8552721  58.9659992   3.8814990 104.3359997
  59.4109992   3.0894990 104.6379997  59.4319992   4.5974990 104.7669997
  59.0899059   3.8699485 104.4356061  57.2699992   6.8804990 105.4049997
  57.7619992   6.6594990 104.6149997  57.6319992   7.7204990 105.6859997
  57.3863428   6.9638220 105.3347918  75.3019992   3.1334990  96.3329997
  75.7149992   2.4124990  95.8569997  75.9839992   3.8024990  96.3909997
  75.4505712   3.1254304  96.2758247  57.5829992   3.1384990  99.4599997
  56.6579992   3.3464990  99.3299997  58.0369992   3.6224990  98.7699997
  57.5177401   3.2323895  99.3489433  72.3539992  18.1224990 101.4049997
  73.0059992  17.7744990 100.7969997  72.8649992  18.6104990 102.0509997
  72.5122872  18.1408248 101.4090964  57.5469992   1.8764990 107.8039997
  56.8819992   1.6304990 108.4469997  57.1039992   2.4984990 107.2269997
  57.3961168   1.9269225 107.8139830 111.6799992  10.1904990  92.0769997
 112.2629992   9.4554990  92.2679997 112.2439992  10.9624990  92.1229997
 111.8360326  10.1942746  92.1093579  62.6929992  16.0254990 108.2069997
  62.2679992  16.8354990 107.9239997  63.5969992  16.1114990 107.9049997
  62.7571002  16.1478728 108.1274798  74.2669992   1.3004990 109.4899997
  73.4539992   1.6254990 109.1019997  74.4999992   0.5394990 108.9569997
  74.1872566   1.2421570 109.3649196  60.0949992  19.2824990 108.2539997
  59.3739992  19.7224990 107.8029997  59.7289992  19.0314990 109.1029997
  59.9469785  19.3087691 108.3069849  62.5619992  18.8824990 107.2839997
  61.6969992  18.9544990 107.6879997  62.5069992  19.4294990 106.4999997
  62.4362066  18.9662678 107.2333371  67.2729992  18.7704990 106.4599997
  66.8159992  19.2994990 105.8059997  67.4349992  19.3734990 107.1849997
  67.2323919  18.9243990 106.4685740  69.5999992  17.6484990 107.4049997
  68.6959992  17.8134990 107.1389997  70.0289992  18.5014990 107.3389997
  69.5342017  17.7864184 107.3596495  72.2039992  19.2184990 107.6999997
  72.0229992  20.1344990 107.4889997  72.3809992  18.8074990 106.8529997
  72.2031377  19.2883365 107.5567178  59.5099992  17.9054990 105.1649997
  59.4909992  17.4794990 106.0219997  60.3139992  17.5864990 104.7559997
  59.6161393  17.8040297 105.2270155  61.6509992  16.6154990 103.8199997
  61.4319992  15.6984990 103.9889997  62.4749992  16.7554990 104.2859997
  61.7324637  16.5089586 103.9061414  64.1879992  17.0854990 104.6679997
  64.4009992  16.1974990 104.3809997  64.2529992  17.0504990 105.6229997
  64.2259075  16.9593318 104.7577355 113.1769992   8.0934990  92.7609997
 112.3129992   7.7144990  92.5959997 113.7809992   7.3544990  92.6869997
 113.1404912   7.9417937  92.7284360  67.6969992   2.7494990 103.8129997
  67.0219992   2.1194990 104.0679997  68.2609992   2.2654990 103.2099997
  67.6809558   2.5979283 103.7663451  72.8389992   0.8564990 103.9249997
  73.4429992   1.4044990 103.4239997  71.9699992   1.1754990 103.6849997
  72.8041126   0.9747070 103.8239180  74.5659992   1.9954990 102.2589997
  75.1779992   1.4814990 101.7319997  74.9489992   2.8724990 102.2819997
  74.7013867   2.0437613 102.1900888  60.0229992   1.3834990 101.6349997
  59.2459992   1.1484990 101.1269997  60.5539992   0.5864990 101.6439997
  59.9884443   1.2436721 101.5667200  58.8599992   1.1814990  97.4379997
  59.2989992   1.7924990  96.8469997  58.2259992   1.7194990  97.9119997
  58.8344104   1.3379233  97.4211376  64.6029992   1.3094990 101.4479997
  65.4769992   1.6984990 101.4179997  64.4669992   1.0944990 102.3709997
  64.7043125   1.3337120 101.5686523  70.1589992   1.3394990 103.0969997
  70.2359992   1.4354990 102.1479997  69.8839992   0.4324990 103.2259997
  70.1323407   1.2299188 102.9843532  71.5129992   1.3654990  98.7899997
  70.8099992   1.9804990  98.5799997  71.0679992   0.5284990  98.9209997
  71.3566550   1.3364679  98.7789819  58.7609992  17.1294990  98.3359997
  58.0759992  17.0914990  97.6679997  58.7639992  18.0414990  98.6239997
  58.6677358  17.2476744  98.2836145  60.7209992   3.0974990  95.8809997
  61.2119992   2.4674990  95.3529997  61.3439992   3.3934990  96.5439997
  60.8725459   3.0512419  95.8983667 110.5339992   5.8024990  80.8999997
 110.8139992   4.8954990  81.0249997 111.2929992   6.2364990  80.5109997
 110.6749471   5.7370654  80.8645052  65.7469992   3.3904990  98.3379997
  65.9249992   2.7434990  99.0209997  65.6929992   4.2244990  98.8049997
  65.7640678   3.4146615  98.4946283  67.6249992  18.3384990  96.7329997
  68.4909992  18.7054990  96.5549997  67.3779992  17.8994990  95.9199997
  67.7102041  18.3293648  96.5985958  74.3339992  17.9014990  99.4129997
  74.1399992  17.1534990  98.8479997  74.2949992  18.6594990  98.8289997
  74.3021907  17.9015770  99.2568077  60.5789992  18.0494990  95.3609997
  60.3109992  18.3354990  96.2339997  61.3499992  17.5034990  95.5129997
  60.6465600  18.0148341  95.5011482  87.9579992  10.5394990 101.5929997
  88.0469992  11.4834990 101.4609997  87.3189992  10.2644990 100.9349997
  87.8838319  10.6314984 101.4860276  86.8909992   9.7944990 105.0119997
  86.8519992   9.1484990 105.7169997  86.5679992   9.3274990 104.2409997
  86.8420199   9.6430089 105.0042865  79.2589992   9.4084990 106.6049997
  79.2999992   8.7834990 107.3289997  79.9619992  10.0324990 106.7869997
  79.3596054   9.4073262 106.7286311  90.5969992  12.7334990 103.3139997
  90.1559992  12.0134990 103.7639997  90.5839992  13.4544990 103.9439997
  90.5348398  12.7323187 103.4607734  80.1829992  13.8584990 105.1399997
  79.8129992  13.0564990 104.7709997  81.1239992  13.6904990 105.1869997
  80.2595630  13.7258680 105.0957873  76.7929992   7.5184990 100.5329997
  76.3449992   8.3644990 100.5149997  76.2319992   6.9394990 100.0179997
  76.6558546   7.5559004 100.4608874 111.1459992   6.3844990  86.3359997
 112.0789992   6.5964990  86.3019997 110.9109992   6.4854990  87.2589997
 111.2418357   6.4271303  86.4560232  77.5029992   9.6804990 102.6589997
  77.7169992   8.9104990 103.1859997  78.2409992   9.7704990 102.0559997
  77.6320073   9.5873546 102.6495786  87.7079992  17.8374990 103.5259997
  88.3279992  17.1614990 103.2529997  87.4999992  17.6194990 104.4339997
  87.7647360  17.7154792 103.6114387  85.2799992  12.2264990 105.4179997
  85.5839992  11.5404990 104.8239997  86.0019992  12.3454990 106.0359997
  85.4191152  12.1487201 105.4202106  93.9429992   3.8284990 106.2789997
  93.9919992   4.4384990 107.0149997  94.3689992   4.2894990 105.5559997
  94.0072851   3.9743266 106.2820532  88.4209992   6.6204990 105.7459997
  88.5629992   5.6744990 105.7659997  88.3149992   6.8274990 104.8169997
  88.4261158   6.5189722 105.6232241  81.5759992   4.7224990 103.0179997
  81.6189992   5.5824990 102.5999997  81.1179992   4.1694990 102.3849997
  81.5199613   4.7655689 102.8751276  89.2979992   4.8534990 101.4189997
  89.9439992   4.5244990 102.0439997  89.8079992   5.3704990 100.7959997
  89.4554392   4.8783710 101.4203248  78.1959992   7.1194990 103.7799997
  78.8499992   6.5694990 104.2119997  78.2199992   6.8454990 102.8639997
  78.2887022   7.0072005 103.7151698  83.3519992   8.6694990 102.9959997
  83.9679992   8.1424990 103.5049997  82.7659992   8.0294990 102.5919997
  83.3570652   8.5108919 103.0110277  94.3349992   5.3064990 108.5149997
  93.6459992   5.9644990 108.4199997  94.3499992   5.1084990 109.4519997
  94.2427756   5.3697614 108.6285795 111.1749992   7.1214990  89.1119997
 110.3319992   7.3894990  89.4779997 111.6179992   7.9434990  88.9009997
 111.1194358   7.2693294  89.1335999  80.3859992   3.6404990 107.0919997
  80.1669992   4.1704990 106.3259997  79.7179992   3.8664990 107.7399997
  80.2657271   3.7436508 107.0746206  87.7549992  13.1404990 100.6359997
  87.4589992  12.8174990  99.7849997  87.4309992  14.0404990 100.6779997
  87.6706501  13.2179058 100.5250893  82.9549992  11.3154990 107.3799997
  82.2149992  11.9144990 107.4829997  83.6689992  11.8694990 107.0639997
  82.9503288  11.4722368 107.3513787  91.0619992   4.1444990 103.3999997
  90.8469992   3.3784990 103.9319997  91.7179992   4.6164990 103.9129997
  91.1212451   4.1034472 103.5421699  79.9799992   5.5324990 105.0449997
  80.5929992   6.1654990 105.4179997  80.4919992   5.0604990 104.3879997
  80.1331680   5.5554006 105.0072830  81.3619992  13.2804990 108.1669997
  81.3569992  14.1594990 107.7889997  80.5089992  13.1964990 108.5919997
  81.2459199  13.3895901 108.1726942  77.4839992  12.9514990  98.9489997
  77.2119992  13.1804990  98.0599997  77.5289992  13.7884990  99.4089997
  77.4528709  13.0961069  98.8896089  91.1089992  14.5724990 105.6619997
  90.1669992  14.6314990 105.8229997  91.3849992  15.4784990 105.5249997
  91.0175771  14.7030270 105.6654827  91.4089992   2.8594990 107.0789997
  90.6729992   3.4694990 107.0409997  92.0929992   3.2744990 106.5529997
  91.4005885   2.9991924 107.0026931  84.4119992   0.9454990 104.5449997
  84.2949992  -0.0025010 104.4909997  83.5569992   1.2784990 104.8179997
  84.2803691   0.8605842 104.5745072  95.4559992   5.5684990  92.5889997
  96.3759992   5.4464990  92.8249997  95.0069992   4.8184990  92.9779997
  95.5211561   5.4503720  92.6739015  89.3609992  16.3534990 102.2869997
  89.7859992  15.6464990 101.8019997  89.6779992  17.1554990 101.8699997
  89.4620266  16.3650201 102.1642461  90.5199992  14.2544990 100.7959997
  90.2629992  13.5644990 100.1839997  90.5909992  13.8114990 101.6409997
  90.4944322  14.1001568 100.8265372  92.2059992  12.8214990 109.2729997
  92.3459992  12.2294990 108.5339997  92.3739992  13.6944990 108.9169997
  92.2478734  12.8584041 109.1236937  86.6789992   9.7834990  99.0449997
  85.9669992  10.3184990  98.6939997  87.3699992   9.8384990  98.3849997
  86.6748696   9.8642591  98.9076372  86.7329992   8.2404990  96.0839997
  87.4339992   8.2634990  96.7349997  87.0349992   7.6124990  95.4279997
  86.8698282   8.1587350  96.0844478  94.0479992   9.1614990 107.3389997
  93.3959992   9.8554990 107.4279997  94.5129992   9.3714990 106.5289997
  94.0215357   9.2849544 107.2417056  90.0849992   9.9924990  99.9969997
  89.3529992  10.2214990 100.5699997  90.5319992   9.2794990 100.4519997
  90.0452753   9.9273984 100.1369698  89.9819992   8.1674990 109.0649997
  90.0619992   8.9304990 109.6369997  89.3809992   8.4464990 108.3739997
  89.9117115   8.3097707 109.0499631  81.7299992  10.6234990 101.8799997
  81.3999992  10.2524990 101.0609997  82.3179992   9.9524990 102.2259997
  81.7644056  10.4821257 101.8149035  83.0969992  14.0514990 104.5609997
  83.0019992  13.4724990 103.8039997  83.8259992  13.6804990 105.0569997
  83.1826161  13.9220902 104.5245192 113.4579992   1.1014990  94.4659997
 113.8079992   0.4474990  93.8599997 113.6049992   1.9384990  94.0259997
 113.5257192   1.1252545  94.3236712  82.0969992   9.3914990 105.5129997
  82.6619992   9.5134990 104.7499997  82.4149992  10.0294990 106.1519997
  82.2173430   9.4944448 105.4949094  88.4059992  14.8954990 106.2469997
  88.1649992  15.5574990 106.8949997  88.2079992  14.0604990 106.6719997
  88.3462662  14.8732704 106.3931008  88.9559992   9.1554990  97.6819997
  89.5349992   9.3054990  98.4289997  89.3699992   9.6254990  96.9589997
  89.0913122   9.2396288  97.6865024  79.8969992   9.9894990 109.4589997
  79.9669992  10.6404990 110.1569997  79.0059992  10.0924990 109.1239997
  79.7861802  10.0924769 109.5092231  86.6819992  15.8914990 101.1179997
  87.1559992  16.1874990 101.8949997  86.1189992  16.6304990 100.8839997
  86.6708460  16.0318336 101.1927626  92.6539992   0.9054990  97.4949997
  91.7539992   1.0434990  97.7899997  92.9059992   1.7364990  97.0929997
  92.5647355   1.0368200  97.4810539  80.7199992   9.6924990  99.4689997
  80.4279992  10.4604990  98.9779997  80.0459992   9.0334990  99.3059997
  80.5888843   9.7084537  99.3797695  93.8439992  15.2714990  95.8719997
  93.9169992  16.2104990  96.0419997  94.7489992  14.9664990  95.8149997
  93.9764168  15.3588531  95.8875736  76.8129992  12.0554990 108.2839997
  76.3119992  12.0274990 107.4689997  76.8189992  11.1504990 108.5939997
  76.7451690  11.9292234 108.2142770  76.5639992  14.8364990 105.1679997
  77.5099992  14.6914990 105.1489997  76.4509992  15.6204990 105.7049997
  76.6783578  14.9226708 105.2380300 111.1479992   3.0654990  80.9489997
 111.3299992   2.6164990  81.7739997 110.5479992   2.4814990  80.4849997
 111.0918187   2.9250563  80.9992721  85.7399992  15.0764990 109.7259997
  85.8269992  15.9024990 110.2009997  84.8759992  14.7464990 109.9749997
  85.6351944  15.1449871 109.8246558  86.1539992  18.8484990  99.5319997
  86.0789992  18.7274990  98.5859997  86.1869992  19.7974990  99.6509997
  86.1481862  18.9602492  99.4184840  79.8079992  17.6374990 101.3129997
  79.9599992  17.2894990 102.1919997  78.9569992  17.2804990 101.0579997
  79.7137899  17.5416749 101.3987322  89.2559992  18.0024990  96.5349997
  89.6309992  17.2584990  96.0639997  89.2599992  17.7324990  97.4529997
  89.3078969  17.8640920  96.5946475  88.9249992  17.9284990  99.2839997
  87.9899992  18.0284990  99.4629997  89.2049992  17.2184990  99.8619997
  88.8349270  17.8462300  99.3865984  79.0619992  13.3794990 109.3269997
  79.2779992  13.0174990 110.1869997  78.2069992  13.0044990 109.1169997
  78.9759349  13.2792914 109.4162134  81.6809992   1.8494990 105.3229997
  80.8189992   1.7624990 104.9149997  81.6589992   2.7054990 105.7499997
  81.5600953   1.9533558 105.3249262  86.3439992   1.5714990 108.6969997
  86.7639992   1.1564990 109.4499997  85.4109992   1.3924990 108.8139997
  86.2753736   1.4904921 108.8158950  89.6699992   5.3264990 109.5509997
  89.1559992   5.2014990 110.3479997  89.5149992   6.2394990 109.3059997
  89.5786643   5.4327068 109.6270624  90.4329992  10.1874990  95.3119997
  90.4749992   9.9654990  94.3819997  91.2819992  10.5864990  95.5019997
  90.5535253  10.2110510  95.2103804  96.6779992   3.8814990  85.4799997
  97.1229992   3.0894990  85.7819997  97.1439992   4.5974990  85.9109997
  96.8019059   3.8699485  85.5796061  86.0059992   4.0634990  95.9819997
  85.7519992   4.0824990  96.9049997  85.7489992   3.1924990  95.6809997
  85.9365133   3.9483121  96.0675065  81.7719992   6.8144990 106.4179997
  81.1299992   6.7744990 107.1269997  81.8089992   7.7414990 106.1799997
  81.6891659   6.9342540 106.4828463  81.7689992   7.0354990 101.3299997
  80.8759992   6.6954990 101.2709997  82.2199992   6.6584990 100.5739997
  81.7077185   6.9380220 101.2197698  87.3049992   7.4514990 100.1469997
  86.8959992   8.2664990  99.8549997  88.0249992   7.3114990  99.5319997
  87.3463946   7.5439963 100.0239616  88.3089992   6.8974990 102.9609997
  88.1139992   7.5034990 102.2459997  88.4909992   6.0644990 102.5259997
  88.3069272   6.8677955 102.8044075  79.5219992   7.1354990 108.2849997
  79.4839992   7.5354990 109.1529997  79.0309992   6.3184990 108.3749997
  79.4504246   7.0798842 108.4161171  82.8879992   4.5094990  95.0829997
  82.4569992   4.0644990  95.8129997  82.1699992   4.8804990  94.5709997
  82.7319363   4.4987979  95.1136194  76.1299992   4.2514990 102.1349997
  76.7609992   4.2224990 102.8549997  76.5799992   3.8264990 101.4049997
  76.2770905   4.1900839 102.1347479  77.4039992   4.9974990  97.5589997
  77.8789992   5.5884990  96.9739997  76.6869992   5.5274990  97.9059997
  77.3720406   5.1501011  97.5258495  87.5729992   8.5354990 107.6319997
  87.8969992   7.9044990 106.9889997  87.1329992   8.0014990 108.2929997
  87.5578707   8.3768261 107.6333195  94.9819992   6.8804990  86.5489997
  95.4739992   6.6594990  85.7589997  95.3439992   7.7204990  86.8299997
  95.0983429   6.9638220  86.4787918  84.3509992   4.4634990 102.4159997
  83.4399992   4.5204990 102.7049997  84.8559992   4.4034990 103.2269997
  84.2946873   4.4631838 102.5651190  79.1789992   6.0924990 101.2429997
  78.2899992   6.1914990 100.9029997  79.4749992   5.2504990 100.8969997
  79.0974001   5.9922473 101.1497318  82.8319992   6.0924990  98.8989997
  83.7639992   6.2214990  99.0769997  82.6169992   6.7614990  98.2499997
  82.9304245   6.2006452  98.8355602  88.7559992   3.6984990 105.6799997
  88.0789992   3.8294990 106.3439997  88.2699992   3.5434990 104.8699997
  88.5977265   3.6954665 105.6613380  81.5059992   7.2864990  96.4659997
  80.9639992   6.9074990  95.7749997  82.3399992   7.4814990  96.0369997
  81.5444283   7.2609383  96.3134298  85.6709992   7.2504990 104.3029997
  86.2349992   6.7044990 103.7559997  85.5229992   6.7294990 105.0919997
  85.7283037   7.1051798 104.3347212  80.6729992   3.3874990 100.7209997
  80.3549992   2.4844990 100.6859997  81.4539992   3.3894990 100.1689997
  80.7351560   3.2641148 100.6414975  84.2969992   5.6394990 106.7169997
  83.4619992   6.0934990 106.8269997  84.8209992   5.9154990 107.4689997
  84.2535070   5.7389677 106.8337134  84.8409992  11.8524990  98.4019997
  84.0959992  11.3444990  98.0789997  84.7069992  11.9014990  99.3479997
  84.7208633  11.7895714  98.4857563  91.9909992  10.9854990 107.1879997
  92.6329992  11.4414990 106.6449997  91.1609992  11.0984990 106.7259997
  91.9667352  11.0633223 107.0510234 112.9779992   3.2104990  92.8149997
 112.0609992   3.4814990  92.7789997 113.1009992   2.6754990  92.0309997
 112.8690828   3.1752711  92.7040767  88.7389992   4.6664990  96.6009997
  87.7999992   4.7774990  96.4499997  89.0359992   5.5224990  96.9069997
  88.6506371   4.7975327  96.6217362  86.3609992  12.0364990 109.6389997
  86.0149992  11.6544990 110.4449997  86.1609992  12.9694990 109.7099997
  86.2865399  12.1103489 109.7590401  89.4569992   6.5334990  98.2619997
  90.3489992   6.3954990  98.5809997  89.5139992   7.3244990  97.7249997
  89.5867380   6.6214777  98.2330981  79.9659992  11.1474990 104.1709997
  80.7109992  11.1444990 103.5699997  80.0439992  10.3234990 104.6529997
  80.0784158  11.0357928 104.1539136  86.9669992  13.3104990  97.4269997
  86.6719992  14.1374990  97.8089997  86.2639992  12.6914990  97.6229997
  86.8315855  13.3399458  97.5057633  76.9739992   9.6074990 109.4859997
  77.1969992   9.1894990 110.3179997  76.3719992   8.9954990 109.0639997
  76.9230802   9.4675216 109.5427561  88.6109992  14.4984990 109.5889997
  87.7099992  14.6814990 109.3209997  88.6449992  14.7574990 110.5099997
  88.4923021  14.5585505 109.6768206  94.3419992   6.7424990  97.9559997
  93.7879992   6.3464990  97.2839997  94.4429992   7.6534990  97.6789997
  94.2797084   6.8113565  97.8264381  92.6369992  15.5284990  98.4209997
  92.2649992  14.7034990  98.7309997  92.9149992  15.3454990  97.5239997
  92.6235997  15.3906160  98.3421551  89.7979992  10.3364990 105.4429997
  88.8699992  10.1054990 105.4159997  90.2489992   9.5594990 105.1129997
  89.7318165  10.1997785 105.3946772 110.0659992  18.1224990  82.5489997
 110.7179992  17.7744990  81.9409997 110.5769992  18.6104990  83.1949997
 110.2242872  18.1408248  82.5530964  82.3409992  14.6654990 101.5759997
  82.8679992  15.4384990 101.3749997  81.4609992  14.8894990 101.2739997
  82.2941793  14.8016652 101.5076304  78.0959992   9.5274990  96.1629997
  78.7119992  10.1544990  96.5419997  77.2339992   9.8434990  96.4339997
  78.0638195   9.6560810  96.2515369  83.7679992  12.3284990 101.1519997
  83.5269992  13.2534990 101.1939997  83.0279992  11.8694990 101.5479997
  83.6348934  12.3930881 101.2113191  84.2829992  16.4774990 107.4669997
  84.6459992  17.3314990 107.2339997  84.8149992  16.1854990 108.2079997
  84.4045141  16.5548907 107.5352079  82.4509992  17.3494990 100.6969997
  81.5019992  17.4554990 100.7489997  82.8029992  18.1704990 101.0419997
  82.3686214  17.4749361 100.7507317  87.8269992  12.5764990 107.1679997
  87.4009992  12.3484990 107.9939997  88.4079992  11.8374990 106.9849997
  87.8471587  12.4454084 107.2564111  90.0299992  13.5054990  96.2419997
  90.3829992  13.1254990  97.0459997  89.0809992  13.4114990  96.3279997
  89.9500985  13.4407330  96.3637738  90.4859992  17.1284990 109.6369997
  89.8839992  16.5724990 109.1419997  90.7669992  17.7954990 109.0109997
  90.4415757  17.1425755 109.4845657  94.5329992  17.9844990  96.4429997
  95.2769992  18.5704990  96.3029997  93.8389992  18.5534990  96.7759997
  94.5409809  18.1415830  96.4688572  78.6079992   4.3614990 109.0439997
  77.7149992   4.6994990 108.9769997  78.5089992   3.5054990 109.4619997
  78.4725241   4.2920941 109.0912982  95.2589992   1.8764990  88.9479997
  94.5939992   1.6304990  89.5909997  94.8159992   2.4984990  88.3709997
  95.1081168   1.9269225  88.9579830  90.8959992  12.1774990  98.4679997
  90.6189992  11.4494990  99.0239997  91.8229992  12.2964990  98.6739997
  90.9834181  12.0940068  98.5718972  78.2589992  16.1654990 107.4789997
  78.4759992  15.2334990 107.4479997  78.5059992  16.4404990 108.3629997
  78.3220543  16.0750877 107.5941412  84.1209992  14.6174990  94.6889997
  84.3599992  13.8684990  94.1409997  83.8519992  14.2294990  95.5209997
  84.1172804  14.4626524  94.7266352  83.0579992  14.1874990  97.1449997
  83.2049992  13.6674990  97.9349997  83.0549992  15.0944990  97.4509997
  83.0777300  14.2388975  97.2945877  79.5109992  11.4394990  97.6549997
  78.8249992  11.7924990  98.2219997  80.0339992  12.2024990  97.4089997
  79.4879033  11.5908757  97.6992644  87.3419992   4.1024990 107.9339997
  88.0409992   4.1764990 108.5839997  86.9619992   3.2374990 108.0889997
  87.3862095   3.9957402 108.0437982  88.1269992   3.7544990  99.0309997
  88.3469992   4.2254990  98.2279997  88.6849992   4.1484990  99.7019997
  88.2325851   3.8723272  99.0116134  85.7959992  15.8844990  97.8939997
  84.9789992  16.3814990  97.9469997  86.3249992  16.3604990  97.2539997
  85.7557898  16.0168123  97.8147274  85.3269992   5.4824990  99.8659997
  86.1389992   5.9864990  99.9119997  85.0819992   5.3374990 100.7799997
  85.4051091   5.5319366  99.9958552  85.8629992   6.4684990 109.0509997
  85.9819992   7.0424990 109.8079997  86.5179992   5.7804990 109.1659997
  85.9678684   6.4540205 109.1701656  97.4509992  15.0514990  93.0919997
  96.6299992  15.2264990  92.6319997  97.1989992  14.9784990  94.0129997
  97.3046173  15.0655806  93.1534954  86.2109992   2.5634990 100.8039997
  85.8639992   3.1804990 101.4489997  86.8689992   3.0644990 100.3229997
  86.2525290   2.7156384 100.8271635  83.1339992  16.9284990  97.8759997
  83.2949992  17.7284990  97.3749997  82.9369992  17.2354990  98.7609997
  83.1293919  17.0794140  97.9270988  81.8679992   3.6264990  97.4919997
  81.7849992   4.5144990  97.8379997  82.7579992   3.3614990  97.7229997
  81.9769751   3.7122482  97.5706066  92.0669992   4.3754990 109.8859997
  91.1509992   4.6374990 109.7979997  92.4029992   4.3724990 108.9889997
  91.9869789   4.4109637 109.7527829  90.6689992   8.1254990 103.9819997
  89.8719992   7.7104990 103.6529997  91.1139992   7.4354990 104.4729997
  90.6200317   7.9753197 104.0033557  80.1269992  14.0534990  96.5519997
  80.7189992  14.7534990  96.8279997  80.5859992  13.6204990  95.8329997
  80.2701172  14.0907371  96.4925163  78.4429992   6.7184990  95.6679997
  78.3979992   7.6574990  95.8469997  77.5549992   6.4824990  95.3979997
  78.3168472   6.8151946  95.6560282  91.7559992  17.3814990 105.6039997
  91.5999992  18.0604990 104.9469997  92.6879992  17.4534990 105.8069997
  91.8607328  17.4841586 105.5415529  79.2509992   1.4994990 104.3409997
  79.0219992   1.5584990 103.4139997  78.8079992   0.7084990 104.6479997
  79.1597387   1.4006412 104.2555223  78.1809992  15.4404990 100.5019997
  77.3489992  15.9124990 100.5289997  78.7269992  15.9504990  99.9029997
  78.1408710  15.5740317 100.4247570 100.4049992  16.0254990  89.3509997
  99.9799992  16.8354990  89.0679997 101.3089992  16.1114990  89.0489997
 100.4691002  16.1478728  89.2714798  86.1589992  16.4804990  94.8269997
  85.5149992  15.8494990  95.1489997  86.9209992  15.9494990  94.5949997
  86.1738260  16.3223035  94.8397298  90.7629992  16.2974990  95.0609997
  91.0459992  15.5024990  95.5139997  91.5029992  16.5304990  94.4999997
  90.9017295  16.2202349  95.0471469  81.7179992  12.2064990  94.9179997
  81.7819992  11.4124990  95.4489997  82.3709992  12.0884990  94.2289997
  81.8151168  12.0817748  94.8975119  87.0699992  13.2534990  94.6539997
  86.8019992  13.4344990  95.5549997  86.8639992  12.3284990  94.5229997
  87.0054251  13.1531528  94.7596809  89.7669992  11.7484990 109.6019997
  90.5119992  12.3374990 109.4819997  89.0089992  12.3304990 109.6649997
  89.7665185  11.9077000 109.5940940  82.8669992  10.1794990  97.2239997
  82.4079992   9.6954990  97.9099997  83.1219992   9.5104990  96.5879997
  82.8386178  10.0228511  97.2319785  82.1559992   8.0724990 109.5799997
  81.5379992   8.7464990 109.8609997  82.4999992   8.3934990 108.7469997
  82.1178181   8.2083233 109.5058266  83.9379992   8.4224990  95.4869997
  83.7579992   8.2674990  94.5589997  84.8879992   8.5304990  95.5309997
  84.0418016   8.4159264  95.3662123  93.3279992  10.7764990  94.9319997
  93.0549992  10.3524990  94.1189997  93.3679992  11.7084990  94.7149997
  93.2960201  10.8443523  94.7913548  82.9079992   3.7964990 108.1549997
  83.4439992   4.2484990 107.5029997  82.0559992   3.6884990 107.7329997
  82.8661648   3.8437883 108.0086395 104.7159992  17.4244990  92.3099997
 104.9009992  17.0914990  93.1879997 105.5629992  17.7344990  91.9879997
 104.8557291  17.4208214  92.3866140  84.4899992   9.2364990 108.3949997
  85.2409992   9.0804990 107.8219997  84.1509992  10.0884990 108.1189997
  84.5469052   9.3302745 108.2793469  83.7139992   1.2534990 108.5869997
  83.6159992   2.1994990 108.4809997  82.9709992   0.8804990 108.1109997
  83.6002363   1.3325987 108.5082029  83.8359992  19.1124990  96.4879997
  84.7689992  19.2704990  96.6319997  83.5709992  19.7884990  95.8629997
  83.9279846  19.2254567  96.4232930  77.4039992  13.7494990  95.9709997
  78.3179992  13.8284990  96.2439997  77.4109992  13.0624990  95.3039997
  77.5300769  13.6674735  95.9182366  76.0529992  19.1424990 101.0479997
  75.4059992  18.6804990 100.5149997  76.4079992  18.4704990 101.6309997
  76.0123861  18.9884707 101.0537939  76.9229992  17.2224990 102.8529997
  76.5889992  16.3424990 103.0249997  77.1449992  17.5684990 103.7169997
  76.9072677  17.1487365 102.9934252  94.4719992  18.0324990 105.8329997
  94.4499992  18.2174990 106.7719997  95.1619992  18.6004990 105.4919997
  94.5623439  18.1346898 105.9154774  94.0349992  17.5994990 108.7549997
  93.5479992  16.8634990 108.3839997  94.5839992  17.2054990 109.4329997
  94.0426101  17.4456267 108.7959034  93.7869992  11.6454990  98.9069997
  94.6369992  12.0664990  99.0349997  93.7919992  10.9054990  99.5149997
  93.9039745  11.6031347  99.0066479  94.1809992   9.6994990 100.7309997
  93.4549992   9.2194990 101.1289997  94.7619992   9.9044990 101.4629997
  94.1602504   9.6615592 100.8844199 107.0609992  18.7104990  91.5539997
 107.7379992  18.0774990  91.3139997 107.3829992  19.1114990  92.3619997
 107.1971280  18.6780638  91.6303190  93.9399992  12.4844990 105.6789997
  94.7739992  12.1064990 105.3979997  94.0519992  13.4274990 105.5599997
  94.0691917  12.5602954 105.6244844  92.4259992  15.3624990 107.9859997
  91.7789992  15.6874990 108.6109997  91.9089992  14.9214990 107.3109997
  92.2674068  15.3474726 107.9804918  94.4489992   9.6004990  97.1219997
  93.9279992   9.9564990  96.4029997  94.4159992  10.2754990  97.7999997
  94.3731525   9.7405273  97.1151408  92.7979992   6.8394990  95.6729997
  92.8949992   7.5064990  94.9929997  92.6579992   6.0244990  95.1909997
  92.7923428   6.8205667  95.5148311  91.9679992   8.2204990 101.2939997
  91.8179992   7.2754990 101.2739997  91.6139992   8.5014990 102.1379997
  91.8996351   8.1291656 101.4053202  77.0029992  10.2984990 105.3039997
  77.1869992  10.2164990 104.3689997  77.8519992  10.1744990 105.7279997
  77.1430259  10.2704915 105.2331771  92.0459992   4.2474990  94.7899997
  92.6559992   3.8764990  95.4269997  91.2089992   3.8264990  94.9859997
  92.0163704   4.1397942  94.9037077  91.6779992   5.8024990  99.7559997
  91.9579992   4.8954990  99.8809997  92.4369992   6.2364990  99.3669997
  91.8189471   5.7370654  99.7205052  92.2899992   6.3844990 105.1919997
  93.2229992   6.5964990 105.1579997  92.0549992   6.4854990 106.1149997
  92.3858357   6.4271303 105.3120232  92.3189992   7.1214990 107.9679997
  91.4759992   7.3894990 108.3339997  92.7619992   7.9434990 107.7569997
  92.2634358   7.2693294 107.9895999 111.9789992   1.3004990  90.6339997
 111.1659992   1.6254990  90.2459997 112.2119992   0.5394990  90.1009997
 111.8992566   1.2421570  90.5089196  92.2919992   3.0654990  99.8049997
  92.4739992   2.6164990 100.6299997  91.6919992   2.4814990  99.3409997
  92.2358187   2.9250563  99.8552721  77.8219992   3.8814990 104.3359997
  78.2669992   3.0894990 104.6379997  78.2879992   4.5974990 104.7669997
  77.9459059   3.8699485 104.4356061  76.1259992   6.8804990 105.4049997
  76.6179992   6.6594990 104.6149997  76.4879992   7.7204990 105.6859997
  76.2423429   6.9638220 105.3347918  94.1579992   3.1334990  96.3329997
  94.5709992   2.4124990  95.8569997  94.8399992   3.8024990  96.3909997
  94.3065712   3.1254304  96.2758247  76.4389992   3.1384990  99.4599997
  75.5139992   3.3464990  99.3299997  76.8929992   3.6224990  98.7699997
  76.3737401   3.2323895  99.3489433  91.2099992  18.1224990 101.4049997
  91.8619992  17.7744990 100.7969997  91.7209992  18.6104990 102.0509997
  91.3682872  18.1408248 101.4090964  76.4029992   1.8764990 107.8039997
  75.7379992   1.6304990 108.4469997  75.9599992   2.4984990 107.2269997
  76.2521168   1.9269225 107.8139830  81.5489992  16.0254990 108.2069997
  81.1239992  16.8354990 107.9239997  82.4529992  16.1114990 107.9049997
  81.6131002  16.1478728 108.1274798  93.1229992   1.3004990 109.4899997
  92.3099992   1.6254990 109.1019997  93.3559992   0.5394990 108.9569997
  93.0432566   1.2421570 109.3649196  78.9509992  19.2824990 108.2539997
  78.2299992  19.7224990 107.8029997  78.5849992  19.0314990 109.1029997
  78.8029785  19.3087691 108.3069849  97.8069992  19.2824990  89.3979997
  97.0859992  19.7224990  88.9469997  97.4409992  19.0314990  90.2469997
  97.6589785  19.3087691  89.4509849  81.4179992  18.8824990 107.2839997
  80.5529992  18.9544990 107.6879997  81.3629992  19.4294990 106.4999997
  81.2922066  18.9662678 107.2333371  86.1289992  18.7704990 106.4599997
  85.6719992  19.2994990 105.8059997  86.2909992  19.3734990 107.1849997
  86.0883919  18.9243990 106.4685740  88.4559992  17.6484990 107.4049997
  87.5519992  17.8134990 107.1389997  88.8849992  18.5014990 107.3389997
  88.3902017  17.7864184 107.3596495  91.0599992  19.2184990 107.6999997
  90.8789992  20.1344990 107.4889997  91.2369992  18.8074990 106.8529997
  91.0591377  19.2883365 107.5567178  78.3659992  17.9054990 105.1649997
  78.3469992  17.4794990 106.0219997  79.1699992  17.5864990 104.7559997
  78.4721393  17.8040297 105.2270155  80.5069992  16.6154990 103.8199997
  80.2879992  15.6984990 103.9889997  81.3309992  16.7554990 104.2859997
  80.5884637  16.5089586 103.9061414  83.0439992  17.0854990 104.6679997
  83.2569992  16.1974990 104.3809997  83.1089992  17.0504990 105.6229997
  83.0819075  16.9593318 104.7577355  86.5529992   2.7494990 103.8129997
  85.8779992   2.1194990 104.0679997  87.1169992   2.2654990 103.2099997
  86.5369558   2.5979283 103.7663451  91.6949992   0.8564990 103.9249997
  92.2989992   1.4044990 103.4239997  90.8259992   1.1754990 103.6849997
  91.6601126   0.9747070 103.8239180  93.4219992   1.9954990 102.2589997
  94.0339992   1.4814990 101.7319997  93.8049992   2.8724990 102.2819997
  93.5573867   2.0437613 102.1900888 100.2739992  18.8824990  88.4279997
  99.4089992  18.9544990  88.8319997 100.2189992  19.4294990  87.6439997
 100.1482066  18.9662678  88.3773371  78.8789992   1.3834990 101.6349997
  78.1019992   1.1484990 101.1269997  79.4099992   0.5864990 101.6439997
  78.8444443   1.2436721 101.5667200  77.7159992   1.1814990  97.4379997
  78.1549992   1.7924990  96.8469997  77.0819992   1.7194990  97.9119997
  77.6904104   1.3379233  97.4211376  83.4589992   1.3094990 101.4479997
  84.3329992   1.6984990 101.4179997  83.3229992   1.0944990 102.3709997
  83.5603125   1.3337120 101.5686523  89.0149992   1.3394990 103.0969997
  89.0919992   1.4354990 102.1479997  88.7399992   0.4324990 103.2259997
  88.9883407   1.2299188 102.9843532  90.3689992   1.3654990  98.7899997
  89.6659992   1.9804990  98.5799997  89.9239992   0.5284990  98.9209997
  90.2126550   1.3364679  98.7789819  77.6169992  17.1294990  98.3359997
  76.9319992  17.0914990  97.6679997  77.6199992  18.0414990  98.6239997
  77.5237358  17.2476744  98.2836145  79.5769992   3.0974990  95.8809997
  80.0679992   2.4674990  95.3529997  80.1999992   3.3934990  96.5439997
  79.7285459   3.0512419  95.8983667  84.6029992   3.3904990  98.3379997
  84.7809992   2.7434990  99.0209997  84.5489992   4.2244990  98.8049997
  84.6200678   3.4146615  98.4946283  86.4809992  18.3384990  96.7329997
  87.3469992  18.7054990  96.5549997  86.2339992  17.8994990  95.9199997
  86.5662041  18.3293648  96.5985958  93.1899992  17.9014990  99.4129997
  92.9959992  17.1534990  98.8479997  93.1509992  18.6594990  98.8289997
  93.1581907  17.9015770  99.2568077 104.9849992  18.7704990  87.6039997
 104.5279992  19.2994990  86.9499997 105.1469992  19.3734990  88.3289997
 104.9443919  18.9243990  87.6125740  79.4349992  18.0494990  95.3609997
  79.1669992  18.3354990  96.2339997  80.2059992  17.5034990  95.5129997
  79.5025600  18.0148341  95.5011482 106.8139992  10.5394990 101.5929997
 106.9029992  11.4834990 101.4609997 106.1749992  10.2644990 100.9349997
 106.7398319  10.6314984 101.4860276 105.7469992   9.7944990 105.0119997
 105.7079992   9.1484990 105.7169997 105.4239992   9.3274990 104.2409997
 105.6980199   9.6430089 105.0042865  98.1149992   9.4084990 106.6049997
  98.1559992   8.7834990 107.3289997  98.8179992  10.0324990 106.7869997
  98.2156054   9.4073262 106.7286311 109.4529992  12.7334990 103.3139997
 109.0119992  12.0134990 103.7639997 109.4399992  13.4544990 103.9439997
 109.3908398  12.7323187 103.4607734  99.0389992  13.8584990 105.1399997
  98.6689992  13.0564990 104.7709997  99.9799992  13.6904990 105.1869997
  99.1155630  13.7258680 105.0957873  95.6489992   7.5184990 100.5329997
  95.2009992   8.3644990 100.5149997  95.0879992   6.9394990 100.0179997
  95.5118546   7.5559004 100.4608874  96.3589992   9.6804990 102.6589997
  96.5729992   8.9104990 103.1859997  97.0969992   9.7704990 102.0559997
  96.4880073   9.5873546 102.6495786 106.5639992  17.8374990 103.5259997
 107.1839992  17.1614990 103.2529997 106.3559992  17.6194990 104.4339997
 106.6207360  17.7154792 103.6114387 104.1359992  12.2264990 105.4179997
 104.4399992  11.5404990 104.8239997 104.8579992  12.3454990 106.0359997
 104.2751152  12.1487201 105.4202106 107.3119992  17.6484990  88.5489997
 106.4079992  17.8134990  88.2829997 107.7409992  18.5014990  88.4829997
 107.2462017  17.7864184  88.5036495 112.7989992   3.8284990 106.2789997
 112.8479992   4.4384990 107.0149997 113.2249992   4.2894990 105.5559997
 112.8632851   3.9743266 106.2820532 107.2769992   6.6204990 105.7459997
 107.4189992   5.6744990 105.7659997 107.1709992   6.8274990 104.8169997
 107.2821158   6.5189722 105.6232241 100.4319992   4.7224990 103.0179997
 100.4749992   5.5824990 102.5999997  99.9739992   4.1694990 102.3849997
 100.3759613   4.7655689 102.8751276 108.1539992   4.8534990 101.4189997
 108.7999992   4.5244990 102.0439997 108.6639992   5.3704990 100.7959997
 108.3114392   4.8783710 101.4203248  97.0519992   7.1194990 103.7799997
  97.7059992   6.5694990 104.2119997  97.0759992   6.8454990 102.8639997
  97.1447022   7.0072005 103.7151698 102.2079992   8.6694990 102.9959997
 102.8239992   8.1424990 103.5049997 101.6219992   8.0294990 102.5919997
 102.2130652   8.5108919 103.0110277 113.1909992   5.3064990 108.5149997
 112.5019992   5.9644990 108.4199997 113.2059992   5.1084990 109.4519997
 113.0987756   5.3697614 108.6285795  99.2419992   3.6404990 107.0919997
  99.0229992   4.1704990 106.3259997  98.5739992   3.8664990 107.7399997
  99.1217271   3.7436508 107.0746206 106.6109992  13.1404990 100.6359997
 106.3149992  12.8174990  99.7849997 106.2869992  14.0404990 100.6779997
 106.5266501  13.2179058 100.5250893 101.8109992  11.3154990 107.3799997
 101.0709992  11.9144990 107.4829997 102.5249992  11.8694990 107.0639997
 101.8063288  11.4722368 107.3513787 109.9159992  19.2184990  88.8439997
 109.7349992  20.1344990  88.6329997 110.0929992  18.8074990  87.9969997
 109.9151377  19.2883365  88.7007178 109.9179992   4.1444990 103.3999997
 109.7029992   3.3784990 103.9319997 110.5739992   4.6164990 103.9129997
 109.9772451   4.1034472 103.5421699  98.8359992   5.5324990 105.0449997
  99.4489992   6.1654990 105.4179997  99.3479992   5.0604990 104.3879997
  98.9891680   5.5554006 105.0072830 100.2179992  13.2804990 108.1669997
 100.2129992  14.1594990 107.7889997  99.3649992  13.1964990 108.5919997
 100.1019199  13.3895901 108.1726942  96.3399992  12.9514990  98.9489997
  96.0679992  13.1804990  98.0599997  96.3849992  13.7884990  99.4089997
  96.3088709  13.0961069  98.8896089 109.9649992  14.5724990 105.6619997
 109.0229992  14.6314990 105.8229997 110.2409992  15.4784990 105.5249997
 109.8735771  14.7030270 105.6654827 110.2649992   2.8594990 107.0789997
 109.5289992   3.4694990 107.0409997 110.9489992   3.2744990 106.5529997
 110.2565885   2.9991924 107.0026931 103.2679992   0.9454990 104.5449997
 103.1509992  -0.0025010 104.4909997 102.4129992   1.2784990 104.8179997
 103.1363691   0.8605842 104.5745072 108.2169992  16.3534990 102.2869997
 108.6419992  15.6464990 101.8019997 108.5339992  17.1554990 101.8699997
 108.3180266  16.3650201 102.1642461 109.3759992  14.2544990 100.7959997
 109.1189992  13.5644990 100.1839997 109.4469992  13.8114990 101.6409997
 109.3504322  14.1001568 100.8265372 111.0619992  12.8214990 109.2729997
 111.2019992  12.2294990 108.5339997 111.2299992  13.6944990 108.9169997
 111.1038734  12.8584041 109.1236937  97.2219992  17.9054990  86.3089997
  97.2029992  17.4794990  87.1659997  98.0259992  17.5864990  85.8999997
  97.3281393  17.8040297  86.3710155 105.5349992   9.7834990  99.0449997
 104.8229992  10.3184990  98.6939997 106.2259992   9.8384990  98.3849997
 105.5308696   9.8642591  98.9076372 105.5889992   8.2404990  96.0839997
 106.2899992   8.2634990  96.7349997 105.8909992   7.6124990  95.4279997
 105.7258282   8.1587350  96.0844478 112.9039992   9.1614990 107.3389997
 112.2519992   9.8554990 107.4279997 113.3689992   9.3714990 106.5289997
 112.8775357   9.2849544 107.2417056 108.9409992   9.9924990  99.9969997
 108.2089992  10.2214990 100.5699997 109.3879992   9.2794990 100.4519997
 108.9012753   9.9273984 100.1369698 108.8379992   8.1674990 109.0649997
 108.9179992   8.9304990 109.6369997 108.2369992   8.4464990 108.3739997
 108.7677115   8.3097707 109.0499631 100.5859992  10.6234990 101.8799997
 100.2559992  10.2524990 101.0609997 101.1739992   9.9524990 102.2259997
 100.6204056  10.4821257 101.8149035 101.9529992  14.0514990 104.5609997
 101.8579992  13.4724990 103.8039997 102.6819992  13.6804990 105.0569997
 102.0386161  13.9220902 104.5245192 100.9529992   9.3914990 105.5129997
 101.5179992   9.5134990 104.7499997 101.2709992  10.0294990 106.1519997
 101.0733430   9.4944448 105.4949094 107.2619992  14.8954990 106.2469997
 107.0209992  15.5574990 106.8949997 107.0639992  14.0604990 106.6719997
 107.2022662  14.8732704 106.3931008 107.8119992   9.1554990  97.6819997
 108.3909992   9.3054990  98.4289997 108.2259992   9.6254990  96.9589997
 107.9473122   9.2396288  97.6865024  99.3629992  16.6154990  84.9639997
  99.1439992  15.6984990  85.1329997 100.1869992  16.7554990  85.4299997
  99.4444637  16.5089586  85.0501414  98.7529992   9.9894990 109.4589997
  98.8229992  10.6404990 110.1569997  97.8619992  10.0924990 109.1239997
  98.6421802  10.0924769 109.5092231 105.5379992  15.8914990 101.1179997
 106.0119992  16.1874990 101.8949997 104.9749992  16.6304990 100.8839997
 105.5268460  16.0318336 101.1927626 111.5099992   0.9054990  97.4949997
 110.6099992   1.0434990  97.7899997 111.7619992   1.7364990  97.0929997
 111.4207355   1.0368200  97.4810539  99.5759992   9.6924990  99.4689997
  99.2839992  10.4604990  98.9779997  98.9019992   9.0334990  99.3059997
  99.4448843   9.7084537  99.3797695 112.6999992  15.2714990  95.8719997
 112.7729992  16.2104990  96.0419997 113.6049992  14.9664990  95.8149997
 112.8324168  15.3588531  95.8875736  95.6689992  12.0554990 108.2839997
  95.1679992  12.0274990 107.4689997  95.6749992  11.1504990 108.5939997
  95.6011690  11.9292234 108.2142770  95.4199992  14.8364990 105.1679997
  96.3659992  14.6914990 105.1489997  95.3069992  15.6204990 105.7049997
  95.5343578  14.9226708 105.2380300 104.5959992  15.0764990 109.7259997
 104.6829992  15.9024990 110.2009997 103.7319992  14.7464990 109.9749997
 104.4911944  15.1449871 109.8246558 105.0099992  18.8484990  99.5319997
 104.9349992  18.7274990  98.5859997 105.0429992  19.7974990  99.6509997
 105.0041862  18.9602492  99.4184840  98.6639992  17.6374990 101.3129997
  98.8159992  17.2894990 102.1919997  97.8129992  17.2804990 101.0579997
  98.5697899  17.5416749 101.3987322 101.8999992  17.0854990  85.8119997
 102.1129992  16.1974990  85.5249997 101.9649992  17.0504990  86.7669997
 101.9379075  16.9593318  85.9017355 108.1119992  18.0024990  96.5349997
 108.4869992  17.2584990  96.0639997 108.1159992  17.7324990  97.4529997
 108.1638969  17.8640920  96.5946475 107.7809992  17.9284990  99.2839997
 106.8459992  18.0284990  99.4629997 108.0609992  17.2184990  99.8619997
 107.6909270  17.8462300  99.3865984  97.9179992  13.3794990 109.3269997
  98.1339992  13.0174990 110.1869997  97.0629992  13.0044990 109.1169997
  97.8319349  13.2792914 109.4162134 100.5369992   1.8494990 105.3229997
  99.6749992   1.7624990 104.9149997 100.5149992   2.7054990 105.7499997
 100.4160953   1.9533558 105.3249262 105.1999992   1.5714990 108.6969997
 105.6199992   1.1564990 109.4499997 104.2669992   1.3924990 108.8139997
 105.1313736   1.4904921 108.8158950 108.5259992   5.3264990 109.5509997
 108.0119992   5.2014990 110.3479997 108.3709992   6.2394990 109.3059997
 108.4346643   5.4327068 109.6270624 109.2889992  10.1874990  95.3119997
 109.3309992   9.9654990  94.3819997 110.1379992  10.5864990  95.5019997
 109.4095253  10.2110510  95.2103804 104.8619992   4.0634990  95.9819997
 104.6079992   4.0824990  96.9049997 104.6049992   3.1924990  95.6809997
 104.7925133   3.9483121  96.0675065 100.6279992   6.8144990 106.4179997
  99.9859992   6.7744990 107.1269997 100.6649992   7.7414990 106.1799997
 100.5451659   6.9342540 106.4828463 100.6249992   7.0354990 101.3299997
  99.7319992   6.6954990 101.2709997 101.0759992   6.6584990 100.5739997
 100.5637185   6.9380220 101.2197698 105.4089992   2.7494990  84.9569997
 104.7339992   2.1194990  85.2119997 105.9729992   2.2654990  84.3539997
 105.3929558   2.5979283  84.9103451 106.1609992   7.4514990 100.1469997
 105.7519992   8.2664990  99.8549997 106.8809992   7.3114990  99.5319997
 106.2023946   7.5439963 100.0239616 107.1649992   6.8974990 102.9609997
 106.9699992   7.5034990 102.2459997 107.3469992   6.0644990 102.5259997
 107.1629272   6.8677955 102.8044075  98.3779992   7.1354990 108.2849997
  98.3399992   7.5354990 109.1529997  97.8869992   6.3184990 108.3749997
  98.3064246   7.0798842 108.4161171 101.7439992   4.5094990  95.0829997
 101.3129992   4.0644990  95.8129997 101.0259992   4.8804990  94.5709997
 101.5879363   4.4987979  95.1136194  94.9859992   4.2514990 102.1349997
  95.6169992   4.2224990 102.8549997  95.4359992   3.8264990 101.4049997
  95.1330905   4.1900839 102.1347479  96.2599992   4.9974990  97.5589997
  96.7349992   5.5884990  96.9739997  95.5429992   5.5274990  97.9059997
  96.2280406   5.1501011  97.5258495 106.4289992   8.5354990 107.6319997
 106.7529992   7.9044990 106.9889997 105.9889992   8.0014990 108.2929997
 106.4138707   8.3768261 107.6333195 103.2069992   4.4634990 102.4159997
 102.2959992   4.5204990 102.7049997 103.7119992   4.4034990 103.2269997
 103.1506873   4.4631838 102.5651190  98.0349992   6.0924990 101.2429997
  97.1459992   6.1914990 100.9029997  98.3309992   5.2504990 100.8969997
  97.9534001   5.9922473 101.1497318 101.6879992   6.0924990  98.8989997
 102.6199992   6.2214990  99.0769997 101.4729992   6.7614990  98.2499997
 101.7864245   6.2006452  98.8355602 110.5509992   0.8564990  85.0689997
 111.1549992   1.4044990  84.5679997 109.6819992   1.1754990  84.8289997
 110.5161126   0.9747070  84.9679180 107.6119992   3.6984990 105.6799997
 106.9349992   3.8294990 106.3439997 107.1259992   3.5434990 104.8699997
 107.4537265   3.6954665 105.6613380 100.3619992   7.2864990  96.4659997
  99.8199992   6.9074990  95.7749997 101.1959992   7.4814990  96.0369997
 100.4004283   7.2609383  96.3134298 104.5269992   7.2504990 104.3029997
 105.0909992   6.7044990 103.7559997 104.3789992   6.7294990 105.0919997
 104.5843037   7.1051798 104.3347212  99.5289992   3.3874990 100.7209997
  99.2109992   2.4844990 100.6859997 100.3099992   3.3894990 100.1689997
  99.5911560   3.2641148 100.6414975 103.1529992   5.6394990 106.7169997
 102.3179992   6.0934990 106.8269997 103.6769992   5.9154990 107.4689997
 103.1095070   5.7389677 106.8337134 103.6969992  11.8524990  98.4019997
 102.9519992  11.3444990  98.0789997 103.5629992  11.9014990  99.3479997
 103.5768633  11.7895714  98.4857563 110.8469992  10.9854990 107.1879997
 111.4889992  11.4414990 106.6449997 110.0169992  11.0984990 106.7259997
 110.8227352  11.0633223 107.0510234 107.5949992   4.6664990  96.6009997
 106.6559992   4.7774990  96.4499997 107.8919992   5.5224990  96.9069997
 107.5066371   4.7975327  96.6217362 105.2169992  12.0364990 109.6389997
 104.8709992  11.6544990 110.4449997 105.0169992  12.9694990 109.7099997
 105.1425400  12.1103489 109.7590401 108.3129992   6.5334990  98.2619997
 109.2049992   6.3954990  98.5809997 108.3699992   7.3244990  97.7249997
 108.4427380   6.6214777  98.2330981 112.2779992   1.9954990  83.4029997
 112.8899992   1.4814990  82.8759997 112.6609992   2.8724990  83.4259997
 112.4133867   2.0437613  83.3340888  98.8219992  11.1474990 104.1709997
  99.5669992  11.1444990 103.5699997  98.8999992  10.3234990 104.6529997
  98.9344159  11.0357928 104.1539136 105.8229992  13.3104990  97.4269997
 105.5279992  14.1374990  97.8089997 105.1199992  12.6914990  97.6229997
 105.6875855  13.3399458  97.5057633  95.8299992   9.6074990 109.4859997
  96.0529992   9.1894990 110.3179997  95.2279992   8.9954990 109.0639997
  95.7790802   9.4675216 109.5427561 107.4669992  14.4984990 109.5889997
 106.5659992  14.6814990 109.3209997 107.5009992  14.7574990 110.5099997
 107.3483021  14.5585505 109.6768206 113.1979992   6.7424990  97.9559997
 112.6439992   6.3464990  97.2839997 113.2989992   7.6534990  97.6789997
 113.1357084   6.8113565  97.8264381 111.4929992  15.5284990  98.4209997
 111.1209992  14.7034990  98.7309997 111.7709992  15.3454990  97.5239997
 111.4795997  15.3906160  98.3421551 108.6539992  10.3364990 105.4429997
 107.7259992  10.1054990 105.4159997 109.1049992   9.5594990 105.1129997
 108.5878165  10.1997785 105.3946772 101.1969992  14.6654990 101.5759997
 101.7239992  15.4384990 101.3749997 100.3169992  14.8894990 101.2739997
 101.1501793  14.8016652 101.5076304  96.9519992   9.5274990  96.1629997
  97.5679992  10.1544990  96.5419997  96.0899992   9.8434990  96.4339997
  96.9198195   9.6560810  96.2515369 102.6239992  12.3284990 101.1519997
 102.3829992  13.2534990 101.1939997 101.8839992  11.8694990 101.5479997
 102.4908934  12.3930881 101.2113191  97.7349992   1.3834990  82.7789997
  96.9579992   1.1484990  82.2709997  98.2659992   0.5864990  82.7879997
  97.7004443   1.2436721  82.7107200 103.1389992  16.4774990 107.4669997
 103.5019992  17.3314990 107.2339997 103.6709992  16.1854990 108.2079997
 103.2605141  16.5548907 107.5352079 101.3069992  17.3494990 100.6969997
 100.3579992  17.4554990 100.7489997 101.6589992  18.1704990 101.0419997
 101.2246214  17.4749361 100.7507317 106.6829992  12.5764990 107.1679997
 106.2569992  12.3484990 107.9939997 107.2639992  11.8374990 106.9849997
 106.7031587  12.4454084 107.2564111 108.8859992  13.5054990  96.2419997
 109.2389992  13.1254990  97.0459997 107.9369992  13.4114990  96.3279997
 108.8060985  13.4407330  96.3637738 109.3419992  17.1284990 109.6369997
 108.7399992  16.5724990 109.1419997 109.6229992  17.7954990 109.0109997
 109.2975757  17.1425755 109.4845657 113.3889992  17.9844990  96.4429997
 114.1329992  18.5704990  96.3029997 112.6949992  18.5534990  96.7759997
 113.3969809  18.1415830  96.4688572  97.4639992   4.3614990 109.0439997
  96.5709992   4.6994990 108.9769997  97.3649992   3.5054990 109.4619997
  97.3285241   4.2920941 109.0912982 109.7519992  12.1774990  98.4679997
 109.4749992  11.4494990  99.0239997 110.6789992  12.2964990  98.6739997
 109.8394181  12.0940068  98.5718972  97.1149992  16.1654990 107.4789997
  97.3319992  15.2334990 107.4479997  97.3619992  16.4404990 108.3629997
  97.1780543  16.0750877 107.5941412 102.9769992  14.6174990  94.6889997
 103.2159992  13.8684990  94.1409997 102.7079992  14.2294990  95.5209997
 102.9732804  14.4626524  94.7266352 102.3149992   1.3094990  82.5919997
 103.1889992   1.6984990  82.5619997 102.1789992   1.0944990  83.5149997
 102.4163125   1.3337120  82.7126523 101.9139992  14.1874990  97.1449997
 102.0609992  13.6674990  97.9349997 101.9109992  15.0944990  97.4509997
 101.9337300  14.2388975  97.2945877  98.3669992  11.4394990  97.6549997
  97.6809992  11.7924990  98.2219997  98.8899992  12.2024990  97.4089997
  98.3439033  11.5908757  97.6992644 106.1979992   4.1024990 107.9339997
 106.8969992   4.1764990 108.5839997 105.8179992   3.2374990 108.0889997
 106.2422095   3.9957402 108.0437982 106.9829992   3.7544990  99.0309997
 107.2029992   4.2254990  98.2279997 107.5409992   4.1484990  99.7019997
 107.0885851   3.8723272  99.0116134 104.6519992  15.8844990  97.8939997
 103.8349992  16.3814990  97.9469997 105.1809992  16.3604990  97.2539997
 104.6117898  16.0168123  97.8147274 104.1829992   5.4824990  99.8659997
 104.9949992   5.9864990  99.9119997 103.9379992   5.3374990 100.7799997
 104.2611091   5.5319366  99.9958552 104.7189992   6.4684990 109.0509997
 104.8379992   7.0424990 109.8079997 105.3739992   5.7804990 109.1659997
 104.8238684   6.4540205 109.1701656 105.0669992   2.5634990 100.8039997
 104.7199992   3.1804990 101.4489997 105.7249992   3.0644990 100.3229997
 105.1085290   2.7156384 100.8271635 101.9899992  16.9284990  97.8759997
 102.1509992  17.7284990  97.3749997 101.7929992  17.2354990  98.7609997
 101.9853919  17.0794140  97.9270988 100.7239992   3.6264990  97.4919997
 100.6409992   4.5144990  97.8379997 101.6139992   3.3614990  97.7229997
 100.8329751   3.7122482  97.5706066 107.8709992   1.3394990  84.2409997
 107.9479992   1.4354990  83.2919997 107.5959992   0.4324990  84.3699997
 107.8443407   1.2299188  84.1283532 110.9229992   4.3754990 109.8859997
 110.0069992   4.6374990 109.7979997 111.2589992   4.3724990 108.9889997
 110.8429789   4.4109637 109.7527829 109.5249992   8.1254990 103.9819997
 108.7279992   7.7104990 103.6529997 109.9699992   7.4354990 104.4729997
 109.4760317   7.9753197 104.0033556  98.9829992  14.0534990  96.5519997
  99.5749992  14.7534990  96.8279997  99.4419992  13.6204990  95.8329997
  99.1261172  14.0907371  96.4925163  97.2989992   6.7184990  95.6679997
  97.2539992   7.6574990  95.8469997  96.4109992   6.4824990  95.3979997
  97.1728472   6.8151946  95.6560282 110.6119992  17.3814990 105.6039997
 110.4559992  18.0604990 104.9469997 111.5439992  17.4534990 105.8069997
 110.7167328  17.4841586 105.5415529  98.1069992   1.4994990 104.3409997
  97.8779992   1.5584990 103.4139997  97.6639992   0.7084990 104.6479997
  98.0157387   1.4006412 104.2555223  97.0369992  15.4404990 100.5019997
  96.2049992  15.9124990 100.5289997  97.5829992  15.9504990  99.9029997
  96.9968710  15.5740317 100.4247570 105.0149992  16.4804990  94.8269997
 104.3709992  15.8494990  95.1489997 105.7769992  15.9494990  94.5949997
 105.0298260  16.3223035  94.8397298 109.6189992  16.2974990  95.0609997
 109.9019992  15.5024990  95.5139997 110.3589992  16.5304990  94.4999997
 109.7577295  16.2202349  95.0471469 100.5739992  12.2064990  94.9179997
 100.6379992  11.4124990  95.4489997 101.2269992  12.0884990  94.2289997
 100.6711168  12.0817748  94.8975119 109.2249992   1.3654990  79.9339997
 108.5219992   1.9804990  79.7239997 108.7799992   0.5284990  80.0649997
 109.0686550   1.3364679  79.9229819 105.9259992  13.2534990  94.6539997
 105.6579992  13.4344990  95.5549997 105.7199992  12.3284990  94.5229997
 105.8614251  13.1531528  94.7596809 108.6229992  11.7484990 109.6019997
 109.3679992  12.3374990 109.4819997 107.8649992  12.3304990 109.6649997
 108.6225185  11.9077000 109.5940940 101.7229992  10.1794990  97.2239997
 101.2639992   9.6954990  97.9099997 101.9779992   9.5104990  96.5879997
 101.6946178  10.0228511  97.2319785 101.0119992   8.0724990 109.5799997
 100.3939992   8.7464990 109.8609997 101.3559992   8.3934990 108.7469997
 100.9738181   8.2083233 109.5058266 102.7939992   8.4224990  95.4869997
 102.6139992   8.2674990  94.5589997 103.7439992   8.5304990  95.5309997
 102.8978016   8.4159264  95.3662123 112.1839992  10.7764990  94.9319997
 111.9109992  10.3524990  94.1189997 112.2239992  11.7084990  94.7149997
 112.1520201  10.8443523  94.7913548 101.7639992   3.7964990 108.1549997
 102.2999992   4.2484990 107.5029997 100.9119992   3.6884990 107.7329997
 101.7221648   3.8437883 108.0086395 103.3459992   9.2364990 108.3949997
 104.0969992   9.0804990 107.8219997 103.0069992  10.0884990 108.1189997
 103.4029052   9.3302745 108.2793469 102.5699992   1.2534990 108.5869997
 102.4719992   2.1994990 108.4809997 101.8269992   0.8804990 108.1109997
 102.4562363   1.3325987 108.5082029 102.6919992  19.1124990  96.4879997
 103.6249992  19.2704990  96.6319997 102.4269992  19.7884990  95.8629997
 102.7839846  19.2254567  96.4232930  96.4729992  17.1294990  79.4799997
  95.7879992  17.0914990  78.8119997  96.4759992  18.0414990  79.7679997
  96.3797358  17.2476744  79.4276145  96.2599992  13.7494990  95.9709997
  97.1739992  13.8284990  96.2439997  96.2669992  13.0624990  95.3039997
  96.3860769  13.6674735  95.9182366  94.9089992  19.1424990 101.0479997
  94.2619992  18.6804990 100.5149997  95.2639992  18.4704990 101.6309997
  94.8683861  18.9884707 101.0537939  95.7789992  17.2224990 102.8529997
  95.4449992  16.3424990 103.0249997  96.0009992  17.5684990 103.7169997
  95.7632677  17.1487365 102.9934252 113.3279992  18.0324990 105.8329997
 113.3059992  18.2174990 106.7719997 114.0179992  18.6004990 105.4919997
 113.4183439  18.1346898 105.9154774 112.8909992  17.5994990 108.7549997
 112.4039992  16.8634990 108.3839997 113.4399992  17.2054990 109.4329997
 112.8986101  17.4456267 108.7959034 112.6429992  11.6454990  98.9069997
 113.4929992  12.0664990  99.0349997 112.6479992  10.9054990  99.5149997
 112.7599745  11.6031347  99.0066479 113.0369992   9.6994990 100.7309997
 112.3109992   9.2194990 101.1289997 113.6179992   9.9044990 101.4629997
 113.0162504   9.6615592 100.8844199 112.7959992  12.4844990 105.6789997
 113.6299992  12.1064990 105.3979997 112.9079992  13.4274990 105.5599997
 112.9251917  12.5602954 105.6244844 111.2819992  15.3624990 107.9859997
 110.6349992  15.6874990 108.6109997 110.7649992  14.9214990 107.3109997
 111.1234068  15.3474726 107.9804918 113.3049992   9.6004990  97.1219997
 112.7839992   9.9564990  96.4029997 113.2719992  10.2754990  97.7999997
 113.2291525   9.7405273  97.1151408 103.4589992   3.3904990  79.4819997
 103.6369992   2.7434990  80.1649997 103.4049992   4.2244990  79.9489997
 103.4760678   3.4146615  79.6386283 111.6539992   6.8394990  95.6729997
 111.7509992   7.5064990  94.9929997 111.5139992   6.0244990  95.1909997
 111.6483428   6.8205667  95.5148311 110.8239992   8.2204990 101.2939997
 110.6739992   7.2754990 101.2739997 110.4699992   8.5014990 102.1379997
 110.7556351   8.1291656 101.4053202  95.8589992  10.2984990 105.3039997
  96.0429992  10.2164990 104.3689997  96.7079992  10.1744990 105.7279997
  95.9990259  10.2704915 105.2331771 110.9019992   4.2474990  94.7899997
 111.5119992   3.8764990  95.4269997 110.0649992   3.8264990  94.9859997
 110.8723704   4.1397942  94.9037077 110.5339992   5.8024990  99.7559997
 110.8139992   4.8954990  99.8809997 111.2929992   6.2364990  99.3669997
 110.6749471   5.7370654  99.7205052 111.1459992   6.3844990 105.1919997
 112.0789992   6.5964990 105.1579997 110.9109992   6.4854990 106.1149997
 111.2418357   6.4271303 105.3120232 111.1749992   7.1214990 107.9679997
 110.3319992   7.3894990 108.3339997 111.6179992   7.9434990 107.7569997
 111.1194358   7.2693294 107.9895999 111.1479992   3.0654990  99.8049997
 111.3299992   2.6164990 100.6299997 110.5479992   2.4814990  99.3409997
 111.0918187   2.9250563  99.8552721  96.6779992   3.8814990 104.3359997
  97.1229992   3.0894990 104.6379997  97.1439992   4.5974990 104.7669997
  96.8019059   3.8699485 104.4356061  94.9819992   6.8804990 105.4049997
  95.4739992   6.6594990 104.6149997  95.3439992   7.7204990 105.6859997
  95.0983428   6.9638220 105.3347918 105.3369992  18.3384990  77.8769997
 106.2029992  18.7054990  77.6989997 105.0899992  17.8994990  77.0639997
 105.4222041  18.3293648  77.7425958 113.0139992   3.1334990  96.3329997
 113.4269992   2.4124990  95.8569997 113.6959992   3.8024990  96.3909997
 113.1625712   3.1254304  96.2758247  95.2949992   3.1384990  99.4599997
  94.3699992   3.3464990  99.3299997  95.7489992   3.6224990  98.7699997
  95.2297401   3.2323895  99.3489433 110.0659992  18.1224990 101.4049997
 110.7179992  17.7744990 100.7969997 110.5769992  18.6104990 102.0509997
 110.2242872  18.1408248 101.4090964  95.2589992   1.8764990 107.8039997
  94.5939992   1.6304990 108.4469997  94.8159992   2.4984990 107.2269997
  95.1081168   1.9269225 107.8139830 100.4049992  16.0254990 108.2069997
  99.9799992  16.8354990 107.9239997 101.3089992  16.1114990 107.9049997
 100.4691002  16.1478728 108.1274798 111.9789992   1.3004990 109.4899997
 111.1659992   1.6254990 109.1019997 112.2119992   0.5394990 108.9569997
 111.8992566   1.2421570 109.3649196  97.8069992  19.2824990 108.2539997
  97.0859992  19.7224990 107.8029997  97.4409992  19.0314990 109.1029997
  97.6589785  19.3087691 108.3069849 100.2739992  18.8824990 107.2839997
  99.4089992  18.9544990 107.6879997 100.2189992  19.4294990 106.4999997
 100.1482066  18.9662678 107.2333371 104.9849992  18.7704990 106.4599997
 104.5279992  19.2994990 105.8059997 105.1469992  19.3734990 107.1849997
 104.9443919  18.9243990 106.4685740 107.3119992  17.6484990 107.4049997
 106.4079992  17.8134990 107.1389997 107.7409992  18.5014990 107.3389997
 107.2462017  17.7864184 107.3596495 112.0459992  17.9014990  80.5569997
 111.8519992  17.1534990  79.9919997 112.0069992  18.6594990  79.9729997
 112.0141907  17.9015770  80.4008077 109.9159992  19.2184990 107.6999997
 109.7349992  20.1344990 107.4889997 110.0929992  18.8074990 106.8529997
 109.9151377  19.2883365 107.5567178  97.2219992  17.9054990 105.1649997
  97.2029992  17.4794990 106.0219997  98.0259992  17.5864990 104.7559997
  97.3281393  17.8040297 105.2270155  99.3629992  16.6154990 103.8199997
  99.1439992  15.6984990 103.9889997 100.1869992  16.7554990 104.2859997
  99.4444637  16.5089586 103.9061414 101.8999992  17.0854990 104.6679997
 102.1129992  16.1974990 104.3809997 101.9649992  17.0504990 105.6229997
 101.9379075  16.9593318 104.7577355 105.4089992   2.7494990 103.8129997
 104.7339992   2.1194990 104.0679997 105.9729992   2.2654990 103.2099997
 105.3929558   2.5979283 103.7663451 110.5509992   0.8564990 103.9249997
 111.1549992   1.4044990 103.4239997 109.6819992   1.1754990 103.6849997
 110.5161126   0.9747070 103.8239180 112.2779992   1.9954990 102.2589997
 112.8899992   1.4814990 101.7319997 112.6609992   2.8724990 102.2819997
 112.4133867   2.0437613 102.1900888  97.7349992   1.3834990 101.6349997
  96.9579992   1.1484990 101.1269997  98.2659992   0.5864990 101.6439997
  97.7004443   1.2436721 101.5667200  96.5719992   1.1814990  97.4379997
  97.0109992   1.7924990  96.8469997  95.9379992   1.7194990  97.9119997
  96.5464104   1.3379233  97.4211376 102.3149992   1.3094990 101.4479997
 103.1889992   1.6984990 101.4179997 102.1789992   1.0944990 102.3709997
 102.4163125   1.3337120 101.5686523  97.6929992   1.8974990  92.2959997
  97.3269992   1.1314990  92.7389997  98.6059992   1.9264990  92.5829997
  97.7663225   1.7966917  92.3953441 107.8709992   1.3394990 103.0969997
 107.9479992   1.4354990 102.1479997 107.5959992   0.4324990 103.2259997
 107.8443407   1.2299188 102.9843532 109.2249992   1.3654990  98.7899997
 108.5219992   1.9804990  98.5799997 108.7799992   0.5284990  98.9209997
 109.0686550   1.3364679  98.7789819  96.4729992  17.1294990  98.3359997
  95.7879992  17.0914990  97.6679997  96.4759992  18.0414990  98.6239997
  96.3797358  17.2476744  98.2836145  98.4329992   3.0974990  95.8809997
  98.9239992   2.4674990  95.3529997  99.0559992   3.3934990  96.5439997
  98.5845459   3.0512419  95.8983667 103.4589992   3.3904990  98.3379997
 103.6369992   2.7434990  99.0209997 103.4049992   4.2244990  98.8049997
 103.4760678   3.4146615  98.4946283 105.3369992  18.3384990  96.7329997
 106.2029992  18.7054990  96.5549997 105.0899992  17.8994990  95.9199997
 105.4222041  18.3293648  96.5985958 112.0459992  17.9014990  99.4129997
 111.8519992  17.1534990  98.8479997 112.0069992  18.6594990  98.8289997
 112.0141907  17.9015770  99.2568077  98.2909992  18.0494990  95.3609997
  98.0229992  18.3354990  96.2339997  99.0619992  17.5034990  95.5129997
  98.3585600  18.0148341  95.5011482 125.6699992  10.5394990 101.5929997
 125.7589992  11.4834990 101.4609997 125.0309992  10.2644990 100.9349997
 125.5958319  10.6314984 101.4860276 124.6029992   9.7944990 105.0119997
 124.5639992   9.1484990 105.7169997 124.2799992   9.3274990 104.2409997
 124.5540199   9.6430089 105.0042865  99.6659992   1.2474990  93.8319997
 100.5649992   0.9734990  93.6469997  99.2799992   0.5054990  94.2959997
  99.7367237   1.1096520  93.8694693 116.9709992   9.4084990 106.6049997
 117.0119992   8.7834990 107.3289997 117.6739992  10.0324990 106.7869997
 117.0716054   9.4073262 106.7286311 128.3089992  12.7334990 103.3139997
 127.8679992  12.0134990 103.7639997 128.2959992  13.4544990 103.9439997
 128.2468398  12.7323187 103.4607734 117.8949992  13.8584990 105.1399997
 117.5249992  13.0564990 104.7709997 118.8359992  13.6904990 105.1869997
 117.9715630  13.7258680 105.0957873 114.5049992   7.5184990 100.5329997
 114.0569992   8.3644990 100.5149997 113.9439992   6.9394990 100.0179997
 114.3678546   7.5559004 100.4608874 115.2149992   9.6804990 102.6589997
 115.4289992   8.9104990 103.1859997 115.9529992   9.7704990 102.0559997
 115.3440073   9.5873546 102.6495786 125.4199992  17.8374990 103.5259997
 126.0399992  17.1614990 103.2529997 125.2119992  17.6194990 104.4339997
 125.4767360  17.7154792 103.6114387 122.9919992  12.2264990 105.4179997
 123.2959992  11.5404990 104.8239997 123.7139992  12.3454990 106.0359997
 123.1311152  12.1487201 105.4202106 131.6549992   3.8284990 106.2789997
 131.7039992   4.4384990 107.0149997 132.0809992   4.2894990 105.5559997
 131.7192851   3.9743266 106.2820532 126.1329992   6.6204990 105.7459997
 126.2749992   5.6744990 105.7659997 126.0269992   6.8274990 104.8169997
 126.1381158   6.5189722 105.6232241 119.2879992   4.7224990 103.0179997
 119.3309992   5.5824990 102.5999997 118.8299992   4.1694990 102.3849997
 119.2319613   4.7655689 102.8751276 108.0869992   0.5804990  94.0139997
 108.1639992   0.1544990  94.8679997 108.9809992   0.5934990  93.6719997
 108.2183315   0.5240320  94.0845052 127.0099992   4.8534990 101.4189997
 127.6559992   4.5244990 102.0439997 127.5199992   5.3704990 100.7959997
 127.1674392   4.8783710 101.4203248 115.9079992   7.1194990 103.7799997
 116.5619992   6.5694990 104.2119997 115.9319992   6.8454990 102.8639997
 116.0007022   7.0072005 103.7151698 121.0639992   8.6694990 102.9959997
 121.6799992   8.1424990 103.5049997 120.4779992   8.0294990 102.5919997
 121.0690652   8.5108919 103.0110277 132.0469992   5.3064990 108.5149997
 131.3579992   5.9644990 108.4199997 132.0619992   5.1084990 109.4519997
 131.9547756   5.3697614 108.6285795 118.0979992   3.6404990 107.0919997
 117.8789992   4.1704990 106.3259997 117.4299992   3.8664990 107.7399997
 117.9777271   3.7436508 107.0746206 125.4669992  13.1404990 100.6359997
 125.1709992  12.8174990  99.7849997 125.1429992  14.0404990 100.6779997
 125.3826501  13.2179058 100.5250893 120.6669992  11.3154990 107.3799997
 119.9269992  11.9144990 107.4829997 121.3809992  11.8694990 107.0639997
 120.6623288  11.4722368 107.3513787 128.7739992   4.1444990 103.3999997
 128.5589992   3.3784990 103.9319997 129.4299992   4.6164990 103.9129997
 128.8332451   4.1034472 103.5421699 117.6919992   5.5324990 105.0449997
 118.3049992   6.1654990 105.4179997 118.2039992   5.0604990 104.3879997
 117.8451680   5.5554006 105.0072830 119.0739992  13.2804990 108.1669997
 119.0689992  14.1594990 107.7889997 118.2209992  13.1964990 108.5919997
 118.9579199  13.3895901 108.1726942 111.2639992  16.6524990  92.7069997
 110.4819992  16.4664990  92.1869997 111.1919992  17.5824990  92.9239997
 111.1472975  16.7526973  92.6651822 115.1959992  12.9514990  98.9489997
 114.9239992  13.1804990  98.0599997 115.2409992  13.7884990  99.4089997
 115.1648709  13.0961069  98.8896089 128.8209992  14.5724990 105.6619997
 127.8789992  14.6314990 105.8229997 129.0969992  15.4784990 105.5249997
 128.7295771  14.7030270 105.6654827 129.1209992   2.8594990 107.0789997
 128.3849992   3.4694990 107.0409997 129.8049992   3.2744990 106.5529997
 129.1125885   2.9991924 107.0026931 122.1239992   0.9454990 104.5449997
 122.0069992  -0.0025010 104.4909997 121.2689992   1.2784990 104.8179997
 121.9923691   0.8605842 104.5745072 127.0729992  16.3534990 102.2869997
 127.4979992  15.6464990 101.8019997 127.3899992  17.1554990 101.8699997
 127.1740266  16.3650201 102.1642461 128.2319992  14.2544990 100.7959997
 127.9749992  13.5644990 100.1839997 128.3029992  13.8114990 101.6409997
 128.2064322  14.1001568 100.8265372 129.9179992  12.8214990 109.2729997
 130.0579992  12.2294990 108.5339997 130.0859992  13.6944990 108.9169997
 129.9598734  12.8584041 109.1236937 124.3909992   9.7834990  99.0449997
 123.6789992  10.3184990  98.6939997 125.0819992   9.8384990  98.3849997
 124.3868696   9.8642591  98.9076372 124.4449992   8.2404990  96.0839997
 125.1459992   8.2634990  96.7349997 124.7469992   7.6124990  95.4279997
 124.5818282   8.1587350  96.0844478 131.7599992   9.1614990 107.3389997
 131.1079992   9.8554990 107.4279997 132.2249992   9.3714990 106.5289997
 131.7335357   9.2849544 107.2417056 125.6699992  10.5394990  82.7369997
 125.7589992  11.4834990  82.6049997 125.0309992  10.2644990  82.0789997
 125.5958319  10.6314984  82.6300276 127.7969992   9.9924990  99.9969997
 127.0649992  10.2214990 100.5699997 128.2439992   9.2794990 100.4519997
 127.7572753   9.9273984 100.1369698 127.6939992   8.1674990 109.0649997
 127.7739992   8.9304990 109.6369997 127.0929992   8.4464990 108.3739997
 127.6237115   8.3097707 109.0499631 119.4419992  10.6234990 101.8799997
 119.1119992  10.2524990 101.0609997 120.0299992   9.9524990 102.2259997
 119.4764056  10.4821257 101.8149035 120.8089992  14.0514990 104.5609997
 120.7139992  13.4724990 103.8039997 121.5379992  13.6804990 105.0569997
 120.8946161  13.9220902 104.5245192 119.8089992   9.3914990 105.5129997
 120.3739992   9.5134990 104.7499997 120.1269992  10.0294990 106.1519997
 119.9293430   9.4944448 105.4949094 126.1179992  14.8954990 106.2469997
 125.8769992  15.5574990 106.8949997 125.9199992  14.0604990 106.6719997
 126.0582662  14.8732704 106.3931008 126.6679992   9.1554990  97.6819997
 127.2469992   9.3054990  98.4289997 127.0819992   9.6254990  96.9589997
 126.8033122   9.2396288  97.6865024 117.6089992   9.9894990 109.4589997
 117.6789992  10.6404990 110.1569997 116.7179992  10.0924990 109.1239997
 117.4981802  10.0924769 109.5092231 124.3939992  15.8914990 101.1179997
 124.8679992  16.1874990 101.8949997 123.8309992  16.6304990 100.8839997
 124.3828460  16.0318336 101.1927626 130.3659992   0.9054990  97.4949997
 129.4659992   1.0434990  97.7899997 130.6179992   1.7364990  97.0929997
 130.2767355   1.0368200  97.4810539 124.6029992   9.7944990  86.1559997
 124.5639992   9.1484990  86.8609997 124.2799992   9.3274990  85.3849997
 124.5540199   9.6430089  86.1482865 118.4319992   9.6924990  99.4689997
 118.1399992  10.4604990  98.9779997 117.7579992   9.0334990  99.3059997
 118.3008843   9.7084537  99.3797695 131.5559992  15.2714990  95.8719997
 131.6289992  16.2104990  96.0419997 132.4609992  14.9664990  95.8149997
 131.6884168  15.3588531  95.8875736 114.5249992  12.0554990 108.2839997
 114.0239992  12.0274990 107.4689997 114.5309992  11.1504990 108.5939997
 114.4571690  11.9292234 108.2142770 114.2759992  14.8364990 105.1679997
 115.2219992  14.6914990 105.1489997 114.1629992  15.6204990 105.7049997
 114.3903578  14.9226708 105.2380300 123.4519992  15.0764990 109.7259997
 123.5389992  15.9024990 110.2009997 122.5879992  14.7464990 109.9749997
 123.3471944  15.1449871 109.8246558 123.8659992  18.8484990  99.5319997
 123.7909992  18.7274990  98.5859997 123.8989992  19.7974990  99.6509997
 123.8601862  18.9602492  99.4184840 117.5199992  17.6374990 101.3129997
 117.6719992  17.2894990 102.1919997 116.6689992  17.2804990 101.0579997
 117.4257899  17.5416749 101.3987322 126.9679992  18.0024990  96.5349997
 127.3429992  17.2584990  96.0639997 126.9719992  17.7324990  97.4529997
 127.0198969  17.8640920  96.5946475 126.6369992  17.9284990  99.2839997
 125.7019992  18.0284990  99.4629997 126.9169992  17.2184990  99.8619997
 126.5469270  17.8462300  99.3865984 116.7739992  13.3794990 109.3269997
 116.9899992  13.0174990 110.1869997 115.9189992  13.0044990 109.1169997
 116.6879349  13.2792914 109.4162134 116.9709992   9.4084990  87.7489997
 117.0119992   8.7834990  88.4729997 117.6739992  10.0324990  87.9309997
 117.0716054   9.4073262  87.8726311 119.3929992   1.8494990 105.3229997
 118.5309992   1.7624990 104.9149997 119.3709992   2.7054990 105.7499997
 119.2720953   1.9533558 105.3249262 124.0559992   1.5714990 108.6969997
 124.4759992   1.1564990 109.4499997 123.1229992   1.3924990 108.8139997
 123.9873736   1.4904921 108.8158950 127.3819992   5.3264990 109.5509997
 126.8679992   5.2014990 110.3479997 127.2269992   6.2394990 109.3059997
 127.2906643   5.4327068 109.6270624 128.1449992  10.1874990  95.3119997
 128.1869992   9.9654990  94.3819997 128.9939992  10.5864990  95.5019997
 128.2655253  10.2110510  95.2103804 123.7179992   4.0634990  95.9819997
 123.4639992   4.0824990  96.9049997 123.4609992   3.1924990  95.6809997
 123.6485133   3.9483121  96.0675065 119.4839992   6.8144990 106.4179997
 118.8419992   6.7744990 107.1269997 119.5209992   7.7414990 106.1799997
 119.4011659   6.9342540 106.4828463 119.4809992   7.0354990 101.3299997
 118.5879992   6.6954990 101.2709997 119.9319992   6.6584990 100.5739997
 119.4197185   6.9380220 101.2197698 125.0169992   7.4514990 100.1469997
 124.6079992   8.2664990  99.8549997 125.7369992   7.3114990  99.5319997
 125.0583946   7.5439963 100.0239616 126.0209992   6.8974990 102.9609997
 125.8259992   7.5034990 102.2459997 126.2029992   6.0644990 102.5259997
 126.0189272   6.8677955 102.8044075 117.2339992   7.1354990 108.2849997
 117.1959992   7.5354990 109.1529997 116.7429992   6.3184990 108.3749997
 117.1624246   7.0798842 108.4161171 128.3089992  12.7334990  84.4579997
 127.8679992  12.0134990  84.9079997 128.2959992  13.4544990  85.0879997
 128.2468398  12.7323187  84.6047734 120.5999992   4.5094990  95.0829997
 120.1689992   4.0644990  95.8129997 119.8819992   4.8804990  94.5709997
 120.4439363   4.4987979  95.1136194 113.8419992   4.2514990 102.1349997
 114.4729992   4.2224990 102.8549997 114.2919992   3.8264990 101.4049997
 113.9890905   4.1900839 102.1347479 115.1159992   4.9974990  97.5589997
 115.5909992   5.5884990  96.9739997 114.3989992   5.5274990  97.9059997
 115.0840406   5.1501011  97.5258495 125.2849992   8.5354990 107.6319997
 125.6089992   7.9044990 106.9889997 124.8449992   8.0014990 108.2929997
 125.2698707   8.3768261 107.6333195 122.0629992   4.4634990 102.4159997
 121.1519992   4.5204990 102.7049997 122.5679992   4.4034990 103.2269997
 122.0066873   4.4631838 102.5651190 116.8909992   6.0924990 101.2429997
 116.0019992   6.1914990 100.9029997 117.1869992   5.2504990 100.8969997
 116.8094001   5.9922473 101.1497318 120.5439992   6.0924990  98.8989997
 121.4759992   6.2214990  99.0769997 120.3289992   6.7614990  98.2499997
 120.6424245   6.2006452  98.8355602 126.4679992   3.6984990 105.6799997
 125.7909992   3.8294990 106.3439997 125.9819992   3.5434990 104.8699997
 126.3097265   3.6954665 105.6613380 119.2179992   7.2864990  96.4659997
 118.6759992   6.9074990  95.7749997 120.0519992   7.4814990  96.0369997
 119.2564283   7.2609383  96.3134298 123.3829992   7.2504990 104.3029997
 123.9469992   6.7044990 103.7559997 123.2349992   6.7294990 105.0919997
 123.4403037   7.1051798 104.3347212 117.8949992  13.8584990  86.2839997
 117.5249992  13.0564990  85.9149997 118.8359992  13.6904990  86.3309997
 117.9715630  13.7258680  86.2397873 118.3849992   3.3874990 100.7209997
 118.0669992   2.4844990 100.6859997 119.1659992   3.3894990 100.1689997
 118.4471560   3.2641148 100.6414975 122.0089992   5.6394990 106.7169997
 121.1739992   6.0934990 106.8269997 122.5329992   5.9154990 107.4689997
 121.9655070   5.7389677 106.8337134 122.5529992  11.8524990  98.4019997
 121.8079992  11.3444990  98.0789997 122.4189992  11.9014990  99.3479997
 122.4328633  11.7895714  98.4857563 129.7029992  10.9854990 107.1879997
 130.3449992  11.4414990 106.6449997 128.8729992  11.0984990 106.7259997
 129.6787352  11.0633223 107.0510234 126.4509992   4.6664990  96.6009997
 125.5119992   4.7774990  96.4499997 126.7479992   5.5224990  96.9069997
 126.3626371   4.7975327  96.6217362 124.0729992  12.0364990 109.6389997
 123.7269992  11.6544990 110.4449997 123.8729992  12.9694990 109.7099997
 123.9985400  12.1103489 109.7590401 127.1689992   6.5334990  98.2619997
 128.0609992   6.3954990  98.5809997 127.2259992   7.3244990  97.7249997
 127.2987380   6.6214777  98.2330981 117.6779992  11.1474990 104.1709997
 118.4229992  11.1444990 103.5699997 117.7559992  10.3234990 104.6529997
 117.7904158  11.0357928 104.1539136 124.6789992  13.3104990  97.4269997
 124.3839992  14.1374990  97.8089997 123.9759992  12.6914990  97.6229997
 124.5435855  13.3399458  97.5057634 114.6859992   9.6074990 109.4859997
 114.9089992   9.1894990 110.3179997 114.0839992   8.9954990 109.0639997
 114.6350802   9.4675216 109.5427561 114.5049992   7.5184990  81.6769997
 114.0569992   8.3644990  81.6589997 113.9439992   6.9394990  81.1619997
 114.3678546   7.5559004  81.6048874 126.3229992  14.4984990 109.5889997
 125.4219992  14.6814990 109.3209997 126.3569992  14.7574990 110.5099997
 126.2043021  14.5585505 109.6768206 132.0539992   6.7424990  97.9559997
 131.4999992   6.3464990  97.2839997 132.1549992   7.6534990  97.6789997
 131.9917084   6.8113565  97.8264381 130.3489992  15.5284990  98.4209997
 129.9769992  14.7034990  98.7309997 130.6269992  15.3454990  97.5239997
 130.3355997  15.3906160  98.3421551 127.5099992  10.3364990 105.4429997
 126.5819992  10.1054990 105.4159997 127.9609992   9.5594990 105.1129997
 127.4438165  10.1997785 105.3946772 120.0529992  14.6654990 101.5759997
 120.5799992  15.4384990 101.3749997 119.1729992  14.8894990 101.2739997
 120.0061793  14.8016652 101.5076304 115.8079992   9.5274990  96.1629997
 116.4239992  10.1544990  96.5419997 114.9459992   9.8434990  96.4339997
 115.7758195   9.6560810  96.2515369 121.4799992  12.3284990 101.1519997
 121.2389992  13.2534990 101.1939997 120.7399992  11.8694990 101.5479997
 121.3468934  12.3930881 101.2113191 121.9949992  16.4774990 107.4669997
 122.3579992  17.3314990 107.2339997 122.5269992  16.1854990 108.2079997
 122.1165141  16.5548907 107.5352079 120.1629992  17.3494990 100.6969997
 119.2139992  17.4554990 100.7489997 120.5149992  18.1704990 101.0419997
 120.0806214  17.4749361 100.7507317 125.5389992  12.5764990 107.1679997
 125.1129992  12.3484990 107.9939997 126.1199992  11.8374990 106.9849997
 125.5591587  12.4454084 107.2564111 115.2149992   9.6804990  83.8029997
 115.4289992   8.9104990  84.3299997 115.9529992   9.7704990  83.1999997
 115.3440073   9.5873546  83.7935786 127.7419992  13.5054990  96.2419997
 128.0949992  13.1254990  97.0459997 126.7929992  13.4114990  96.3279997
 127.6620985  13.4407330  96.3637738 128.1979992  17.1284990 109.6369997
 127.5959992  16.5724990 109.1419997 128.4789992  17.7954990 109.0109997
 128.1535757  17.1425755 109.4845657 132.2449992  17.9844990  96.4429997
 132.9889992  18.5704990  96.3029997 131.5509992  18.5534990  96.7759997
 132.2529809  18.1415830  96.4688572 116.3199992   4.3614990 109.0439997
 115.4269992   4.6994990 108.9769997 116.2209992   3.5054990 109.4619997
 116.1845241   4.2920941 109.0912982 128.6079992  12.1774990  98.4679997
 128.3309992  11.4494990  99.0239997 129.5349992  12.2964990  98.6739997
 128.6954181  12.0940068  98.5718972 115.9709992  16.1654990 107.4789997
 116.1879992  15.2334990 107.4479997 116.2179992  16.4404990 108.3629997
 116.0340543  16.0750877 107.5941412 121.8329992  14.6174990  94.6889997
 122.0719992  13.8684990  94.1409997 121.5639992  14.2294990  95.5209997
 121.8292804  14.4626524  94.7266352 120.7699992  14.1874990  97.1449997
 120.9169992  13.6674990  97.9349997 120.7669992  15.0944990  97.4509997
 120.7897300  14.2388975  97.2945877 117.2229992  11.4394990  97.6549997
 116.5369992  11.7924990  98.2219997 117.7459992  12.2024990  97.4089997
 117.1999033  11.5908757  97.6992644 125.0539992   4.1024990 107.9339997
 125.7529992   4.1764990 108.5839997 124.6739992   3.2374990 108.0889997
 125.0982095   3.9957402 108.0437982 125.4199992  17.8374990  84.6699997
 126.0399992  17.1614990  84.3969997 125.2119992  17.6194990  85.5779997
 125.4767360  17.7154792  84.7554387 125.8389992   3.7544990  99.0309997
 126.0589992   4.2254990  98.2279997 126.3969992   4.1484990  99.7019997
 125.9445851   3.8723272  99.0116134 123.5079992  15.8844990  97.8939997
 122.6909992  16.3814990  97.9469997 124.0369992  16.3604990  97.2539997
 123.4677898  16.0168123  97.8147274 123.0389992   5.4824990  99.8659997
 123.8509992   5.9864990  99.9119997 122.7939992   5.3374990 100.7799997
 123.1171091   5.5319366  99.9958552 123.5749992   6.4684990 109.0509997
 123.6939992   7.0424990 109.8079997 124.2299992   5.7804990 109.1659997
 123.6798684   6.4540205 109.1701656 123.9229992   2.5634990 100.8039997
 123.5759992   3.1804990 101.4489997 124.5809992   3.0644990 100.3229997
 123.9645290   2.7156384 100.8271635 120.8459992  16.9284990  97.8759997
 121.0069992  17.7284990  97.3749997 120.6489992  17.2354990  98.7609997
 120.8413919  17.0794140  97.9270988 119.5799992   3.6264990  97.4919997
 119.4969992   4.5144990  97.8379997 120.4699992   3.3614990  97.7229997
 119.6889751   3.7122482  97.5706066 129.7789992   4.3754990 109.8859997
 128.8629992   4.6374990 109.7979997 130.1149992   4.3724990 108.9889997
 129.6989789   4.4109637 109.7527829 128.3809992   8.1254990 103.9819997
 127.5839992   7.7104990 103.6529997 128.8259992   7.4354990 104.4729997
 128.3320317   7.9753197 104.0033556 117.8389992  14.0534990  96.5519997
 118.4309992  14.7534990  96.8279997 118.2979992  13.6204990  95.8329997
 117.9821172  14.0907371  96.4925163 122.9919992  12.2264990  86.5619997
 123.2959992  11.5404990  85.9679997 123.7139992  12.3454990  87.1799997
 123.1311152  12.1487201  86.5642106 116.1549992   6.7184990  95.6679997
 116.1099992   7.6574990  95.8469997 115.2669992   6.4824990  95.3979997
 116.0288472   6.8151946  95.6560282 129.4679992  17.3814990 105.6039997
 129.3119992  18.0604990 104.9469997 130.3999992  17.4534990 105.8069997
 129.5727328  17.4841586 105.5415529 116.9629992   1.4994990 104.3409997
 116.7339992   1.5584990 103.4139997 116.5199992   0.7084990 104.6479997
 116.8717387   1.4006412 104.2555223 115.8929992  15.4404990 100.5019997
 115.0609992  15.9124990 100.5289997 116.4389992  15.9504990  99.9029997
 115.8528710  15.5740317 100.4247570 123.8709992  16.4804990  94.8269997
 123.2269992  15.8494990  95.1489997 124.6329992  15.9494990  94.5949997
 123.8858260  16.3223035  94.8397298 128.4749992  16.2974990  95.0609997
 128.7579992  15.5024990  95.5139997 129.2149992  16.5304990  94.4999997
 128.6137295  16.2202349  95.0471469 119.4299992  12.2064990  94.9179997
 119.4939992  11.4124990  95.4489997 120.0829992  12.0884990  94.2289997
 119.5271168  12.0817748  94.8975119 124.7819992  13.2534990  94.6539997
 124.5139992  13.4344990  95.5549997 124.5759992  12.3284990  94.5229997
 124.7174251  13.1531528  94.7596809 127.4789992  11.7484990 109.6019997
 128.2239992  12.3374990 109.4819997 126.7209992  12.3304990 109.6649997
 127.4785185  11.9077000 109.5940940 120.5789992  10.1794990  97.2239997
 120.1199992   9.6954990  97.9099997 120.8339992   9.5104990  96.5879997
 120.5506178  10.0228511  97.2319785 131.6549992   3.8284990  87.4229997
 131.7039992   4.4384990  88.1589997 132.0809992   4.2894990  86.6999997
 131.7192851   3.9743266  87.4260532 119.8679992   8.0724990 109.5799997
 119.2499992   8.7464990 109.8609997 120.2119992   8.3934990 108.7469997
 119.8298181   8.2083233 109.5058266 121.6499992   8.4224990  95.4869997
 121.4699992   8.2674990  94.5589997 122.5999992   8.5304990  95.5309997
 121.7538016   8.4159264  95.3662123 131.0399992  10.7764990  94.9319997
 130.7669992  10.3524990  94.1189997 131.0799992  11.7084990  94.7149997
 131.0080201  10.8443523  94.7913548 120.6199992   3.7964990 108.1549997
 121.1559992   4.2484990 107.5029997 119.7679992   3.6884990 107.7329997
 120.5781648   3.8437883 108.0086395 122.2019992   9.2364990 108.3949997
 122.9529992   9.0804990 107.8219997 121.8629992  10.0884990 108.1189997
 122.2589052   9.3302745 108.2793469 121.4259992   1.2534990 108.5869997
 121.3279992   2.1994990 108.4809997 120.6829992   0.8804990 108.1109997
 121.3122363   1.3325987 108.5082029 121.5479992  19.1124990  96.4879997
 122.4809992  19.2704990  96.6319997 121.2829992  19.7884990  95.8629997
 121.6399846  19.2254567  96.4232930 115.1159992  13.7494990  95.9709997
 116.0299992  13.8284990  96.2439997 115.1229992  13.0624990  95.3039997
 115.2420769  13.6674735  95.9182366 113.7649992  19.1424990 101.0479997
 113.1179992  18.6804990 100.5149997 114.1199992  18.4704990 101.6309997
 113.7243861  18.9884707 101.0537939 114.6349992  17.2224990 102.8529997
 114.3009992  16.3424990 103.0249997 114.8569992  17.5684990 103.7169997
 114.6192677  17.1487365 102.9934252 126.1329992   6.6204990  86.8899997
 126.2749992   5.6744990  86.9099997 126.0269992   6.8274990  85.9609997
 126.1381158   6.5189722  86.7672241 132.1839992  18.0324990 105.8329997
 132.1619992  18.2174990 106.7719997 132.8739992  18.6004990 105.4919997
 132.2743439  18.1346898 105.9154774 131.7469992  17.5994990 108.7549997
 131.2599992  16.8634990 108.3839997 132.2959992  17.2054990 109.4329997
 131.7546101  17.4456267 108.7959034 131.4989992  11.6454990  98.9069997
 132.3489992  12.0664990  99.0349997 131.5039992  10.9054990  99.5149997
 131.6159745  11.6031347  99.0066479 131.8929992   9.6994990 100.7309997
 131.1669992   9.2194990 101.1289997 132.4739992   9.9044990 101.4629997
 131.8722504   9.6615592 100.8844199 131.6519992  12.4844990 105.6789997
 132.4859992  12.1064990 105.3979997 131.7639992  13.4274990 105.5599997
 131.7811917  12.5602954 105.6244844 130.1379992  15.3624990 107.9859997
 129.4909992  15.6874990 108.6109997 129.6209992  14.9214990 107.3109997
 129.9794068  15.3474726 107.9804918 132.1609992   9.6004990  97.1219997
 131.6399992   9.9564990  96.4029997 132.1279992  10.2754990  97.7999997
 132.0851525   9.7405273  97.1151408 130.5099992   6.8394990  95.6729997
 130.6069992   7.5064990  94.9929997 130.3699992   6.0244990  95.1909997
 130.5043428   6.8205667  95.5148311 129.6799992   8.2204990 101.2939997
 129.5299992   7.2754990 101.2739997 129.3259992   8.5014990 102.1379997
 129.6116351   8.1291656 101.4053202 114.7149992  10.2984990 105.3039997
 114.8989992  10.2164990 104.3689997 115.5639992  10.1744990 105.7279997
 114.8550259  10.2704915 105.2331771 119.2879992   4.7224990  84.1619997
 119.3309992   5.5824990  83.7439997 118.8299992   4.1694990  83.5289997
 119.2319613   4.7655689  84.0191276 129.7579992   4.2474990  94.7899997
 130.3679992   3.8764990  95.4269997 128.9209992   3.8264990  94.9859997
 129.7283704   4.1397942  94.9037077 129.3899992   5.8024990  99.7559997
 129.6699992   4.8954990  99.8809997 130.1489992   6.2364990  99.3669997
 129.5309471   5.7370654  99.7205051 130.0019992   6.3844990 105.1919997
 130.9349992   6.5964990 105.1579997 129.7669992   6.4854990 106.1149997
 130.0978357   6.4271303 105.3120232 130.0309992   7.1214990 107.9679997
 129.1879992   7.3894990 108.3339997 130.4739992   7.9434990 107.7569997
 129.9754358   7.2693294 107.9895999 130.0039992   3.0654990  99.8049997
 130.1859992   2.6164990 100.6299997 129.4039992   2.4814990  99.3409997
 129.9478187   2.9250563  99.8552721 115.5339992   3.8814990 104.3359997
 115.9789992   3.0894990 104.6379997 115.9999992   4.5974990 104.7669997
 115.6579059   3.8699485 104.4356061 113.8379992   6.8804990 105.4049997
 114.3299992   6.6594990 104.6149997 114.1999992   7.7204990 105.6859997
 113.9543429   6.9638220 105.3347918 131.8699992   3.1334990  96.3329997
 132.2829992   2.4124990  95.8569997 132.5519992   3.8024990  96.3909997
 132.0185712   3.1254304  96.2758247 114.1509992   3.1384990  99.4599997
 113.2259992   3.3464990  99.3299997 114.6049992   3.6224990  98.7699997
 114.0857401   3.2323895  99.3489433 128.9219992  18.1224990 101.4049997
 129.5739992  17.7744990 100.7969997 129.4329992  18.6104990 102.0509997
 129.0802872  18.1408248 101.4090964 127.0099992   4.8534990  82.5629997
 127.6559992   4.5244990  83.1879997 127.5199992   5.3704990  81.9399997
 127.1674392   4.8783710  82.5643248 114.1149992   1.8764990 107.8039997
 113.4499992   1.6304990 108.4469997 113.6719992   2.4984990 107.2269997
 113.9641168   1.9269225 107.8139830 119.2609992  16.0254990 108.2069997
 118.8359992  16.8354990 107.9239997 120.1649992  16.1114990 107.9049997
 119.3251002  16.1478728 108.1274798 130.8349992   1.3004990 109.4899997
 130.0219992   1.6254990 109.1019997 131.0679992   0.5394990 108.9569997
 130.7552566   1.2421570 109.3649196 116.6629992  19.2824990 108.2539997
 115.9419992  19.7224990 107.8029997 116.2969992  19.0314990 109.1029997
 116.5149785  19.3087691 108.3069849 119.1299992  18.8824990 107.2839997
 118.2649992  18.9544990 107.6879997 119.0749992  19.4294990 106.4999997
 119.0042066  18.9662678 107.2333371 123.8409992  18.7704990 106.4599997
 123.3839992  19.2994990 105.8059997 124.0029992  19.3734990 107.1849997
 123.8003919  18.9243990 106.4685740 126.1679992  17.6484990 107.4049997
 125.2639992  17.8134990 107.1389997 126.5969992  18.5014990 107.3389997
 126.1022017  17.7864184 107.3596495 128.7719992  19.2184990 107.6999997
 128.5909992  20.1344990 107.4889997 128.9489992  18.8074990 106.8529997
 128.7711377  19.2883365 107.5567178 116.0779992  17.9054990 105.1649997
 116.0589992  17.4794990 106.0219997 116.8819992  17.5864990 104.7559997
 116.1841393  17.8040297 105.2270155 118.2189992  16.6154990 103.8199997
 117.9999992  15.6984990 103.9889997 119.0429992  16.7554990 104.2859997
 118.3004637  16.5089586 103.9061414 115.9079992   7.1194990  84.9239997
 116.5619992   6.5694990  85.3559997 115.9319992   6.8454990  84.0079997
 116.0007022   7.0072005  84.8591698 120.7559992  17.0854990 104.6679997
 120.9689992  16.1974990 104.3809997 120.8209992  17.0504990 105.6229997
 120.7939075  16.9593318 104.7577355 124.2649992   2.7494990 103.8129997
 123.5899992   2.1194990 104.0679997 124.8289992   2.2654990 103.2099997
 124.2489558   2.5979283 103.7663451 129.4069992   0.8564990 103.9249997
 130.0109992   1.4044990 103.4239997 128.5379992   1.1754990 103.6849997
 129.3721126   0.9747070 103.8239180 131.1339992   1.9954990 102.2589997
 131.7459992   1.4814990 101.7319997 131.5169992   2.8724990 102.2819997
 131.2693867   2.0437613 102.1900888 116.5909992   1.3834990 101.6349997
 115.8139992   1.1484990 101.1269997 117.1219992   0.5864990 101.6439997
 116.5564443   1.2436721 101.5667200 115.4279992   1.1814990  97.4379997
 115.8669992   1.7924990  96.8469997 114.7939992   1.7194990  97.9119997
 115.4024104   1.3379233  97.4211376 121.1709992   1.3094990 101.4479997
 122.0449992   1.6984990 101.4179997 121.0349992   1.0944990 102.3709997
 121.2723125   1.3337120 101.5686523 126.7269992   1.3394990 103.0969997
 126.8039992   1.4354990 102.1479997 126.4519992   0.4324990 103.2259997
 126.7003407   1.2299188 102.9843532 128.0809992   1.3654990  98.7899997
 127.3779992   1.9804990  98.5799997 127.6359992   0.5284990  98.9209997
 127.9246550   1.3364679  98.7789819 115.3289992  17.1294990  98.3359997
 114.6439992  17.0914990  97.6679997 115.3319992  18.0414990  98.6239997
 115.2357358  17.2476744  98.2836145 121.0639992   8.6694990  84.1399997
 121.6799992   8.1424990  84.6489997 120.4779992   8.0294990  83.7359997
 121.0690652   8.5108919  84.1550277 117.2889992   3.0974990  95.8809997
 117.7799992   2.4674990  95.3529997 117.9119992   3.3934990  96.5439997
 117.4405459   3.0512419  95.8983667 122.3149992   3.3904990  98.3379997
 122.4929992   2.7434990  99.0209997 122.2609992   4.2244990  98.8049997
 122.3320678   3.4146615  98.4946283 124.1929992  18.3384990  96.7329997
 125.0589992  18.7054990  96.5549997 123.9459992  17.8994990  95.9199997
 124.2782041  18.3293648  96.5985958 130.9019992  17.9014990  99.4129997
 130.7079992  17.1534990  98.8479997 130.8629992  18.6594990  98.8289997
 130.8701907  17.9015770  99.2568077 117.1469992  18.0494990  95.3609997
 116.8789992  18.3354990  96.2339997 117.9179992  17.5034990  95.5129997
 117.2145600  18.0148341  95.5011482 135.8269992   9.4084990 106.6049997
 135.8679992   8.7834990 107.3289997 136.5299992  10.0324990 106.7869997
 135.9276054   9.4073262 106.7286311 136.7509992  13.8584990 105.1399997
 136.3809992  13.0564990 104.7709997 137.6919992  13.6904990 105.1869997
 136.8275630  13.7258680 105.0957873 133.3609992   7.5184990 100.5329997
 132.9129992   8.3644990 100.5149997 132.7999992   6.9394990 100.0179997
 133.2238546   7.5559004 100.4608874 134.0709992   9.6804990 102.6589997
 134.2849992   8.9104990 103.1859997 134.8089992   9.7704990 102.0559997
 134.2000073   9.5873546 102.6495786 138.1439992   4.7224990 103.0179997
 138.1869992   5.5824990 102.5999997 137.6859992   4.1694990 102.3849997
 138.0879613   4.7655689 102.8751276 132.0469992   5.3064990  89.6589997
 131.3579992   5.9644990  89.5639997 132.0619992   5.1084990  90.5959997
 131.9547756   5.3697614  89.7725795 134.7639992   7.1194990 103.7799997
 135.4179992   6.5694990 104.2119997 134.7879992   6.8454990 102.8639997
 134.8567022   7.0072005 103.7151698 136.9539992   3.6404990 107.0919997
 136.7349992   4.1704990 106.3259997 136.2859992   3.8664990 107.7399997
 136.8337271   3.7436508 107.0746206 139.5229992  11.3154990 107.3799997
 138.7829992  11.9144990 107.4829997 140.2369992  11.8694990 107.0639997
 139.5183288  11.4722368 107.3513787 136.5479992   5.5324990 105.0449997
 137.1609992   6.1654990 105.4179997 137.0599992   5.0604990 104.3879997
 136.7011680   5.5554006 105.0072830 137.9299992  13.2804990 108.1669997
 137.9249992  14.1594990 107.7889997 137.0769992  13.1964990 108.5919997
 137.8139199  13.3895901 108.1726942 134.0519992  12.9514990  98.9489997
 133.7799992  13.1804990  98.0599997 134.0969992  13.7884990  99.4089997
 134.0208709  13.0961069  98.8896089 138.2979992  10.6234990 101.8799997
 137.9679992  10.2524990 101.0609997 138.8859992   9.9524990 102.2259997
 138.3324056  10.4821257 101.8149035 138.6649992   9.3914990 105.5129997
 139.2299992   9.5134990 104.7499997 138.9829992  10.0294990 106.1519997
 138.7853430   9.4944448 105.4949094 136.4649992   9.9894990 109.4589997
 136.5349992  10.6404990 110.1569997 135.5739992  10.0924990 109.1239997
 136.3541802  10.0924769 109.5092231 137.2879992   9.6924990  99.4689997
 136.9959992  10.4604990  98.9779997 136.6139992   9.0334990  99.3059997
 137.1568843   9.7084537  99.3797695 118.0979992   3.6404990  88.2359997
 117.8789992   4.1704990  87.4699997 117.4299992   3.8664990  88.8839997
 117.9777271   3.7436508  88.2186206 133.3809992  12.0554990 108.2839997
 132.8799992  12.0274990 107.4689997 133.3869992  11.1504990 108.5939997
 133.3131690  11.9292234 108.2142770 133.1319992  14.8364990 105.1679997
 134.0779992  14.6914990 105.1489997 133.0189992  15.6204990 105.7049997
 133.2463578  14.9226708 105.2380300 136.3759992  17.6374990 101.3129997
 136.5279992  17.2894990 102.1919997 135.5249992  17.2804990 101.0579997
 136.2817899  17.5416749 101.3987322 135.6299992  13.3794990 109.3269997
 135.8459992  13.0174990 110.1869997 134.7749992  13.0044990 109.1169997
 135.5439349  13.2792914 109.4162134 138.2489992   1.8494990 105.3229997
 137.3869992   1.7624990 104.9149997 138.2269992   2.7054990 105.7499997
 138.1280953   1.9533558 105.3249262 138.3399992   6.8144990 106.4179997
 137.6979992   6.7744990 107.1269997 138.3769992   7.7414990 106.1799997
 138.2571659   6.9342540 106.4828463 138.3369992   7.0354990 101.3299997
 137.4439992   6.6954990 101.2709997 138.7879992   6.6584990 100.5739997
 138.2757185   6.9380220 101.2197698 136.0899992   7.1354990 108.2849997
 136.0519992   7.5354990 109.1529997 135.5989992   6.3184990 108.3749997
 136.0184246   7.0798842 108.4161171 139.4559992   4.5094990  95.0829997
 139.0249992   4.0644990  95.8129997 138.7379992   4.8804990  94.5709997
 139.2999363   4.4987979  95.1136194 132.6979992   4.2514990 102.1349997
 133.3289992   4.2224990 102.8549997 133.1479992   3.8264990 101.4049997
 132.8450905   4.1900839 102.1347479 125.4669992  13.1404990  81.7799997
 125.1709992  12.8174990  80.9289997 125.1429992  14.0404990  81.8219997
 125.3826501  13.2179058  81.6690893 133.9719992   4.9974990  97.5589997
 134.4469992   5.5884990  96.9739997 133.2549992   5.5274990  97.9059997
 133.9400406   5.1501011  97.5258495 135.7469992   6.0924990 101.2429997
 134.8579992   6.1914990 100.9029997 136.0429992   5.2504990 100.8969997
 135.6654001   5.9922473 101.1497318 139.3999992   6.0924990  98.8989997
 140.3319992   6.2214990  99.0769997 139.1849992   6.7614990  98.2499997
 139.4984245   6.2006452  98.8355602 138.0739992   7.2864990  96.4659997
 137.5319992   6.9074990  95.7749997 138.9079992   7.4814990  96.0369997
 138.1124283   7.2609383  96.3134298 137.2409992   3.3874990 100.7209997
 136.9229992   2.4844990 100.6859997 138.0219992   3.3894990 100.1689997
 137.3031560   3.2641148 100.6414975 136.5339992  11.1474990 104.1709997
 137.2789992  11.1444990 103.5699997 136.6119992  10.3234990 104.6529997
 136.6464158  11.0357928 104.1539136 133.5419992   9.6074990 109.4859997
 133.7649992   9.1894990 110.3179997 132.9399992   8.9954990 109.0639997
 133.4910802   9.4675216 109.5427561 138.9089992  14.6654990 101.5759997
 139.4359992  15.4384990 101.3749997 138.0289992  14.8894990 101.2739997
 138.8621793  14.8016652 101.5076304 134.6639992   9.5274990  96.1629997
 135.2799992  10.1544990  96.5419997 133.8019992   9.8434990  96.4339997
 134.6318195   9.6560810  96.2515369 139.0189992  17.3494990 100.6969997
 138.0699992  17.4554990 100.7489997 139.3709992  18.1704990 101.0419997
 138.9366214  17.4749361 100.7507317 120.6669992  11.3154990  88.5239997
 119.9269992  11.9144990  88.6269997 121.3809992  11.8694990  88.2079997
 120.6623288  11.4722368  88.4953787 135.1759992   4.3614990 109.0439997
 134.2829992   4.6994990 108.9769997 135.0769992   3.5054990 109.4619997
 135.0405241   4.2920941 109.0912982 134.8269992  16.1654990 107.4789997
 135.0439992  15.2334990 107.4479997 135.0739992  16.4404990 108.3629997
 134.8900543  16.0750877 107.5941412 136.0789992  11.4394990  97.6549997
 135.3929992  11.7924990  98.2219997 136.6019992  12.2024990  97.4089997
 136.0559033  11.5908757  97.6992644 138.4359992   3.6264990  97.4919997
 138.3529992   4.5144990  97.8379997 139.3259992   3.3614990  97.7229997
 138.5449751   3.7122482  97.5706066 136.6949992  14.0534990  96.5519997
 137.2869992  14.7534990  96.8279997 137.1539992  13.6204990  95.8329997
 136.8381172  14.0907371  96.4925163 135.0109992   6.7184990  95.6679997
 134.9659992   7.6574990  95.8469997 134.1229992   6.4824990  95.3979997
 134.8848472   6.8151946  95.6560282 135.8189992   1.4994990 104.3409997
 135.5899992   1.5584990 103.4139997 135.3759992   0.7084990 104.6479997
 135.7277387   1.4006412 104.2555223 134.7489992  15.4404990 100.5019997
 133.9169992  15.9124990 100.5289997 135.2949992  15.9504990  99.9029997
 134.7088710  15.5740317 100.4247570 138.2859992  12.2064990  94.9179997
 138.3499992  11.4124990  95.4489997 138.9389992  12.0884990  94.2289997
 138.3831168  12.0817748  94.8975119 139.4349992  10.1794990  97.2239997
 138.9759992   9.6954990  97.9099997 139.6899992   9.5104990  96.5879997
 139.4066178  10.0228511  97.2319785 128.7739992   4.1444990  84.5439997
 128.5589992   3.3784990  85.0759997 129.4299992   4.6164990  85.0569997
 128.8332451   4.1034472  84.6861699 138.7239992   8.0724990 109.5799997
 138.1059992   8.7464990 109.8609997 139.0679992   8.3934990 108.7469997
 138.6858181   8.2083233 109.5058266 139.4759992   3.7964990 108.1549997
 140.0119992   4.2484990 107.5029997 138.6239992   3.6884990 107.7329997
 139.4341648   3.8437883 108.0086395 133.9719992  13.7494990  95.9709997
 134.8859992  13.8284990  96.2439997 133.9789992  13.0624990  95.3039997
 134.0980769  13.6674735  95.9182366 132.6209992  19.1424990 101.0479997
 131.9739992  18.6804990 100.5149997 132.9759992  18.4704990 101.6309997
 132.5803861  18.9884707 101.0537939 133.4909992  17.2224990 102.8529997
 133.1569992  16.3424990 103.0249997 133.7129992  17.5684990 103.7169997
 133.4752677  17.1487366 102.9934252 133.5709992  10.2984990 105.3039997
 133.7549992  10.2164990 104.3689997 134.4199992  10.1744990 105.7279997
 133.7110259  10.2704915 105.2331771 134.3899992   3.8814990 104.3359997
 134.8349992   3.0894990 104.6379997 134.8559992   4.5974990 104.7669997
 134.5139059   3.8699485 104.4356061 132.6939992   6.8804990 105.4049997
 133.1859992   6.6594990 104.6149997 133.0559992   7.7204990 105.6859997
 132.8103429   6.9638220 105.3347918 133.0069992   3.1384990  99.4599997
 132.0819992   3.3464990  99.3299997 133.4609992   3.6224990  98.7699997
 132.9417401   3.2323895  99.3489433 132.9709992   1.8764990 107.8039997
 132.3059992   1.6304990 108.4469997 132.5279992   2.4984990 107.2269997
 132.8201168   1.9269225 107.8139830 117.6919992   5.5324990  86.1889997
 118.3049992   6.1654990  86.5619997 118.2039992   5.0604990  85.5319997
 117.8451680   5.5554006  86.1512830 138.1169992  16.0254990 108.2069997
 137.6919992  16.8354990 107.9239997 139.0209992  16.1114990 107.9049997
 138.1811002  16.1478728 108.1274798 135.5189992  19.2824990 108.2539997
 134.7979992  19.7224990 107.8029997 135.1529992  19.0314990 109.1029997
 135.3709785  19.3087691 108.3069849 137.9859992  18.8824990 107.2839997
 137.1209992  18.9544990 107.6879997 137.9309992  19.4294990 106.4999997
 137.8602066  18.9662678 107.2333371 134.9339992  17.9054990 105.1649997
 134.9149992  17.4794990 106.0219997 135.7379992  17.5864990 104.7559997
 135.0401393  17.8040297 105.2270155 137.0749992  16.6154990 103.8199997
 136.8559992  15.6984990 103.9889997 137.8989992  16.7554990 104.2859997
 137.1564637  16.5089586 103.9061414 135.4469992   1.3834990 101.6349997
 134.6699992   1.1484990 101.1269997 135.9779992   0.5864990 101.6439997
 135.4124443   1.2436721 101.5667200 134.2839992   1.1814990  97.4379997
 134.7229992   1.7924990  96.8469997 133.6499992   1.7194990  97.9119997
 134.2584103   1.3379233  97.4211376 134.1849992  17.1294990  98.3359997
 133.4999992  17.0914990  97.6679997 134.1879992  18.0414990  98.6239997
 134.0917358  17.2476744  98.2836145 136.1449992   3.0974990  95.8809997
 136.6359992   2.4674990  95.3529997 136.7679992   3.3934990  96.5439997
 136.2965459   3.0512419  95.8983667 136.0029992  18.0494990  95.3609997
 135.7349992  18.3354990  96.2339997 136.7739992  17.5034990  95.5129997
 136.0705600  18.0148341  95.5011482 119.0739992  13.2804990  89.3109997
 119.0689992  14.1594990  88.9329997 118.2209992  13.1964990  89.7359997
 118.9579199  13.3895901  89.3166942  12.5339992  29.3954990 101.5929997
  12.6229992  30.3394990 101.4609997  11.8949992  29.1204990 100.9349997
  12.4598319  29.4874984 101.4860276  11.4669992  28.6504990 105.0119997
  11.4279992  28.0044990 105.7169997  11.1439992  28.1834990 104.2409997
  11.4180199  28.4990089 105.0042865   3.8349992  28.2644990 106.6049997
   3.8759992  27.6394990 107.3289997   4.5379992  28.8884990 106.7869997
   3.9356054  28.2633262 106.7286311  15.1729992  31.5894990 103.3139997
  14.7319992  30.8694990 103.7639997  15.1599992  32.3104990 103.9439997
  15.1108398  31.5883187 103.4607734   4.7589992  32.7144990 105.1399997
   4.3889992  31.9124990 104.7709997   5.6999992  32.5464990 105.1869997
   4.8355630  32.5818680 105.0957873   1.3689992  26.3744990 100.5329997
   0.9209992  27.2204990 100.5149997   0.8079992  25.7954990 100.0179997
   1.2318546  26.4119004 100.4608874   2.0789992  28.5364990 102.6589997
   2.2929992  27.7664990 103.1859997   2.8169992  28.6264990 102.0559997
   2.2080073  28.4433546 102.6495786  12.2839992  36.6934990 103.5259997
  12.9039992  36.0174990 103.2529997  12.0759992  36.4754990 104.4339997
  12.3407360  36.5714792 103.6114387   9.8559992  31.0824990 105.4179997
  10.1599992  30.3964990 104.8239997  10.5779992  31.2014990 106.0359997
   9.9951152  31.0047201 105.4202106  18.5189992  22.6844990 106.2789997
  18.5679992  23.2944990 107.0149997  18.9449992  23.1454990 105.5559997
  18.5832851  22.8303266 106.2820532 115.1959992  12.9514990  80.0929997
 114.9239992  13.1804990  79.2039997 115.2409992  13.7884990  80.5529997
 115.1648709  13.0961069  80.0336089  12.9969992  25.4764990 105.7459997
  13.1389992  24.5304990 105.7659997  12.8909992  25.6834990 104.8169997
  13.0021158  25.3749722 105.6232241   6.1519992  23.5784990 103.0179997
   6.1949992  24.4384990 102.5999997   5.6939992  23.0254990 102.3849997
   6.0959613  23.6215689 102.8751276  13.8739992  23.7094990 101.4189997
  14.5199992  23.3804990 102.0439997  14.3839992  24.2264990 100.7959997
  14.0314392  23.7343710 101.4203248   2.7719992  25.9754990 103.7799997
   3.4259992  25.4254990 104.2119997   2.7959992  25.7014990 102.8639997
   2.8647022  25.8632005 103.7151698   7.9279992  27.5254990 102.9959997
   8.5439992  26.9984990 103.5049997   7.3419992  26.8854990 102.5919997
   7.9330652  27.3668919 103.0110277  18.9109992  24.1624990 108.5149997
  18.2219992  24.8204990 108.4199997  18.9259992  23.9644990 109.4519997
  18.8187756  24.2257614 108.6285795   4.9619992  22.4964990 107.0919997
   4.7429992  23.0264990 106.3259997   4.2939992  22.7224990 107.7399997
   4.8417271  22.5996508 107.0746206  12.3309992  31.9964990 100.6359997
  12.0349992  31.6734990  99.7849997  12.0069992  32.8964990 100.6779997
  12.2466501  32.0739058 100.5250893   7.5309992  30.1714990 107.3799997
   6.7909992  30.7704990 107.4829997   8.2449992  30.7254990 107.0639997
   7.5263288  30.3282368 107.3513787  15.6379992  23.0004990 103.3999997
  15.4229992  22.2344990 103.9319997  16.2939992  23.4724990 103.9129997
  15.6972451  22.9594472 103.5421699 128.8209992  14.5724990  86.8059997
 127.8789992  14.6314990  86.9669997 129.0969992  15.4784990  86.6689997
 128.7295771  14.7030270  86.8094827   4.5559992  24.3884990 105.0449997
   5.1689992  25.0214990 105.4179997   5.0679992  23.9164990 104.3879997
   4.7091680  24.4114006 105.0072830   5.9379992  32.1364990 108.1669997
   5.9329992  33.0154990 107.7889997   5.0849992  32.0524990 108.5919997
   5.8219199  32.2455901 108.1726942   2.0599992  31.8074990  98.9489997
   1.7879992  32.0364990  98.0599997   2.1049992  32.6444990  99.4089997
   2.0288709  31.9521069  98.8896089  15.6849992  33.4284990 105.6619997
  14.7429992  33.4874990 105.8229997  15.9609992  34.3344990 105.5249997
  15.5935771  33.5590270 105.6654827  15.9849992  21.7154990 107.0789997
  15.2489992  22.3254990 107.0409997  16.6689992  22.1304990 106.5529997
  15.9765885  21.8551924 107.0026931   8.9879992  19.8014990 104.5449997
   8.8709992  18.8534990 104.4909997   8.1329992  20.1344990 104.8179997
   8.8563691  19.7165842 104.5745072  13.9369992  35.2094990 102.2869997
  14.3619992  34.5024990 101.8019997  14.2539992  36.0114990 101.8699997
  14.0380266  35.2210201 102.1642461  15.0959992  33.1104990 100.7959997
  14.8389992  32.4204990 100.1839997  15.1669992  32.6674990 101.6409997
  15.0704322  32.9561568 100.8265372  16.7819992  31.6774990 109.2729997
  16.9219992  31.0854990 108.5339997  16.9499992  32.5504990 108.9169997
  16.8238734  31.7144041 109.1236937  11.2549992  28.6394990  99.0449997
  10.5429992  29.1744990  98.6939997  11.9459992  28.6944990  98.3849997
  11.2508696  28.7202591  98.9076372 129.1209992   2.8594990  88.2229997
 128.3849992   3.4694990  88.1849997 129.8049992   3.2744990  87.6969997
 129.1125885   2.9991924  88.1466931  11.3089992  27.0964990  96.0839997
  12.0099992  27.1194990  96.7349997  11.6109992  26.4684990  95.4279997
  11.4458282  27.0147350  96.0844478  18.6239992  28.0174990 107.3389997
  17.9719992  28.7114990 107.4279997  19.0889992  28.2274990 106.5289997
  18.5975357  28.1409544 107.2417056  14.6609992  28.8484990  99.9969997
  13.9289992  29.0774990 100.5699997  15.1079992  28.1354990 100.4519997
  14.6212753  28.7833984 100.1369698  14.5579992  27.0234990 109.0649997
  14.6379992  27.7864990 109.6369997  13.9569992  27.3024990 108.3739997
  14.4877115  27.1657707 109.0499631   6.3059992  29.4794990 101.8799997
   5.9759992  29.1084990 101.0609997   6.8939992  28.8084990 102.2259997
   6.3404056  29.3381257 101.8149035   7.6729992  32.9074990 104.5609997
   7.5779992  32.3284990 103.8039997   8.4019992  32.5364990 105.0569997
   7.7586161  32.7780902 104.5245192   6.6729992  28.2474990 105.5129997
   7.2379992  28.3694990 104.7499997   6.9909992  28.8854990 106.1519997
   6.7933430  28.3504448 105.4949094  12.9819992  33.7514990 106.2469997
  12.7409992  34.4134990 106.8949997  12.7839992  32.9164990 106.6719997
  12.9222662  33.7292704 106.3931008  13.5319992  28.0114990  97.6819997
  14.1109992  28.1614990  98.4289997  13.9459992  28.4814990  96.9589997
  13.6673122  28.0956288  97.6865024   4.4729992  28.8454990 109.4589997
   4.5429992  29.4964990 110.1569997   3.5819992  28.9484990 109.1239997
   4.3621802  28.9484769 109.5092231 122.1239992   0.9454990  85.6889997
 122.0069992  -0.0025010  85.6349997 121.2689992   1.2784990  85.9619997
 121.9923691   0.8605842  85.7185072  11.2579992  34.7474990 101.1179997
  11.7319992  35.0434990 101.8949997  10.6949992  35.4864990 100.8839997
  11.2468460  34.8878336 101.1927626  17.2299992  19.7614990  97.4949997
  16.3299992  19.8994990  97.7899997  17.4819992  20.5924990  97.0929997
  17.1407355  19.8928200  97.4810539   5.2959992  28.5484990  99.4689997
   5.0039992  29.3164990  98.9779997   4.6219992  27.8894990  99.3059997
   5.1648843  28.5644537  99.3797695  18.4199992  34.1274990  95.8719997
  18.4929992  35.0664990  96.0419997  19.3249992  33.8224990  95.8149997
  18.5524168  34.2148531  95.8875736   1.3889992  30.9114990 108.2839997
   0.8879992  30.8834990 107.4689997   1.3949992  30.0064990 108.5939997
   1.3211690  30.7852234 108.2142770   1.1399992  33.6924990 105.1679997
   2.0859992  33.5474990 105.1489997   1.0269992  34.4764990 105.7049997
   1.2543578  33.7786708 105.2380300  10.3159992  33.9324990 109.7259997
  10.4029992  34.7584990 110.2009997   9.4519992  33.6024990 109.9749997
  10.2111944  34.0009871 109.8246558  10.7299992  37.7044990  99.5319997
  10.6549992  37.5834990  98.5859997  10.7629992  38.6534990  99.6509997
  10.7241862  37.8162492  99.4184840   4.3839992  36.4934990 101.3129997
   4.5359992  36.1454990 102.1919997   3.5329992  36.1364990 101.0579997
   4.2897899  36.3976749 101.3987322  13.8319992  36.8584990  96.5349997
  14.2069992  36.1144990  96.0639997  13.8359992  36.5884990  97.4529997
  13.8838969  36.7200920  96.5946475 127.0729992  16.3534990  83.4309997
 127.4979992  15.6464990  82.9459997 127.3899992  17.1554990  83.0139997
 127.1740266  16.3650201  83.3082461  13.5009992  36.7844990  99.2839997
  12.5659992  36.8844990  99.4629997  13.7809992  36.0744990  99.8619997
  13.4109270  36.7022300  99.3865984   3.6379992  32.2354990 109.3269997
   3.8539992  31.8734990 110.1869997   2.7829992  31.8604990 109.1169997
   3.5519349  32.1352914 109.4162134   6.2569992  20.7054990 105.3229997
   5.3949992  20.6184990 104.9149997   6.2349992  21.5614990 105.7499997
   6.1360953  20.8093558 105.3249262  10.9199992  20.4274990 108.6969997
  11.3399992  20.0124990 109.4499997   9.9869992  20.2484990 108.8139997
  10.8513736  20.3464921 108.8158950  14.2459992  24.1824990 109.5509997
  13.7319992  24.0574990 110.3479997  14.0909992  25.0954990 109.3059997
  14.1546643  24.2887068 109.6270624  15.0089992  29.0434990  95.3119997
  15.0509992  28.8214990  94.3819997  15.8579992  29.4424990  95.5019997
  15.1295253  29.0670510  95.2103804  10.5819992  22.9194990  95.9819997
  10.3279992  22.9384990  96.9049997  10.3249992  22.0484990  95.6809997
  10.5125133  22.8043121  96.0675065   6.3479992  25.6704990 106.4179997
   5.7059992  25.6304990 107.1269997   6.3849992  26.5974990 106.1799997
   6.2651659  25.7902540 106.4828463   6.3449992  25.8914990 101.3299997
   5.4519992  25.5514990 101.2709997   6.7959992  25.5144990 100.5739997
   6.2837185  25.7940220 101.2197698  11.8809992  26.3074990 100.1469997
  11.4719992  27.1224990  99.8549997  12.6009992  26.1674990  99.5319997
  11.9223946  26.3999963 100.0239616 128.2319992  14.2544990  81.9399997
 127.9749992  13.5644990  81.3279997 128.3029992  13.8114990  82.7849997
 128.2064322  14.1001568  81.9705372  12.8849992  25.7534990 102.9609997
  12.6899992  26.3594990 102.2459997  13.0669992  24.9204990 102.5259997
  12.8829272  25.7237955 102.8044075   4.0979992  25.9914990 108.2849997
   4.0599992  26.3914990 109.1529997   3.6069992  25.1744990 108.3749997
   4.0264246  25.9358842 108.4161171   7.4639992  23.3654990  95.0829997
   7.0329992  22.9204990  95.8129997   6.7459992  23.7364990  94.5709997
   7.3079363  23.3547979  95.1136194   0.7059992  23.1074990 102.1349997
   1.3369992  23.0784990 102.8549997   1.1559992  22.6824990 101.4049997
   0.8530905  23.0460839 102.1347479   1.9799992  23.8534990  97.5589997
   2.4549992  24.4444990  96.9739997   1.2629992  24.3834990  97.9059997
   1.9480406  24.0061011  97.5258495  12.1489992  27.3914990 107.6319997
  12.4729992  26.7604990 106.9889997  11.7089992  26.8574990 108.2929997
  12.1338707  27.2328261 107.6333195   8.9269992  23.3194990 102.4159997
   8.0159992  23.3764990 102.7049997   9.4319992  23.2594990 103.2269997
   8.8706873  23.3191838 102.5651190   3.7549992  24.9484990 101.2429997
   2.8659992  25.0474990 100.9029997   4.0509992  24.1064990 100.8969997
   3.6734001  24.8482473 101.1497318   7.4079992  24.9484990  98.8989997
   8.3399992  25.0774990  99.0769997   7.1929992  25.6174990  98.2499997
   7.5064245  25.0566452  98.8355602  13.3319992  22.5544990 105.6799997
  12.6549992  22.6854990 106.3439997  12.8459992  22.3994990 104.8699997
  13.1737265  22.5514665 105.6613380 129.9179992  12.8214990  90.4169997
 130.0579992  12.2294990  89.6779997 130.0859992  13.6944990  90.0609997
 129.9598734  12.8584041  90.2676937   6.0819992  26.1424990  96.4659997
   5.5399992  25.7634990  95.7749997   6.9159992  26.3374990  96.0369997
   6.1204283  26.1169383  96.3134298  10.2469992  26.1064990 104.3029997
  10.8109992  25.5604990 103.7559997  10.0989992  25.5854990 105.0919997
  10.3043037  25.9611798 104.3347212   5.2489992  22.2434990 100.7209997
   4.9309992  21.3404990 100.6859997   6.0299992  22.2454990 100.1689997
   5.3111560  22.1201148 100.6414975   8.8729992  24.4954990 106.7169997
   8.0379992  24.9494990 106.8269997   9.3969992  24.7714990 107.4689997
   8.8295070  24.5949677 106.8337134   9.4169992  30.7084990  98.4019997
   8.6719992  30.2004990  98.0789997   9.2829992  30.7574990  99.3479997
   9.2968633  30.6455714  98.4857563  16.5669992  29.8414990 107.1879997
  17.2089992  30.2974990 106.6449997  15.7369992  29.9544990 106.7259997
  16.5427352  29.9193223 107.0510234  13.3149992  23.5224990  96.6009997
  12.3759992  23.6334990  96.4499997  13.6119992  24.3784990  96.9069997
  13.2266371  23.6535327  96.6217362  10.9369992  30.8924990 109.6389997
  10.5909992  30.5104990 110.4449997  10.7369992  31.8254990 109.7099997
  10.8625400  30.9663489 109.7590401  14.0329992  25.3894990  98.2619997
  14.9249992  25.2514990  98.5809997  14.0899992  26.1804990  97.7249997
  14.1627380  25.4774777  98.2330981   4.5419992  30.0034990 104.1709997
   5.2869992  30.0004990 103.5699997   4.6199992  29.1794990 104.6529997
   4.6544158  29.8917928 104.1539136 124.3909992   9.7834990  80.1889997
 123.6789992  10.3184990  79.8379997 125.0819992   9.8384990  79.5289997
 124.3868696   9.8642591  80.0516372  11.5429992  32.1664990  97.4269997
  11.2479992  32.9934990  97.8089997  10.8399992  31.5474990  97.6229997
  11.4075855  32.1959458  97.5057634   1.5499992  28.4634990 109.4859997
   1.7729992  28.0454990 110.3179997   0.9479992  27.8514990 109.0639997
   1.4990802  28.3235216 109.5427561  13.1869992  33.3544990 109.5889997
  12.2859992  33.5374990 109.3209997  13.2209992  33.6134990 110.5099997
  13.0683021  33.4145505 109.6768206  18.9179992  25.5984990  97.9559997
  18.3639992  25.2024990  97.2839997  19.0189992  26.5094990  97.6789997
  18.8557084  25.6673565  97.8264381  17.2129992  34.3844990  98.4209997
  16.8409992  33.5594990  98.7309997  17.4909992  34.2014990  97.5239997
  17.1995997  34.2466160  98.3421551  14.3739992  29.1924990 105.4429997
  13.4459992  28.9614990 105.4159997  14.8249992  28.4154990 105.1129997
  14.3078165  29.0557785 105.3946772   6.9169992  33.5214990 101.5759997
   7.4439992  34.2944990 101.3749997   6.0369992  33.7454990 101.2739997
   6.8701793  33.6576652 101.5076304   2.6719992  28.3834990  96.1629997
   3.2879992  29.0104990  96.5419997   1.8099992  28.6994990  96.4339997
   2.6398195  28.5120810  96.2515369   8.3439992  31.1844990 101.1519997
   8.1029992  32.1094990 101.1939997   7.6039992  30.7254990 101.5479997
   8.2108934  31.2490881 101.2113191   8.8589992  35.3334990 107.4669997
   9.2219992  36.1874990 107.2339997   9.3909992  35.0414990 108.2079997
   8.9805141  35.4108907 107.5352079 124.4449992   8.2404990  77.2279997
 125.1459992   8.2634990  77.8789997 124.7469992   7.6124990  76.5719997
 124.5818282   8.1587350  77.2284478   7.0269992  36.2054990 100.6969997
   6.0779992  36.3114990 100.7489997   7.3789992  37.0264990 101.0419997
   6.9446214  36.3309361 100.7507317  12.4029992  31.4324990 107.1679997
  11.9769992  31.2044990 107.9939997  12.9839992  30.6934990 106.9849997
  12.4231587  31.3014084 107.2564111  14.6059992  32.3614990  96.2419997
  14.9589992  31.9814990  97.0459997  13.6569992  32.2674990  96.3279997
  14.5260985  32.2967330  96.3637738  15.0619992  35.9844990 109.6369997
  14.4599992  35.4284990 109.1419997  15.3429992  36.6514990 109.0109997
  15.0175757  35.9985755 109.4845657  19.1089992  36.8404990  96.4429997
  19.8529992  37.4264990  96.3029997  18.4149992  37.4094990  96.7759997
  19.1169809  36.9975830  96.4688572   3.1839992  23.2174990 109.0439997
   2.2909992  23.5554990 108.9769997   3.0849992  22.3614990 109.4619997
   3.0485241  23.1480941 109.0912982  15.4719992  31.0334990  98.4679997
  15.1949992  30.3054990  99.0239997  16.3989992  31.1524990  98.6739997
  15.5594181  30.9500068  98.5718972   2.8349992  35.0214990 107.4789997
   3.0519992  34.0894990 107.4479997   3.0819992  35.2964990 108.3629997
   2.8980543  34.9310877 107.5941412   8.6969992  33.4734990  94.6889997
   8.9359992  32.7244990  94.1409997   8.4279992  33.0854990  95.5209997
   8.6932804  33.3186524  94.7266352   7.6339992  33.0434990  97.1449997
   7.7809992  32.5234990  97.9349997   7.6309992  33.9504990  97.4509997
   7.6537300  33.0948975  97.2945877 131.7599992   9.1614990  88.4829997
 131.1079992   9.8554990  88.5719997 132.2249992   9.3714990  87.6729997
 131.7335357   9.2849544  88.3857056   4.0869992  30.2954990  97.6549997
   3.4009992  30.6484990  98.2219997   4.6099992  31.0584990  97.4089997
   4.0639033  30.4468757  97.6992644  11.9179992  22.9584990 107.9339997
  12.6169992  23.0324990 108.5839997  11.5379992  22.0934990 108.0889997
  11.9622095  22.8517402 108.0437982  12.7029992  22.6104990  99.0309997
  12.9229992  23.0814990  98.2279997  13.2609992  23.0044990  99.7019997
  12.8085851  22.7283272  99.0116134  10.3719992  34.7404990  97.8939997
   9.5549992  35.2374990  97.9469997  10.9009992  35.2164990  97.2539997
  10.3317898  34.8728123  97.8147274   9.9029992  24.3384990  99.8659997
  10.7149992  24.8424990  99.9119997   9.6579992  24.1934990 100.7799997
   9.9811091  24.3879366  99.9958552  10.4389992  25.3244990 109.0509997
  10.5579992  25.8984990 109.8079997  11.0939992  24.6364990 109.1659997
  10.5438684  25.3100205 109.1701656  10.7869992  21.4194990 100.8039997
  10.4399992  22.0364990 101.4489997  11.4449992  21.9204990 100.3229997
  10.8285290  21.5716384 100.8271635   7.7099992  35.7844990  97.8759997
   7.8709992  36.5844990  97.3749997   7.5129992  36.0914990  98.7609997
   7.7053919  35.9354140  97.9270988   6.4439992  22.4824990  97.4919997
   6.3609992  23.3704990  97.8379997   7.3339992  22.2174990  97.7229997
   6.5529751  22.5682482  97.5706066  16.6429992  23.2314990 109.8859997
  15.7269992  23.4934990 109.7979997  16.9789992  23.2284990 108.9889997
  16.5629789  23.2669637 109.7527829 127.7969992   9.9924990  81.1409997
 127.0649992  10.2214990  81.7139997 128.2439992   9.2794990  81.5959997
 127.7572753   9.9273984  81.2809698  15.2449992  26.9814990 103.9819997
  14.4479992  26.5664990 103.6529997  15.6899992  26.2914990 104.4729997
  15.1960317  26.8313197 104.0033556   4.7029992  32.9094990  96.5519997
   5.2949992  33.6094990  96.8279997   5.1619992  32.4764990  95.8329997
   4.8461172  32.9467371  96.4925163   3.0189992  25.5744990  95.6679997
   2.9739992  26.5134990  95.8469997   2.1309992  25.3384990  95.3979997
   2.8928472  25.6711946  95.6560282  16.3319992  36.2374990 105.6039997
  16.1759992  36.9164990 104.9469997  17.2639992  36.3094990 105.8069997
  16.4367328  36.3401586 105.5415529   3.8269992  20.3554990 104.3409997
   3.5979992  20.4144990 103.4139997   3.3839992  19.5644990 104.6479997
   3.7357387  20.2566412 104.2555223   2.7569992  34.2964990 100.5019997
   1.9249992  34.7684990 100.5289997   3.3029992  34.8064990  99.9029997
   2.7168710  34.4300317 100.4247570  10.7349992  35.3364990  94.8269997
  10.0909992  34.7054990  95.1489997  11.4969992  34.8054990  94.5949997
  10.7498260  35.1783035  94.8397298  15.3389992  35.1534990  95.0609997
  15.6219992  34.3584990  95.5139997  16.0789992  35.3864990  94.4999997
  15.4777295  35.0762349  95.0471469   6.2939992  31.0624990  94.9179997
   6.3579992  30.2684990  95.4489997   6.9469992  30.9444990  94.2289997
   6.3911168  30.9377748  94.8975119  11.6459992  32.1094990  94.6539997
  11.3779992  32.2904990  95.5549997  11.4399992  31.1844990  94.5229997
  11.5814251  32.0091528  94.7596809 127.6939992   8.1674990  90.2089997
 127.7739992   8.9304990  90.7809997 127.0929992   8.4464990  89.5179997
 127.6237115   8.3097707  90.1939631  14.3429992  30.6044990 109.6019997
  15.0879992  31.1934990 109.4819997  13.5849992  31.1864990 109.6649997
  14.3425185  30.7637000 109.5940940   7.4429992  29.0354990  97.2239997
   6.9839992  28.5514990  97.9099997   7.6979992  28.3664990  96.5879997
   7.4146178  28.8788511  97.2319785   6.7319992  26.9284990 109.5799997
   6.1139992  27.6024990 109.8609997   7.0759992  27.2494990 108.7469997
   6.6938181  27.0643233 109.5058266   8.5139992  27.2784990  95.4869997
   8.3339992  27.1234990  94.5589997   9.4639992  27.3864990  95.5309997
   8.6178016  27.2719264  95.3662123  17.9039992  29.6324990  94.9319997
  17.6309992  29.2084990  94.1189997  17.9439992  30.5644990  94.7149997
  17.8720201  29.7003523  94.7913548   7.4839992  22.6524990 108.1549997
   8.0199992  23.1044990 107.5029997   6.6319992  22.5444990 107.7329997
   7.4421648  22.6997883 108.0086395   9.0659992  28.0924990 108.3949997
   9.8169992  27.9364990 107.8219997   8.7269992  28.9444990 108.1189997
   9.1229052  28.1862745 108.2793469   8.2899992  20.1094990 108.5869997
   8.1919992  21.0554990 108.4809997   7.5469992  19.7364990 108.1109997
   8.1762363  20.1885987 108.5082029   8.4119992  37.9684990  96.4879997
   9.3449992  38.1264990  96.6319997   8.1469992  38.6444990  95.8629997
   8.5039846  38.0814567  96.4232930   1.9799992  32.6054990  95.9709997
   2.8939992  32.6844990  96.2439997   1.9869992  31.9184990  95.3039997
   2.1060769  32.5234735  95.9182366 119.4419992  10.6234990  83.0239997
 119.1119992  10.2524990  82.2049997 120.0299992   9.9524990  83.3699997
 119.4764056  10.4821257  82.9589035   0.6289992  37.9984990 101.0479997
  -0.0180008  37.5364990 100.5149997   0.9839992  37.3264990 101.6309997
   0.5883861  37.8444707 101.0537939   1.4989992  36.0784990 102.8529997
   1.1649992  35.1984990 103.0249997   1.7209992  36.4244990 103.7169997
   1.4832677  36.0047365 102.9934252  19.0479992  36.8884990 105.8329997
  19.0259992  37.0734990 106.7719997  19.7379992  37.4564990 105.4919997
  19.1383439  36.9906898 105.9154774  18.6109992  36.4554990 108.7549997
  18.1239992  35.7194990 108.3839997  19.1599992  36.0614990 109.4329997
  18.6186101  36.3016267 108.7959034  18.3629992  30.5014990  98.9069997
  19.2129992  30.9224990  99.0349997  18.3679992  29.7614990  99.5149997
  18.4799745  30.4591347  99.0066479  18.7569992  28.5554990 100.7309997
  18.0309992  28.0754990 101.1289997  19.3379992  28.7604990 101.4629997
  18.7362504  28.5175592 100.8844199  18.5159992  31.3404990 105.6789997
  19.3499992  30.9624990 105.3979997  18.6279992  32.2834990 105.5599997
  18.6451917  31.4162954 105.6244844  17.0019992  34.2184990 107.9859997
  16.3549992  34.5434990 108.6109997  16.4849992  33.7774990 107.3109997
  16.8434068  34.2034726 107.9804918  19.0249992  28.4564990  97.1219997
  18.5039992  28.8124990  96.4029997  18.9919992  29.1314990  97.7999997
  18.9491525  28.5965273  97.1151408  17.3739992  25.6954990  95.6729997
  17.4709992  26.3624990  94.9929997  17.2339992  24.8804990  95.1909997
  17.3683428  25.6765667  95.5148311 120.8089992  14.0514990  85.7049997
 120.7139992  13.4724990  84.9479997 121.5379992  13.6804990  86.2009997
 120.8946161  13.9220902  85.6685192  16.5439992  27.0764990 101.2939997
  16.3939992  26.1314990 101.2739997  16.1899992  27.3574990 102.1379997
  16.4756351  26.9851656 101.4053202   1.5789992  29.1544990 105.3039997
   1.7629992  29.0724990 104.3689997   2.4279992  29.0304990 105.7279997
   1.7190259  29.1264915 105.2331771  16.6219992  23.1034990  94.7899997
  17.2319992  22.7324990  95.4269997  15.7849992  22.6824990  94.9859997
  16.5923704  22.9957942  94.9037077  16.2539992  24.6584990  99.7559997
  16.5339992  23.7514990  99.8809997  17.0129992  25.0924990  99.3669997
  16.3949471  24.5930654  99.7205052  16.8659992  25.2404990 105.1919997
  17.7989992  25.4524990 105.1579997  16.6309992  25.3414990 106.1149997
  16.9618357  25.2831303 105.3120232  16.8949992  25.9774990 107.9679997
  16.0519992  26.2454990 108.3339997  17.3379992  26.7994990 107.7569997
  16.8394358  26.1253294 107.9895999  16.8679992  21.9214990  99.8049997
  17.0499992  21.4724990 100.6299997  16.2679992  21.3374990  99.3409997
  16.8118187  21.7810563  99.8552721   2.3979992  22.7374990 104.3359997
   2.8429992  21.9454990 104.6379997   2.8639992  23.4534990 104.7669997
   2.5219059  22.7259485 104.4356061   0.7019992  25.7364990 105.4049997
   1.1939992  25.5154990 104.6149997   1.0639992  26.5764990 105.6859997
   0.8183428  25.8198220 105.3347918  18.7339992  21.9894990  96.3329997
  19.1469992  21.2684990  95.8569997  19.4159992  22.6584990  96.3909997
  18.8825712  21.9814304  96.2758247 119.8089992   9.3914990  86.6569997
 120.3739992   9.5134990  85.8939997 120.1269992  10.0294990  87.2959997
 119.9293430   9.4944448  86.6389094   1.0149992  21.9944990  99.4599997
   0.0899992  22.2024990  99.3299997   1.4689992  22.4784990  98.7699997
   0.9497401  22.0883895  99.3489433  15.7859992  36.9784990 101.4049997
  16.4379992  36.6304990 100.7969997  16.2969992  37.4664990 102.0509997
  15.9442872  36.9968248 101.4090964   0.9789992  20.7324990 107.8039997
   0.3139992  20.4864990 108.4469997   0.5359992  21.3544990 107.2269997
   0.8281168  20.7829225 107.8139830   6.1249992  34.8814990 108.2069997
   5.6999992  35.6914990 107.9239997   7.0289992  34.9674990 107.9049997
   6.1891002  35.0038728 108.1274798  17.6989992  20.1564990 109.4899997
  16.8859992  20.4814990 109.1019997  17.9319992  19.3954990 108.9569997
  17.6192566  20.0981570 109.3649196   3.5269992  38.1384990 108.2539997
   2.8059992  38.5784990 107.8029997   3.1609992  37.8874990 109.1029997
   3.3789785  38.1647691 108.3069849   5.9939992  37.7384990 107.2839997
   5.1289992  37.8104990 107.6879997   5.9389992  38.2854990 106.4999997
   5.8682066  37.8222678 107.2333371  10.7049992  37.6264990 106.4599997
  10.2479992  38.1554990 105.8059997  10.8669992  38.2294990 107.1849997
  10.6643919  37.7803990 106.4685740  13.0319992  36.5044990 107.4049997
  12.1279992  36.6694990 107.1389997  13.4609992  37.3574990 107.3389997
  12.9662017  36.6424184 107.3596495  15.6359992  38.0744990 107.6999997
  15.4549992  38.9904990 107.4889997  15.8129992  37.6634990 106.8529997
  15.6351377  38.1443365 107.5567178 126.1179992  14.8954990  87.3909997
 125.8769992  15.5574990  88.0389997 125.9199992  14.0604990  87.8159997
 126.0582662  14.8732704  87.5371008   2.9419992  36.7614990 105.1649997
   2.9229992  36.3354990 106.0219997   3.7459992  36.4424990 104.7559997
   3.0481393  36.6600297 105.2270155   5.0829992  35.4714990 103.8199997
   4.8639992  34.5544990 103.9889997   5.9069992  35.6114990 104.2859997
   5.1644637  35.3649586 103.9061414   7.6199992  35.9414990 104.6679997
   7.8329992  35.0534990 104.3809997   7.6849992  35.9064990 105.6229997
   7.6579075  35.8153318 104.7577355  11.1289992  21.6054990 103.8129997
  10.4539992  20.9754990 104.0679997  11.6929992  21.1214990 103.2099997
  11.1129558  21.4539283 103.7663451  16.2709992  19.7124990 103.9249997
  16.8749992  20.2604990 103.4239997  15.4019992  20.0314990 103.6849997
  16.2361126  19.8307070 103.8239180  17.9979992  20.8514990 102.2589997
  18.6099992  20.3374990 101.7319997  18.3809992  21.7284990 102.2819997
  18.1333867  20.8997613 102.1900888   3.4549992  20.2394990 101.6349997
   2.6779992  20.0044990 101.1269997   3.9859992  19.4424990 101.6439997
   3.4204443  20.0996721 101.5667200   2.2919992  20.0374990  97.4379997
   2.7309992  20.6484990  96.8469997   1.6579992  20.5754990  97.9119997
   2.2664103  20.1939233  97.4211376   8.0349992  20.1654990 101.4479997
   8.9089992  20.5544990 101.4179997   7.8989992  19.9504990 102.3709997
   8.1363125  20.1897120 101.5686523  13.5909992  20.1954990 103.0969997
  13.6679992  20.2914990 102.1479997  13.3159992  19.2884990 103.2259997
  13.5643407  20.0859188 102.9843532 120.6889992  13.7914990  91.3739997
 120.3769992  14.5734990  91.8299997 120.0389992  13.6384990  90.6879997
 120.5584643  13.8778019  91.3436657  14.9449992  20.2214990  98.7899997
  14.2419992  20.8364990  98.5799997  14.4999992  19.3844990  98.9209997
  14.7886550  20.1924679  98.7789819   2.1929992  35.9854990  98.3359997
   1.5079992  35.9474990  97.6679997   2.1959992  36.8974990  98.6239997
   2.0997358  36.1036744  98.2836145   4.1529992  21.9534990  95.8809997
   4.6439992  21.3234990  95.3529997   4.7759992  22.2494990  96.5439997
   4.3045459  21.9072419  95.8983667   9.1789992  22.2464990  98.3379997
   9.3569992  21.5994990  99.0209997   9.1249992  23.0804990  98.8049997
   9.1960678  22.2706615  98.4946283  11.0569992  37.1944990  96.7329997
  11.9229992  37.5614990  96.5549997  10.8099992  36.7554990  95.9199997
  11.1422041  37.1853648  96.5985958  17.7659992  36.7574990  99.4129997
  17.5719992  36.0094990  98.8479997  17.7269992  37.5154990  98.8289997
  17.7341907  36.7575770  99.2568077   4.0109992  36.9054990  95.3609997
   3.7429992  37.1914990  96.2339997   4.7819992  36.3594990  95.5129997
   4.0785600  36.8708341  95.5011482  31.3899992  29.3954990 101.5929997
  31.4789992  30.3394990 101.4609997  30.7509992  29.1204990 100.9349997
  31.3158319  29.4874984 101.4860276  30.3229992  28.6504990 105.0119997
  30.2839992  28.0044990 105.7169997  29.9999992  28.1834990 104.2409997
  30.2740199  28.4990089 105.0042865  22.6909992  28.2644990 106.6049997
  22.7319992  27.6394990 107.3289997  23.3939992  28.8884990 106.7869997
  22.7916054  28.2633262 106.7286311 117.6089992   9.9894990  90.6029997
 117.6789992  10.6404990  91.3009997 116.7179992  10.0924990  90.2679997
 117.4981802  10.0924769  90.6532231  34.0289992  31.5894990 103.3139997
  33.5879992  30.8694990 103.7639997  34.0159992  32.3104990 103.9439997
  33.9668398  31.5883187 103.4607734  23.6149992  32.7144990 105.1399997
  23.2449992  31.9124990 104.7709997  24.5559992  32.5464990 105.1869997
  23.6915630  32.5818680 105.0957873  20.2249992  26.3744990 100.5329997
  19.7769992  27.2204990 100.5149997  19.6639992  25.7954990 100.0179997
  20.0878546  26.4119004 100.4608874  20.9349992  28.5364990 102.6589997
  21.1489992  27.7664990 103.1859997  21.6729992  28.6264990 102.0559997
  21.0640073  28.4433546 102.6495786  31.1399992  36.6934990 103.5259997
  31.7599992  36.0174990 103.2529997  30.9319992  36.4754990 104.4339997
  31.1967360  36.5714792 103.6114387  28.7119992  31.0824990 105.4179997
  29.0159992  30.3964990 104.8239997  29.4339992  31.2014990 106.0359997
  28.8511152  31.0047201 105.4202106  37.3749992  22.6844990 106.2789997
  37.4239992  23.2944990 107.0149997  37.8009992  23.1454990 105.5559997
  37.4392851  22.8303266 106.2820532  31.8529992  25.4764990 105.7459997
  31.9949992  24.5304990 105.7659997  31.7469992  25.6834990 104.8169997
  31.8581158  25.3749722 105.6232241  25.0079992  23.5784990 103.0179997
  25.0509992  24.4384990 102.5999997  24.5499992  23.0254990 102.3849997
  24.9519613  23.6215689 102.8751276  32.7299992  23.7094990 101.4189997
  33.3759992  23.3804990 102.0439997  33.2399992  24.2264990 100.7959997
  32.8874392  23.7343710 101.4203248 124.3939992  15.8914990  82.2619997
 124.8679992  16.1874990  83.0389997 123.8309992  16.6304990  82.0279997
 124.3828460  16.0318336  82.3367626  21.6279992  25.9754990 103.7799997
  22.2819992  25.4254990 104.2119997  21.6519992  25.7014990 102.8639997
  21.7207022  25.8632005 103.7151698  26.7839992  27.5254990 102.9959997
  27.3999992  26.9984990 103.5049997  26.1979992  26.8854990 102.5919997
  26.7890652  27.3668919 103.0110277  37.7669992  24.1624990 108.5149997
  37.0779992  24.8204990 108.4199997  37.7819992  23.9644990 109.4519997
  37.6747756  24.2257614 108.6285795  23.8179992  22.4964990 107.0919997
  23.5989992  23.0264990 106.3259997  23.1499992  22.7224990 107.7399997
  23.6977271  22.5996508 107.0746206  31.1869992  31.9964990 100.6359997
  30.8909992  31.6734990  99.7849997  30.8629992  32.8964990 100.6779997
  31.1026501  32.0739058 100.5250893  26.3869992  30.1714990 107.3799997
  25.6469992  30.7704990 107.4829997  27.1009992  30.7254990 107.0639997
  26.3823288  30.3282368 107.3513787  34.4939992  23.0004990 103.3999997
  34.2789992  22.2344990 103.9319997  35.1499992  23.4724990 103.9129997
  34.5532451  22.9594472 103.5421699  23.4119992  24.3884990 105.0449997
  24.0249992  25.0214990 105.4179997  23.9239992  23.9164990 104.3879997
  23.5651680  24.4114006 105.0072830  24.7939992  32.1364990 108.1669997
  24.7889992  33.0154990 107.7889997  23.9409992  32.0524990 108.5919997
  24.6779199  32.2455901 108.1726942  20.9159992  31.8074990  98.9489997
  20.6439992  32.0364990  98.0599997  20.9609992  32.6444990  99.4089997
  20.8848709  31.9521069  98.8896089 118.9279992  15.8624990  92.1379997
 118.9359992  15.7264990  91.1899997 118.0119992  15.7454990  92.3899997
 118.8052512  15.8280664  92.0423179  34.5409992  33.4284990 105.6619997
  33.5989992  33.4874990 105.8229997  34.8169992  34.3344990 105.5249997
  34.4495771  33.5590270 105.6654827  34.8409992  21.7154990 107.0789997
  34.1049992  22.3254990 107.0409997  35.5249992  22.1304990 106.5529997
  34.8325885  21.8551924 107.0026931  27.8439992  19.8014990 104.5449997
  27.7269992  18.8534990 104.4909997  26.9889992  20.1344990 104.8179997
  27.7123691  19.7165842 104.5745072  32.7929992  35.2094990 102.2869997
  33.2179992  34.5024990 101.8019997  33.1099992  36.0114990 101.8699997
  32.8940266  35.2210201 102.1642461  33.9519992  33.1104990 100.7959997
  33.6949992  32.4204990 100.1839997  34.0229992  32.6674990 101.6409997
  33.9264322  32.9561568 100.8265372  35.6379992  31.6774990 109.2729997
  35.7779992  31.0854990 108.5339997  35.8059992  32.5504990 108.9169997
  35.6798734  31.7144041 109.1236937  30.1109992  28.6394990  99.0449997
  29.3989992  29.1744990  98.6939997  30.8019992  28.6944990  98.3849997
  30.1068696  28.7202591  98.9076372  30.1649992  27.0964990  96.0839997
  30.8659992  27.1194990  96.7349997  30.4669992  26.4684990  95.4279997
  30.3018282  27.0147350  96.0844478  37.4799992  28.0174990 107.3389997
  36.8279992  28.7114990 107.4279997  37.9449992  28.2274990 106.5289997
  37.4535357  28.1409544 107.2417056  33.5169992  28.8484990  99.9969997
  32.7849992  29.0774990 100.5699997  33.9639992  28.1354990 100.4519997
  33.4772753  28.7833984 100.1369698 130.3659992   0.9054990  78.6389997
 129.4659992   1.0434990  78.9339997 130.6179992   1.7364990  78.2369997
 130.2767355   1.0368200  78.6250539  33.4139992  27.0234990 109.0649997
  33.4939992  27.7864990 109.6369997  32.8129992  27.3024990 108.3739997
  33.3437115  27.1657707 109.0499631  25.1619992  29.4794990 101.8799997
  24.8319992  29.1084990 101.0609997  25.7499992  28.8084990 102.2259997
  25.1964056  29.3381257 101.8149035  26.5289992  32.9074990 104.5609997
  26.4339992  32.3284990 103.8039997  27.2579992  32.5364990 105.0569997
  26.6146161  32.7780902 104.5245192  25.5289992  28.2474990 105.5129997
  26.0939992  28.3694990 104.7499997  25.8469992  28.8854990 106.1519997
  25.6493430  28.3504448 105.4949094  31.8379992  33.7514990 106.2469997
  31.5969992  34.4134990 106.8949997  31.6399992  32.9164990 106.6719997
  31.7782662  33.7292704 106.3931008  32.3879992  28.0114990  97.6819997
  32.9669992  28.1614990  98.4289997  32.8019992  28.4814990  96.9589997
  32.5233122  28.0956288  97.6865024  23.3289992  28.8454990 109.4589997
  23.3989992  29.4964990 110.1569997  22.4379992  28.9484990 109.1239997
  23.2181802  28.9484769 109.5092231  30.1139992  34.7474990 101.1179997
  30.5879992  35.0434990 101.8949997  29.5509992  35.4864990 100.8839997
  30.1028460  34.8878336 101.1927626  36.0859992  19.7614990  97.4949997
  35.1859992  19.8994990  97.7899997  36.3379992  20.5924990  97.0929997
  35.9967355  19.8928200  97.4810539  24.1519992  28.5484990  99.4689997
  23.8599992  29.3164990  98.9779997  23.4779992  27.8894990  99.3059997
  24.0208843  28.5644537  99.3797695 118.4319992   9.6924990  80.6129997
 118.1399992  10.4604990  80.1219997 117.7579992   9.0334990  80.4499997
 118.3008843   9.7084537  80.5237695  37.2759992  34.1274990  95.8719997
  37.3489992  35.0664990  96.0419997  38.1809992  33.8224990  95.8149997
  37.4084168  34.2148531  95.8875736  20.2449992  30.9114990 108.2839997
  19.7439992  30.8834990 107.4689997  20.2509992  30.0064990 108.5939997
  20.1771690  30.7852234 108.2142770  19.9959992  33.6924990 105.1679997
  20.9419992  33.5474990 105.1489997  19.8829992  34.4764990 105.7049997
  20.1103578  33.7786708 105.2380300  29.1719992  33.9324990 109.7259997
  29.2589992  34.7584990 110.2009997  28.3079992  33.6024990 109.9749997
  29.0671944  34.0009871 109.8246558  29.5859992  37.7044990  99.5319997
  29.5109992  37.5834990  98.5859997  29.6189992  38.6534990  99.6509997
  29.5801862  37.8162492  99.4184840  23.2399992  36.4934990 101.3129997
  23.3919992  36.1454990 102.1919997  22.3889992  36.1364990 101.0579997
  23.1457899  36.3976749 101.3987322  32.6879992  36.8584990  96.5349997
  33.0629992  36.1144990  96.0639997  32.6919992  36.5884990  97.4529997
  32.7398969  36.7200920  96.5946475  32.3569992  36.7844990  99.2839997
  31.4219992  36.8844990  99.4629997  32.6369992  36.0744990  99.8619997
  32.2669270  36.7022300  99.3865984  22.4939992  32.2354990 109.3269997
  22.7099992  31.8734990 110.1869997  21.6389992  31.8604990 109.1169997
  22.4079349  32.1352914 109.4162134  25.1129992  20.7054990 105.3229997
  24.2509992  20.6184990 104.9149997  25.0909992  21.5614990 105.7499997
  24.9920953  20.8093558 105.3249262 131.5559992  15.2714990  77.0159997
 131.6289992  16.2104990  77.1859997 132.4609992  14.9664990  76.9589997
 131.6884168  15.3588531  77.0315736  29.7759992  20.4274990 108.6969997
  30.1959992  20.0124990 109.4499997  28.8429992  20.2484990 108.8139997
  29.7073736  20.3464921 108.8158950  33.1019992  24.1824990 109.5509997
  32.5879992  24.0574990 110.3479997  32.9469992  25.0954990 109.3059997
  33.0106643  24.2887068 109.6270624  33.8649992  29.0434990  95.3119997
  33.9069992  28.8214990  94.3819997  34.7139992  29.4424990  95.5019997
  33.9855253  29.0670510  95.2103804  29.4379992  22.9194990  95.9819997
  29.1839992  22.9384990  96.9049997  29.1809992  22.0484990  95.6809997
  29.3685133  22.8043121  96.0675065  25.2039992  25.6704990 106.4179997
  24.5619992  25.6304990 107.1269997  25.2409992  26.5974990 106.1799997
  25.1211659  25.7902540 106.4828463  25.2009992  25.8914990 101.3299997
  24.3079992  25.5514990 101.2709997  25.6519992  25.5144990 100.5739997
  25.1397185  25.7940220 101.2197698  30.7369992  26.3074990 100.1469997
  30.3279992  27.1224990  99.8549997  31.4569992  26.1674990  99.5319997
  30.7783946  26.3999963 100.0239616  31.7409992  25.7534990 102.9609997
  31.5459992  26.3594990 102.2459997  31.9229992  24.9204990 102.5259997
  31.7389272  25.7237955 102.8044075  22.9539992  25.9914990 108.2849997
  22.9159992  26.3914990 109.1529997  22.4629992  25.1744990 108.3749997
  22.8824246  25.9358842 108.4161171  26.3199992  23.3654990  95.0829997
  25.8889992  22.9204990  95.8129997  25.6019992  23.7364990  94.5709997
  26.1639363  23.3547979  95.1136194 114.5249992  12.0554990  89.4279997
 114.0239992  12.0274990  88.6129997 114.5309992  11.1504990  89.7379997
 114.4571690  11.9292234  89.3582770  19.5619992  23.1074990 102.1349997
  20.1929992  23.0784990 102.8549997  20.0119992  22.6824990 101.4049997
  19.7090905  23.0460839 102.1347479  20.8359992  23.8534990  97.5589997
  21.3109992  24.4444990  96.9739997  20.1189992  24.3834990  97.9059997
  20.8040406  24.0061011  97.5258495  31.0049992  27.3914990 107.6319997
  31.3289992  26.7604990 106.9889997  30.5649992  26.8574990 108.2929997
  30.9898707  27.2328261 107.6333195  27.7829992  23.3194990 102.4159997
  26.8719992  23.3764990 102.7049997  28.2879992  23.2594990 103.2269997
  27.7266873  23.3191838 102.5651190  22.6109992  24.9484990 101.2429997
  21.7219992  25.0474990 100.9029997  22.9069992  24.1064990 100.8969997
  22.5294001  24.8482473 101.1497318  26.2639992  24.9484990  98.8989997
  27.1959992  25.0774990  99.0769997  26.0489992  25.6174990  98.2499997
  26.3624245  25.0566452  98.8355602  32.1879992  22.5544990 105.6799997
  31.5109992  22.6854990 106.3439997  31.7019992  22.3994990 104.8699997
  32.0297265  22.5514665 105.6613380  24.9379992  26.1424990  96.4659997
  24.3959992  25.7634990  95.7749997  25.7719992  26.3374990  96.0369997
  24.9764283  26.1169383  96.3134298  29.1029992  26.1064990 104.3029997
  29.6669992  25.5604990 103.7559997  28.9549992  25.5854990 105.0919997
  29.1603037  25.9611798 104.3347212  24.1049992  22.2434990 100.7209997
  23.7869992  21.3404990 100.6859997  24.8859992  22.2454990 100.1689997
  24.1671560  22.1201148 100.6414975 114.2759992  14.8364990  86.3119997
 115.2219992  14.6914990  86.2929997 114.1629992  15.6204990  86.8489997
 114.3903578  14.9226708  86.3820300  27.7289992  24.4954990 106.7169997
  26.8939992  24.9494990 106.8269997  28.2529992  24.7714990 107.4689997
  27.6855070  24.5949677 106.8337134  28.2729992  30.7084990  98.4019997
  27.5279992  30.2004990  98.0789997  28.1389992  30.7574990  99.3479997
  28.1528633  30.6455714  98.4857563  35.4229992  29.8414990 107.1879997
  36.0649992  30.2974990 106.6449997  34.5929992  29.9544990 106.7259997
  35.3987352  29.9193223 107.0510234  32.1709992  23.5224990  96.6009997
  31.2319992  23.6334990  96.4499997  32.4679992  24.3784990  96.9069997
  32.0826371  23.6535327  96.6217362  29.7929992  30.8924990 109.6389997
  29.4469992  30.5104990 110.4449997  29.5929992  31.8254990 109.7099997
  29.7185400  30.9663489 109.7590401  32.8889992  25.3894990  98.2619997
  33.7809992  25.2514990  98.5809997  32.9459992  26.1804990  97.7249997
  33.0187380  25.4774777  98.2330981  23.3979992  30.0034990 104.1709997
  24.1429992  30.0004990 103.5699997  23.4759992  29.1794990 104.6529997
  23.5104158  29.8917928 104.1539136  30.3989992  32.1664990  97.4269997
  30.1039992  32.9934990  97.8089997  29.6959992  31.5474990  97.6229997
  30.2635855  32.1959458  97.5057634  20.4059992  28.4634990 109.4859997
  20.6289992  28.0454990 110.3179997  19.8039992  27.8514990 109.0639997
  20.3550802  28.3235216 109.5427561  32.0429992  33.3544990 109.5889997
  31.1419992  33.5374990 109.3209997  32.0769992  33.6134990 110.5099997
  31.9243021  33.4145505 109.6768206 132.4729992  15.5024990  91.9939997
 132.4239992  14.5464990  91.9569997 131.6469992  15.7694990  92.3959997
 132.3545767  15.4078841  92.0433133  37.7739992  25.5984990  97.9559997
  37.2199992  25.2024990  97.2839997  37.8749992  26.5094990  97.6789997
  37.7117084  25.6673565  97.8264381  36.0689992  34.3844990  98.4209997
  35.6969992  33.5594990  98.7309997  36.3469992  34.2014990  97.5239997
  36.0555997  34.2466160  98.3421551  33.2299992  29.1924990 105.4429997
  32.3019992  28.9614990 105.4159997  33.6809992  28.4154990 105.1129997
  33.1638165  29.0557785 105.3946772  25.7729992  33.5214990 101.5759997
  26.2999992  34.2944990 101.3749997  24.8929992  33.7454990 101.2739997
  25.7261793  33.6576652 101.5076304  21.5279992  28.3834990  96.1629997
  22.1439992  29.0104990  96.5419997  20.6659992  28.6994990  96.4339997
  21.4958195  28.5120810  96.2515369  27.1999992  31.1844990 101.1519997
  26.9589992  32.1094990 101.1939997  26.4599992  30.7254990 101.5479997
  27.0668934  31.2490881 101.2113191  27.7149992  35.3334990 107.4669997
  28.0779992  36.1874990 107.2339997  28.2469992  35.0414990 108.2079997
  27.8365141  35.4108907 107.5352079  25.8829992  36.2054990 100.6969997
  24.9339992  36.3114990 100.7489997  26.2349992  37.0264990 101.0419997
  25.8006214  36.3309361 100.7507317  31.2589992  31.4324990 107.1679997
  30.8329992  31.2044990 107.9939997  31.8399992  30.6934990 106.9849997
  31.2791587  31.3014084 107.2564111  33.4619992  32.3614990  96.2419997
  33.8149992  31.9814990  97.0459997  32.5129992  32.2674990  96.3279997
  33.3820985  32.2967330  96.3637738 123.4519992  15.0764990  90.8699997
 123.5389992  15.9024990  91.3449997 122.5879992  14.7464990  91.1189997
 123.3471944  15.1449871  90.9686558  33.9179992  35.9844990 109.6369997
  33.3159992  35.4284990 109.1419997  34.1989992  36.6514990 109.0109997
  33.8735757  35.9985755 109.4845657  37.9649992  36.8404990  96.4429997
  38.7089992  37.4264990  96.3029997  37.2709992  37.4094990  96.7759997
  37.9729809  36.9975830  96.4688572  22.0399992  23.2174990 109.0439997
  21.1469992  23.5554990 108.9769997  21.9409992  22.3614990 109.4619997
  21.9045241  23.1480941 109.0912982  34.3279992  31.0334990  98.4679997
  34.0509992  30.3054990  99.0239997  35.2549992  31.1524990  98.6739997
  34.4154181  30.9500068  98.5718972  21.6909992  35.0214990 107.4789997
  21.9079992  34.0894990 107.4479997  21.9379992  35.2964990 108.3629997
  21.7540543  34.9310877 107.5941412  27.5529992  33.4734990  94.6889997
  27.7919992  32.7244990  94.1409997  27.2839992  33.0854990  95.5209997
  27.5492804  33.3186524  94.7266352  26.4899992  33.0434990  97.1449997
  26.6369992  32.5234990  97.9349997  26.4869992  33.9504990  97.4509997
  26.5097300  33.0948975  97.2945877  22.9429992  30.2954990  97.6549997
  22.2569992  30.6484990  98.2219997  23.4659992  31.0584990  97.4089997
  22.9199033  30.4468757  97.6992644  30.7739992  22.9584990 107.9339997
  31.4729992  23.0324990 108.5839997  30.3939992  22.0934990 108.0889997
  30.8182095  22.8517402 108.0437982  31.5589992  22.6104990  99.0309997
  31.7789992  23.0814990  98.2279997  32.1169992  23.0044990  99.7019997
  31.6645851  22.7283272  99.0116134 123.8659992  18.8484990  80.6759997
 123.7909992  18.7274990  79.7299997 123.8989992  19.7974990  80.7949997
 123.8601862  18.9602492  80.5624840  29.2279992  34.7404990  97.8939997
  28.4109992  35.2374990  97.9469997  29.7569992  35.2164990  97.2539997
  29.1877898  34.8728123  97.8147274  28.7589992  24.3384990  99.8659997
  29.5709992  24.8424990  99.9119997  28.5139992  24.1934990 100.7799997
  28.8371091  24.3879366  99.9958552  29.2949992  25.3244990 109.0509997
  29.4139992  25.8984990 109.8079997  29.9499992  24.6364990 109.1659997
  29.3998684  25.3100205 109.1701656  29.6429992  21.4194990 100.8039997
  29.2959992  22.0364990 101.4489997  30.3009992  21.9204990 100.3229997
  29.6845290  21.5716384 100.8271635  26.5659992  35.7844990  97.8759997
  26.7269992  36.5844990  97.3749997  26.3689992  36.0914990  98.7609997
  26.5613919  35.9354140  97.9270988  25.2999992  22.4824990  97.4919997
  25.2169992  23.3704990  97.8379997  26.1899992  22.2174990  97.7229997
  25.4089751  22.5682482  97.5706066  35.4989992  23.2314990 109.8859997
  34.5829992  23.4934990 109.7979997  35.8349992  23.2284990 108.9889997
  35.4189789  23.2669637 109.7527829  34.1009992  26.9814990 103.9819997
  33.3039992  26.5664990 103.6529997  34.5459992  26.2914990 104.4729997
  34.0520317  26.8313197 104.0033556  23.5589992  32.9094990  96.5519997
  24.1509992  33.6094990  96.8279997  24.0179992  32.4764990  95.8329997
  23.7021172  32.9467371  96.4925163  21.8749992  25.5744990  95.6679997
  21.8299992  26.5134990  95.8469997  20.9869992  25.3384990  95.3979997
  21.7488472  25.6711946  95.6560282 117.5199992  17.6374990  82.4569997
 117.6719992  17.2894990  83.3359997 116.6689992  17.2804990  82.2019997
 117.4257899  17.5416749  82.5427322  35.1879992  36.2374990 105.6039997
  35.0319992  36.9164990 104.9469997  36.1199992  36.3094990 105.8069997
  35.2927328  36.3401586 105.5415529  22.6829992  20.3554990 104.3409997
  22.4539992  20.4144990 103.4139997  22.2399992  19.5644990 104.6479997
  22.5917387  20.2566412 104.2555223  21.6129992  34.2964990 100.5019997
  20.7809992  34.7684990 100.5289997  22.1589992  34.8064990  99.9029997
  21.5728710  34.4300317 100.4247570  29.5909992  35.3364990  94.8269997
  28.9469992  34.7054990  95.1489997  30.3529992  34.8054990  94.5949997
  29.6058260  35.1783035  94.8397298  34.1949992  35.1534990  95.0609997
  34.4779992  34.3584990  95.5139997  34.9349992  35.3864990  94.4999997
  34.3337295  35.0762349  95.0471469  25.1499992  31.0624990  94.9179997
  25.2139992  30.2684990  95.4489997  25.8029992  30.9444990  94.2289997
  25.2471168  30.9377748  94.8975119  30.5019992  32.1094990  94.6539997
  30.2339992  32.2904990  95.5549997  30.2959992  31.1844990  94.5229997
  30.4374251  32.0091528  94.7596809  33.1989992  30.6044990 109.6019997
  33.9439992  31.1934990 109.4819997  32.4409992  31.1864990 109.6649997
  33.1985185  30.7637000 109.5940940  26.2989992  29.0354990  97.2239997
  25.8399992  28.5514990  97.9099997  26.5539992  28.3664990  96.5879997
  26.2706178  28.8788511  97.2319785  25.5879992  26.9284990 109.5799997
  24.9699992  27.6024990 109.8609997  25.9319992  27.2494990 108.7469997
  25.5498181  27.0643233 109.5058266 126.6369992  17.9284990  80.4279997
 125.7019992  18.0284990  80.6069997 126.9169992  17.2184990  81.0059997
 126.5469270  17.8462300  80.5305984  27.3699992  27.2784990  95.4869997
  27.1899992  27.1234990  94.5589997  28.3199992  27.3864990  95.5309997
  27.4738016  27.2719264  95.3662123  36.7599992  29.6324990  94.9319997
  36.4869992  29.2084990  94.1189997  36.7999992  30.5644990  94.7149997
  36.7280201  29.7003523  94.7913548  26.3399992  22.6524990 108.1549997
  26.8759992  23.1044990 107.5029997  25.4879992  22.5444990 107.7329997
  26.2981648  22.6997883 108.0086395  27.9219992  28.0924990 108.3949997
  28.6729992  27.9364990 107.8219997  27.5829992  28.9444990 108.1189997
  27.9789052  28.1862745 108.2793469  27.1459992  20.1094990 108.5869997
  27.0479992  21.0554990 108.4809997  26.4029992  19.7364990 108.1109997
  27.0322363  20.1885987 108.5082029  27.2679992  37.9684990  96.4879997
  28.2009992  38.1264990  96.6319997  27.0029992  38.6444990  95.8629997
  27.3599846  38.0814567  96.4232930  20.8359992  32.6054990  95.9709997
  21.7499992  32.6844990  96.2439997  20.8429992  31.9184990  95.3039997
  20.9620769  32.5234735  95.9182366  19.4849992  37.9984990 101.0479997
  18.8379992  37.5364990 100.5149997  19.8399992  37.3264990 101.6309997
  19.4443861  37.8444707 101.0537939  20.3549992  36.0784990 102.8529997
  20.0209992  35.1984990 103.0249997  20.5769992  36.4244990 103.7169997
  20.3392677  36.0047365 102.9934252  37.9039992  36.8884990 105.8329997
  37.8819992  37.0734990 106.7719997  38.5939992  37.4564990 105.4919997
  37.9943439  36.9906898 105.9154774 129.6249992   6.9954990  92.4739997
 129.2179992   7.4754990  91.7539997 129.6659992   6.0894990  92.1669997
 129.5747178   6.9388609  92.3337441  37.4669992  36.4554990 108.7549997
  36.9799992  35.7194990 108.3839997  38.0159992  36.0614990 109.4329997
  37.4746101  36.3016267 108.7959034  37.2189992  30.5014990  98.9069997
  38.0689992  30.9224990  99.0349997  37.2239992  29.7614990  99.5149997
  37.3359745  30.4591347  99.0066479  37.6129992  28.5554990 100.7309997
  36.8869992  28.0754990 101.1289997  38.1939992  28.7604990 101.4629997
  37.5922504  28.5175592 100.8844199  37.3719992  31.3404990 105.6789997
  38.2059992  30.9624990 105.3979997  37.4839992  32.2834990 105.5599997
  37.5011917  31.4162954 105.6244844  35.8579992  34.2184990 107.9859997
  35.2109992  34.5434990 108.6109997  35.3409992  33.7774990 107.3109997
  35.6994068  34.2034726 107.9804918  37.8809992  28.4564990  97.1219997
  37.3599992  28.8124990  96.4029997  37.8479992  29.1314990  97.7999997
  37.8051525  28.5965273  97.1151408  36.2299992  25.6954990  95.6729997
  36.3269992  26.3624990  94.9929997  36.0899992  24.8804990  95.1909997
  36.2243428  25.6765667  95.5148311  35.3999992  27.0764990 101.2939997
  35.2499992  26.1314990 101.2739997  35.0459992  27.3574990 102.1379997
  35.3316351  26.9851656 101.4053202  20.4349992  29.1544990 105.3039997
  20.6189992  29.0724990 104.3689997  21.2839992  29.0304990 105.7279997
  20.5750259  29.1264915 105.2331771  35.4779992  23.1034990  94.7899997
  36.0879992  22.7324990  95.4269997  34.6409992  22.6824990  94.9859997
  35.4483704  22.9957942  94.9037077 116.7739992  13.3794990  90.4709997
 116.9899992  13.0174990  91.3309997 115.9189992  13.0044990  90.2609997
 116.6879349  13.2792914  90.5602134  35.1099992  24.6584990  99.7559997
  35.3899992  23.7514990  99.8809997  35.8689992  25.0924990  99.3669997
  35.2509471  24.5930654  99.7205052  35.7219992  25.2404990 105.1919997
  36.6549992  25.4524990 105.1579997  35.4869992  25.3414990 106.1149997
  35.8178357  25.2831303 105.3120232  35.7509992  25.9774990 107.9679997
  34.9079992  26.2454990 108.3339997  36.1939992  26.7994990 107.7569997
  35.6954358  26.1253294 107.9895999  35.7239992  21.9214990  99.8049997
  35.9059992  21.4724990 100.6299997  35.1239992  21.3374990  99.3409997
  35.6678187  21.7810563  99.8552721  21.2539992  22.7374990 104.3359997
  21.6989992  21.9454990 104.6379997  21.7199992  23.4534990 104.7669997
  21.3779059  22.7259485 104.4356061  19.5579992  25.7364990 105.4049997
  20.0499992  25.5154990 104.6149997  19.9199992  26.5764990 105.6859997
  19.6743429  25.8198220 105.3347918  37.5899992  21.9894990  96.3329997
  38.0029992  21.2684990  95.8569997  38.2719992  22.6584990  96.3909997
  37.7385712  21.9814304  96.2758247  19.8709992  21.9944990  99.4599997
  18.9459992  22.2024990  99.3299997  20.3249992  22.4784990  98.7699997
  19.8057401  22.0883895  99.3489433  34.6419992  36.9784990 101.4049997
  35.2939992  36.6304990 100.7969997  35.1529992  37.4664990 102.0509997
  34.8002872  36.9968248 101.4090964  19.8349992  20.7324990 107.8039997
  19.1699992  20.4864990 108.4469997  19.3919992  21.3544990 107.2269997
  19.6841168  20.7829225 107.8139830 119.3929992   1.8494990  86.4669997
 118.5309992   1.7624990  86.0589997 119.3709992   2.7054990  86.8939997
 119.2720953   1.9533558  86.4689262  24.9809992  34.8814990 108.2069997
  24.5559992  35.6914990 107.9239997  25.8849992  34.9674990 107.9049997
  25.0451002  35.0038728 108.1274798  36.5549992  20.1564990 109.4899997
  35.7419992  20.4814990 109.1019997  36.7879992  19.3954990 108.9569997
  36.4752566  20.0981570 109.3649196  22.3829992  38.1384990 108.2539997
  21.6619992  38.5784990 107.8029997  22.0169992  37.8874990 109.1029997
  22.2349785  38.1647691 108.3069849  24.8499992  37.7384990 107.2839997
  23.9849992  37.8104990 107.6879997  24.7949992  38.2854990 106.4999997
  24.7242066  37.8222678 107.2333371  29.5609992  37.6264990 106.4599997
  29.1039992  38.1554990 105.8059997  29.7229992  38.2294990 107.1849997
  29.5203919  37.7803990 106.4685740  31.8879992  36.5044990 107.4049997
  30.9839992  36.6694990 107.1389997  32.3169992  37.3574990 107.3389997
  31.8222017  36.6424184 107.3596495  34.4919992  38.0744990 107.6999997
  34.3109992  38.9904990 107.4889997  34.6689992  37.6634990 106.8529997
  34.4911377  38.1443365 107.5567178  21.7979992  36.7614990 105.1649997
  21.7789992  36.3354990 106.0219997  22.6019992  36.4424990 104.7559997
  21.9041393  36.6600297 105.2270155  23.9389992  35.4714990 103.8199997
  23.7199992  34.5544990 103.9889997  24.7629992  35.6114990 104.2859997
  24.0204637  35.3649586 103.9061414  26.4759992  35.9414990 104.6679997
  26.6889992  35.0534990 104.3809997  26.5409992  35.9064990 105.6229997
  26.5139075  35.8153318 104.7577355 124.0559992   1.5714990  89.8409997
 124.4759992   1.1564990  90.5939997 123.1229992   1.3924990  89.9579997
 123.9873736   1.4904921  89.9598950  29.9849992  21.6054990 103.8129997
  29.3099992  20.9754990 104.0679997  30.5489992  21.1214990 103.2099997
  29.9689558  21.4539283 103.7663451  35.1269992  19.7124990 103.9249997
  35.7309992  20.2604990 103.4239997  34.2579992  20.0314990 103.6849997
  35.0921126  19.8307070 103.8239180  36.8539992  20.8514990 102.2589997
  37.4659992  20.3374990 101.7319997  37.2369992  21.7284990 102.2819997
  36.9893867  20.8997613 102.1900888  22.3109992  20.2394990 101.6349997
  21.5339992  20.0044990 101.1269997  22.8419992  19.4424990 101.6439997
  22.2764443  20.0996721 101.5667200  21.1479992  20.0374990  97.4379997
  21.5869992  20.6484990  96.8469997  20.5139992  20.5754990  97.9119997
  21.1224103  20.1939233  97.4211376  26.8909992  20.1654990 101.4479997
  27.7649992  20.5544990 101.4179997  26.7549992  19.9504990 102.3709997
  26.9923125  20.1897120 101.5686523  32.4469992  20.1954990 103.0969997
  32.5239992  20.2914990 102.1479997  32.1719992  19.2884990 103.2259997
  32.4203407  20.0859188 102.9843532  33.8009992  20.2214990  98.7899997
  33.0979992  20.8364990  98.5799997  33.3559992  19.3844990  98.9209997
  33.6446550  20.1924679  98.7789819  21.0489992  35.9854990  98.3359997
  20.3639992  35.9474990  97.6679997  21.0519992  36.8974990  98.6239997
  20.9557358  36.1036744  98.2836145  23.0089992  21.9534990  95.8809997
  23.4999992  21.3234990  95.3529997  23.6319992  22.2494990  96.5439997
  23.1605459  21.9072419  95.8983667 127.3819992   5.3264990  90.6949997
 126.8679992   5.2014990  91.4919997 127.2269992   6.2394990  90.4499997
 127.2906643   5.4327068  90.7710624  28.0349992  22.2464990  98.3379997
  28.2129992  21.5994990  99.0209997  27.9809992  23.0804990  98.8049997
  28.0520678  22.2706615  98.4946283  29.9129992  37.1944990  96.7329997
  30.7789992  37.5614990  96.5549997  29.6659992  36.7554990  95.9199997
  29.9982041  37.1853648  96.5985958  36.6219992  36.7574990  99.4129997
  36.4279992  36.0094990  98.8479997  36.5829992  37.5154990  98.8289997
  36.5901907  36.7575770  99.2568077  22.8669992  36.9054990  95.3609997
  22.5989992  37.1914990  96.2339997  23.6379992  36.3594990  95.5129997
  22.9345600  36.8708341  95.5011482  50.2459992  29.3954990 101.5929997
  50.3349992  30.3394990 101.4609997  49.6069992  29.1204990 100.9349997
  50.1718319  29.4874984 101.4860276  49.1789992  28.6504990 105.0119997
  49.1399992  28.0044990 105.7169997  48.8559992  28.1834990 104.2409997
  49.1300199  28.4990089 105.0042865  41.5469992  28.2644990 106.6049997
  41.5879992  27.6394990 107.3289997  42.2499992  28.8884990 106.7869997
  41.6476054  28.2633262 106.7286311  52.8849992  31.5894990 103.3139997
  52.4439992  30.8694990 103.7639997  52.8719992  32.3104990 103.9439997
  52.8228398  31.5883187 103.4607734  42.4709992  32.7144990 105.1399997
  42.1009992  31.9124990 104.7709997  43.4119992  32.5464990 105.1869997
  42.5475630  32.5818680 105.0957873  39.0809992  26.3744990 100.5329997
  38.6329992  27.2204990 100.5149997  38.5199992  25.7954990 100.0179997
  38.9438546  26.4119004 100.4608874 128.1449992  10.1874990  76.4559997
 128.1869992   9.9654990  75.5259997 128.9939992  10.5864990  76.6459997
 128.2655253  10.2110510  76.3543804  39.7909992  28.5364990 102.6589997
  40.0049992  27.7664990 103.1859997  40.5289992  28.6264990 102.0559997
  39.9200073  28.4433546 102.6495786  49.9959992  36.6934990 103.5259997
  50.6159992  36.0174990 103.2529997  49.7879992  36.4754990 104.4339997
  50.0527360  36.5714792 103.6114387  47.5679992  31.0824990 105.4179997
  47.8719992  30.3964990 104.8239997  48.2899992  31.2014990 106.0359997
  47.7071152  31.0047201 105.4202106  56.2309992  22.6844990 106.2789997
  56.2799992  23.2944990 107.0149997  56.6569992  23.1454990 105.5559997
  56.2952851  22.8303266 106.2820532  50.7089992  25.4764990 105.7459997
  50.8509992  24.5304990 105.7659997  50.6029992  25.6834990 104.8169997
  50.7141158  25.3749722 105.6232241  43.8639992  23.5784990 103.0179997
  43.9069992  24.4384990 102.5999997  43.4059992  23.0254990 102.3849997
  43.8079613  23.6215689 102.8751276  51.5859992  23.7094990 101.4189997
  52.2319992  23.3804990 102.0439997  52.0959992  24.2264990 100.7959997
  51.7434392  23.7343710 101.4203248  40.4839992  25.9754990 103.7799997
  41.1379992  25.4254990 104.2119997  40.5079992  25.7014990 102.8639997
  40.5767022  25.8632005 103.7151698  45.6399992  27.5254990 102.9959997
  46.2559992  26.9984990 103.5049997  45.0539992  26.8854990 102.5919997
  45.6450652  27.3668919 103.0110277  56.6229992  24.1624990 108.5149997
  55.9339992  24.8204990 108.4199997  56.6379992  23.9644990 109.4519997
  56.5307756  24.2257614 108.6285795 123.7179992   4.0634990  77.1259997
 123.4639992   4.0824990  78.0489997 123.4609992   3.1924990  76.8249997
 123.6485133   3.9483121  77.2115065  42.6739992  22.4964990 107.0919997
  42.4549992  23.0264990 106.3259997  42.0059992  22.7224990 107.7399997
  42.5537271  22.5996508 107.0746206  50.0429992  31.9964990 100.6359997
  49.7469992  31.6734990  99.7849997  49.7189992  32.8964990 100.6779997
  49.9586501  32.0739058 100.5250893  45.2429992  30.1714990 107.3799997
  44.5029992  30.7704990 107.4829997  45.9569992  30.7254990 107.0639997
  45.2383288  30.3282368 107.3513787  53.3499992  23.0004990 103.3999997
  53.1349992  22.2344990 103.9319997  54.0059992  23.4724990 103.9129997
  53.4092451  22.9594472 103.5421699  42.2679992  24.3884990 105.0449997
  42.8809992  25.0214990 105.4179997  42.7799992  23.9164990 104.3879997
  42.4211680  24.4114006 105.0072830  43.6499992  32.1364990 108.1669997
  43.6449992  33.0154990 107.7889997  42.7969992  32.0524990 108.5919997
  43.5339199  32.2455901 108.1726942  39.7719992  31.8074990  98.9489997
  39.4999992  32.0364990  98.0599997  39.8169992  32.6444990  99.4089997
  39.7408709  31.9521069  98.8896089  53.3969992  33.4284990 105.6619997
  52.4549992  33.4874990 105.8229997  53.6729992  34.3344990 105.5249997
  53.3055771  33.5590270 105.6654827  53.6969992  21.7154990 107.0789997
  52.9609992  22.3254990 107.0409997  54.3809992  22.1304990 106.5529997
  53.6885885  21.8551924 107.0026931  46.6999992  19.8014990 104.5449997
  46.5829992  18.8534990 104.4909997  45.8449992  20.1344990 104.8179997
  46.5683691  19.7165842 104.5745072 119.4839992   6.8144990  87.5619997
 118.8419992   6.7744990  88.2709997 119.5209992   7.7414990  87.3239997
 119.4011659   6.9342540  87.6268463  51.6489992  35.2094990 102.2869997
  52.0739992  34.5024990 101.8019997  51.9659992  36.0114990 101.8699997
  51.7500266  35.2210201 102.1642461  52.8079992  33.1104990 100.7959997
  52.5509992  32.4204990 100.1839997  52.8789992  32.6674990 101.6409997
  52.7824322  32.9561568 100.8265372  54.4939992  31.6774990 109.2729997
  54.6339992  31.0854990 108.5339997  54.6619992  32.5504990 108.9169997
  54.5358734  31.7144041 109.1236937  48.9669992  28.6394990  99.0449997
  48.2549992  29.1744990  98.6939997  49.6579992  28.6944990  98.3849997
  48.9628696  28.7202591  98.9076372  49.0209992  27.0964990  96.0839997
  49.7219992  27.1194990  96.7349997  49.3229992  26.4684990  95.4279997
  49.1578282  27.0147350  96.0844478  56.3359992  28.0174990 107.3389997
  55.6839992  28.7114990 107.4279997  56.8009992  28.2274990 106.5289997
  56.3095357  28.1409544 107.2417056  52.3729992  28.8484990  99.9969997
  51.6409992  29.0774990 100.5699997  52.8199992  28.1354990 100.4519997
  52.3332753  28.7833984 100.1369698  52.2699992  27.0234990 109.0649997
  52.3499992  27.7864990 109.6369997  51.6689992  27.3024990 108.3739997
  52.1997115  27.1657707 109.0499631  44.0179992  29.4794990 101.8799997
  43.6879992  29.1084990 101.0609997  44.6059992  28.8084990 102.2259997
  44.0524056  29.3381257 101.8149035  45.3849992  32.9074990 104.5609997
  45.2899992  32.3284990 103.8039997  46.1139992  32.5364990 105.0569997
  45.4706161  32.7780902 104.5245192 119.4809992   7.0354990  82.4739997
 118.5879992   6.6954990  82.4149997 119.9319992   6.6584990  81.7179997
 119.4197185   6.9380220  82.3637698  44.3849992  28.2474990 105.5129997
  44.9499992  28.3694990 104.7499997  44.7029992  28.8854990 106.1519997
  44.5053430  28.3504448 105.4949094  50.6939992  33.7514990 106.2469997
  50.4529992  34.4134990 106.8949997  50.4959992  32.9164990 106.6719997
  50.6342662  33.7292704 106.3931008  51.2439992  28.0114990  97.6819997
  51.8229992  28.1614990  98.4289997  51.6579992  28.4814990  96.9589997
  51.3793122  28.0956288  97.6865024  42.1849992  28.8454990 109.4589997
  42.2549992  29.4964990 110.1569997  41.2939992  28.9484990 109.1239997
  42.0741802  28.9484769 109.5092231  48.9699992  34.7474990 101.1179997
  49.4439992  35.0434990 101.8949997  48.4069992  35.4864990 100.8839997
  48.9588460  34.8878336 101.1927626  54.9419992  19.7614990  97.4949997
  54.0419992  19.8994990  97.7899997  55.1939992  20.5924990  97.0929997
  54.8527355  19.8928200  97.4810539  43.0079992  28.5484990  99.4689997
  42.7159992  29.3164990  98.9779997  42.3339992  27.8894990  99.3059997
  42.8768843  28.5644537  99.3797695  56.1319992  34.1274990  95.8719997
  56.2049992  35.0664990  96.0419997  57.0369992  33.8224990  95.8149997
  56.2644168  34.2148531  95.8875736  39.1009992  30.9114990 108.2839997
  38.5999992  30.8834990 107.4689997  39.1069992  30.0064990 108.5939997
  39.0331690  30.7852234 108.2142770  38.8519992  33.6924990 105.1679997
  39.7979992  33.5474990 105.1489997  38.7389992  34.4764990 105.7049997
  38.9663578  33.7786708 105.2380300 125.0169992   7.4514990  81.2909997
 124.6079992   8.2664990  80.9989997 125.7369992   7.3114990  80.6759997
 125.0583946   7.5439963  81.1679616  48.0279992  33.9324990 109.7259997
  48.1149992  34.7584990 110.2009997  47.1639992  33.6024990 109.9749997
  47.9231944  34.0009871 109.8246558  48.4419992  37.7044990  99.5319997
  48.3669992  37.5834990  98.5859997  48.4749992  38.6534990  99.6509997
  48.4361862  37.8162492  99.4184840  42.0959992  36.4934990 101.3129997
  42.2479992  36.1454990 102.1919997  41.2449992  36.1364990 101.0579997
  42.0017899  36.3976749 101.3987322  51.5439992  36.8584990  96.5349997
  51.9189992  36.1144990  96.0639997  51.5479992  36.5884990  97.4529997
  51.5958969  36.7200920  96.5946475  51.2129992  36.7844990  99.2839997
  50.2779992  36.8844990  99.4629997  51.4929992  36.0744990  99.8619997
  51.1229270  36.7022300  99.3865984  41.3499992  32.2354990 109.3269997
  41.5659992  31.8734990 110.1869997  40.4949992  31.8604990 109.1169997
  41.2639349  32.1352914 109.4162134  43.9689992  20.7054990 105.3229997
  43.1069992  20.6184990 104.9149997  43.9469992  21.5614990 105.7499997
  43.8480953  20.8093558 105.3249262  48.6319992  20.4274990 108.6969997
  49.0519992  20.0124990 109.4499997  47.6989992  20.2484990 108.8139997
  48.5633736  20.3464921 108.8158950  51.9579992  24.1824990 109.5509997
  51.4439992  24.0574990 110.3479997  51.8029992  25.0954990 109.3059997
  51.8666643  24.2887068 109.6270624  52.7209992  29.0434990  95.3119997
  52.7629992  28.8214990  94.3819997  53.5699992  29.4424990  95.5019997
  52.8415253  29.0670510  95.2103804 124.1189992   7.6274990  92.7789997
 123.5559992   6.9224990  93.0989997 124.9449992   7.5064990  93.2459997
 124.1536423   7.5145614  92.8860168  48.2939992  22.9194990  95.9819997
  48.0399992  22.9384990  96.9049997  48.0369992  22.0484990  95.6809997
  48.2245133  22.8043121  96.0675065  44.0599992  25.6704990 106.4179997
  43.4179992  25.6304990 107.1269997  44.0969992  26.5974990 106.1799997
  43.9771659  25.7902540 106.4828463  44.0569992  25.8914990 101.3299997
  43.1639992  25.5514990 101.2709997  44.5079992  25.5144990 100.5739997
  43.9957185  25.7940220 101.2197698  49.5929992  26.3074990 100.1469997
  49.1839992  27.1224990  99.8549997  50.3129992  26.1674990  99.5319997
  49.6343946  26.3999963 100.0239616  50.5969992  25.7534990 102.9609997
  50.4019992  26.3594990 102.2459997  50.7789992  24.9204990 102.5259997
  50.5949272  25.7237955 102.8044075  41.8099992  25.9914990 108.2849997
  41.7719992  26.3914990 109.1529997  41.3189992  25.1744990 108.3749997
  41.7384246  25.9358842 108.4161171  45.1759992  23.3654990  95.0829997
  44.7449992  22.9204990  95.8129997  44.4579992  23.7364990  94.5709997
  45.0199363  23.3547979  95.1136194  38.4179992  23.1074990 102.1349997
  39.0489992  23.0784990 102.8549997  38.8679992  22.6824990 101.4049997
  38.5650905  23.0460839 102.1347479  39.6919992  23.8534990  97.5589997
  40.1669992  24.4444990  96.9739997  38.9749992  24.3834990  97.9059997
  39.6600406  24.0061011  97.5258495  49.8609992  27.3914990 107.6319997
  50.1849992  26.7604990 106.9889997  49.4209992  26.8574990 108.2929997
  49.8458707  27.2328261 107.6333195 126.0209992   6.8974990  84.1049997
 125.8259992   7.5034990  83.3899997 126.2029992   6.0644990  83.6699997
 126.0189272   6.8677955  83.9484075  46.6389992  23.3194990 102.4159997
  45.7279992  23.3764990 102.7049997  47.1439992  23.2594990 103.2269997
  46.5826873  23.3191838 102.5651190  41.4669992  24.9484990 101.2429997
  40.5779992  25.0474990 100.9029997  41.7629992  24.1064990 100.8969997
  41.3854001  24.8482473 101.1497318  45.1199992  24.9484990  98.8989997
  46.0519992  25.0774990  99.0769997  44.9049992  25.6174990  98.2499997
  45.2184245  25.0566452  98.8355602  51.0439992  22.5544990 105.6799997
  50.3669992  22.6854990 106.3439997  50.5579992  22.3994990 104.8699997
  50.8857265  22.5514665 105.6613380  43.7939992  26.1424990  96.4659997
  43.2519992  25.7634990  95.7749997  44.6279992  26.3374990  96.0369997
  43.8324283  26.1169383  96.3134298  47.9589992  26.1064990 104.3029997
  48.5229992  25.5604990 103.7559997  47.8109992  25.5854990 105.0919997
  48.0163037  25.9611798 104.3347212  42.9609992  22.2434990 100.7209997
  42.6429992  21.3404990 100.6859997  43.7419992  22.2454990 100.1689997
  43.0231560  22.1201148 100.6414975  46.5849992  24.4954990 106.7169997
  45.7499992  24.9494990 106.8269997  47.1089992  24.7714990 107.4689997
  46.5415070  24.5949677 106.8337134  47.1289992  30.7084990  98.4019997
  46.3839992  30.2004990  98.0789997  46.9949992  30.7574990  99.3479997
  47.0088633  30.6455714  98.4857563  54.2789992  29.8414990 107.1879997
  54.9209992  30.2974990 106.6449997  53.4489992  29.9544990 106.7259997
  54.2547352  29.9193223 107.0510234 117.2339992   7.1354990  89.4289997
 117.1959992   7.5354990  90.2969997 116.7429992   6.3184990  89.5189997
 117.1624246   7.0798842  89.5601171  51.0269992  23.5224990  96.6009997
  50.0879992  23.6334990  96.4499997  51.3239992  24.3784990  96.9069997
  50.9386371  23.6535327  96.6217362  48.6489992  30.8924990 109.6389997
  48.3029992  30.5104990 110.4449997  48.4489992  31.8254990 109.7099997
  48.5745399  30.9663489 109.7590401  51.7449992  25.3894990  98.2619997
  52.6369992  25.2514990  98.5809997  51.8019992  26.1804990  97.7249997
  51.8747380  25.4774777  98.2330981  42.2539992  30.0034990 104.1709997
  42.9989992  30.0004990 103.5699997  42.3319992  29.1794990 104.6529997
  42.3664158  29.8917928 104.1539136  49.2549992  32.1664990  97.4269997
  48.9599992  32.9934990  97.8089997  48.5519992  31.5474990  97.6229997
  49.1195855  32.1959458  97.5057634  39.2619992  28.4634990 109.4859997
  39.4849992  28.0454990 110.3179997  38.6599992  27.8514990 109.0639997
  39.2110802  28.3235216 109.5427561  50.8989992  33.3544990 109.5889997
  49.9979992  33.5374990 109.3209997  50.9329992  33.6134990 110.5099997
  50.7803021  33.4145505 109.6768206  56.6299992  25.5984990  97.9559997
  56.0759992  25.2024990  97.2839997  56.7309992  26.5094990  97.6789997
  56.5677084  25.6673565  97.8264381  54.9249992  34.3844990  98.4209997
  54.5529992  33.5594990  98.7309997  55.2029992  34.2014990  97.5239997
  54.9115997  34.2466160  98.3421551  52.0859992  29.1924990 105.4429997
  51.1579992  28.9614990 105.4159997  52.5369992  28.4154990 105.1129997
  52.0198165  29.0557785 105.3946772 113.8419992   4.2514990  83.2789997
 114.4729992   4.2224990  83.9989997 114.2919992   3.8264990  82.5489997
 113.9890905   4.1900839  83.2787479  44.6289992  33.5214990 101.5759997
  45.1559992  34.2944990 101.3749997  43.7489992  33.7454990 101.2739997
  44.5821793  33.6576652 101.5076304  40.3839992  28.3834990  96.1629997
  40.9999992  29.0104990  96.5419997  39.5219992  28.6994990  96.4339997
  40.3518195  28.5120810  96.2515369  46.0559992  31.1844990 101.1519997
  45.8149992  32.1094990 101.1939997  45.3159992  30.7254990 101.5479997
  45.9228934  31.2490881 101.2113191  46.5709992  35.3334990 107.4669997
  46.9339992  36.1874990 107.2339997  47.1029992  35.0414990 108.2079997
  46.6925141  35.4108907 107.5352079  44.7389992  36.2054990 100.6969997
  43.7899992  36.3114990 100.7489997  45.0909992  37.0264990 101.0419997
  44.6566214  36.3309361 100.7507317  50.1149992  31.4324990 107.1679997
  49.6889992  31.2044990 107.9939997  50.6959992  30.6934990 106.9849997
  50.1351587  31.3014084 107.2564111  52.3179992  32.3614990  96.2419997
  52.6709992  31.9814990  97.0459997  51.3689992  32.2674990  96.3279997
  52.2380985  32.2967330  96.3637738  52.7739992  35.9844990 109.6369997
  52.1719992  35.4284990 109.1419997  53.0549992  36.6514990 109.0109997
  52.7295757  35.9985755 109.4845657  56.8209992  36.8404990  96.4429997
  57.5649992  37.4264990  96.3029997  56.1269992  37.4094990  96.7759997
  56.8289809  36.9975830  96.4688572  40.8959992  23.2174990 109.0439997
  40.0029992  23.5554990 108.9769997  40.7969992  22.3614990 109.4619997
  40.7605241  23.1480941 109.0912982 115.1159992   4.9974990  78.7029997
 115.5909992   5.5884990  78.1179997 114.3989992   5.5274990  79.0499997
 115.0840406   5.1501011  78.6698495  53.1839992  31.0334990  98.4679997
  52.9069992  30.3054990  99.0239997  54.1109992  31.1524990  98.6739997
  53.2714181  30.9500068  98.5718972  40.5469992  35.0214990 107.4789997
  40.7639992  34.0894990 107.4479997  40.7939992  35.2964990 108.3629997
  40.6100543  34.9310877 107.5941412  46.4089992  33.4734990  94.6889997
  46.6479992  32.7244990  94.1409997  46.1399992  33.0854990  95.5209997
  46.4052804  33.3186524  94.7266352  45.3459992  33.0434990  97.1449997
  45.4929992  32.5234990  97.9349997  45.3429992  33.9504990  97.4509997
  45.3657300  33.0948975  97.2945877  41.7989992  30.2954990  97.6549997
  41.1129992  30.6484990  98.2219997  42.3219992  31.0584990  97.4089997
  41.7759033  30.4468757  97.6992644  49.6299992  22.9584990 107.9339997
  50.3289992  23.0324990 108.5839997  49.2499992  22.0934990 108.0889997
  49.6742095  22.8517402 108.0437982  50.4149992  22.6104990  99.0309997
  50.6349992  23.0814990  98.2279997  50.9729992  23.0044990  99.7019997
  50.5205851  22.7283272  99.0116134  48.0839992  34.7404990  97.8939997
  47.2669992  35.2374990  97.9469997  48.6129992  35.2164990  97.2539997
  48.0437898  34.8728123  97.8147274  47.6149992  24.3384990  99.8659997
  48.4269992  24.8424990  99.9119997  47.3699992  24.1934990 100.7799997
  47.6931091  24.3879366  99.9958552  48.1509992  25.3244990 109.0509997
  48.2699992  25.8984990 109.8079997  48.8059992  24.6364990 109.1659997
  48.2558684  25.3100205 109.1701656 125.2849992   8.5354990  88.7759997
 125.6089992   7.9044990  88.1329997 124.8449992   8.0014990  89.4369997
 125.2698707   8.3768261  88.7773195  48.4989992  21.4194990 100.8039997
  48.1519992  22.0364990 101.4489997  49.1569992  21.9204990 100.3229997
  48.5405290  21.5716384 100.8271635  45.4219992  35.7844990  97.8759997
  45.5829992  36.5844990  97.3749997  45.2249992  36.0914990  98.7609997
  45.4173919  35.9354140  97.9270988  44.1559992  22.4824990  97.4919997
  44.0729992  23.3704990  97.8379997  45.0459992  22.2174990  97.7229997
  44.2649751  22.5682482  97.5706066  54.3549992  23.2314990 109.8859997
  53.4389992  23.4934990 109.7979997  54.6909992  23.2284990 108.9889997
  54.2749789  23.2669637 109.7527829  52.9569992  26.9814990 103.9819997
  52.1599992  26.5664990 103.6529997  53.4019992  26.2914990 104.4729997
  52.9080317  26.8313197 104.0033556  42.4149992  32.9094990  96.5519997
  43.0069992  33.6094990  96.8279997  42.8739992  32.4764990  95.8329997
  42.5581172  32.9467370  96.4925163  40.7309992  25.5744990  95.6679997
  40.6859992  26.5134990  95.8469997  39.8429992  25.3384990  95.3979997
  40.6048472  25.6711946  95.6560282  54.0439992  36.2374990 105.6039997
  53.8879992  36.9164990 104.9469997  54.9759992  36.3094990 105.8069997
  54.1487328  36.3401586 105.5415529  41.5389992  20.3554990 104.3409997
  41.3099992  20.4144990 103.4139997  41.0959992  19.5644990 104.6479997
  41.4477387  20.2566412 104.2555223  40.4689992  34.2964990 100.5019997
  39.6369992  34.7684990 100.5289997  41.0149992  34.8064990  99.9029997
  40.4288710  34.4300317 100.4247570 122.0629992   4.4634990  83.5599997
 121.1519992   4.5204990  83.8489997 122.5679992   4.4034990  84.3709997
 122.0066873   4.4631838  83.7091190  48.4469992  35.3364990  94.8269997
  47.8029992  34.7054990  95.1489997  49.2089992  34.8054990  94.5949997
  48.4618260  35.1783035  94.8397298  53.0509992  35.1534990  95.0609997
  53.3339992  34.3584990  95.5139997  53.7909992  35.3864990  94.4999997
  53.1897295  35.0762349  95.0471469  44.0059992  31.0624990  94.9179997
  44.0699992  30.2684990  95.4489997  44.6589992  30.9444990  94.2289997
  44.1031168  30.9377747  94.8975119  49.3579992  32.1094990  94.6539997
  49.0899992  32.2904990  95.5549997  49.1519992  31.1844990  94.5229997
  49.2934251  32.0091528  94.7596809  52.0549992  30.6044990 109.6019997
  52.7999992  31.1934990 109.4819997  51.2969992  31.1864990 109.6649997
  52.0545185  30.7637000 109.5940940  45.1549992  29.0354990  97.2239997
  44.6959992  28.5514990  97.9099997  45.4099992  28.3664990  96.5879997
  45.1266178  28.8788511  97.2319785  44.4439992  26.9284990 109.5799997
  43.8259992  27.6024990 109.8609997  44.7879992  27.2494990 108.7469997
  44.4058181  27.0643233 109.5058266  46.2259992  27.2784990  95.4869997
  46.0459992  27.1234990  94.5589997  47.1759992  27.3864990  95.5309997
  46.3298016  27.2719264  95.3662123  55.6159992  29.6324990  94.9319997
  55.3429992  29.2084990  94.1189997  55.6559992  30.5644990  94.7149997
  55.5840201  29.7003523  94.7913548  45.1959992  22.6524990 108.1549997
  45.7319992  23.1044990 107.5029997  44.3439992  22.5444990 107.7329997
  45.1541648  22.6997883 108.0086395 116.8909992   6.0924990  82.3869997
 116.0019992   6.1914990  82.0469997 117.1869992   5.2504990  82.0409997
 116.8094001   5.9922473  82.2937318  46.7779992  28.0924990 108.3949997
  47.5289992  27.9364990 107.8219997  46.4389992  28.9444990 108.1189997
  46.8349052  28.1862745 108.2793469  46.0019992  20.1094990 108.5869997
  45.9039992  21.0554990 108.4809997  45.2589992  19.7364990 108.1109997
  45.8882363  20.1885987 108.5082029  46.1239992  37.9684990  96.4879997
  47.0569992  38.1264990  96.6319997  45.8589992  38.6444990  95.8629997
  46.2159846  38.0814567  96.4232930  39.6919992  32.6054990  95.9709997
  40.6059992  32.6844990  96.2439997  39.6989992  31.9184990  95.3039997
  39.8180769  32.5234735  95.9182366  38.3409992  37.9984990 101.0479997
  37.6939992  37.5364990 100.5149997  38.6959992  37.3264990 101.6309997
  38.3003861  37.8444707 101.0537939  39.2109992  36.0784990 102.8529997
  38.8769992  35.1984990 103.0249997  39.4329992  36.4244990 103.7169997
  39.1952677  36.0047366 102.9934252  56.7599992  36.8884990 105.8329997
  56.7379992  37.0734990 106.7719997  57.4499992  37.4564990 105.4919997
  56.8503439  36.9906898 105.9154774  56.3229992  36.4554990 108.7549997
  55.8359992  35.7194990 108.3839997  56.8719992  36.0614990 109.4329997
  56.3306101  36.3016267 108.7959034  56.0749992  30.5014990  98.9069997
  56.9249992  30.9224990  99.0349997  56.0799992  29.7614990  99.5149997
  56.1919745  30.4591347  99.0066479  56.4689992  28.5554990 100.7309997
  55.7429992  28.0754990 101.1289997  57.0499992  28.7604990 101.4629997
  56.4482504  28.5175592 100.8844199 120.5439992   6.0924990  80.0429997
 121.4759992   6.2214990  80.2209997 120.3289992   6.7614990  79.3939997
 120.6424245   6.2006452  79.9795602  56.2279992  31.3404990 105.6789997
  57.0619992  30.9624990 105.3979997  56.3399992  32.2834990 105.5599997
  56.3571917  31.4162954 105.6244844  54.7139992  34.2184990 107.9859997
  54.0669992  34.5434990 108.6109997  54.1969992  33.7774990 107.3109997
  54.5554068  34.2034726 107.9804918  56.7369992  28.4564990  97.1219997
  56.2159992  28.8124990  96.4029997  56.7039992  29.1314990  97.7999997
  56.6611525  28.5965273  97.1151408  55.0859992  25.6954990  95.6729997
  55.1829992  26.3624990  94.9929997  54.9459992  24.8804990  95.1909997
  55.0803428  25.6765667  95.5148311  54.2559992  27.0764990 101.2939997
  54.1059992  26.1314990 101.2739997  53.9019992  27.3574990 102.1379997
  54.1876351  26.9851656 101.4053202  39.2909992  29.1544990 105.3039997
  39.4749992  29.0724990 104.3689997  40.1399992  29.0304990 105.7279997
  39.4310259  29.1264915 105.2331771  54.3339992  23.1034990  94.7899997
  54.9439992  22.7324990  95.4269997  53.4969992  22.6824990  94.9859997
  54.3043704  22.9957942  94.9037077  53.9659992  24.6584990  99.7559997
  54.2459992  23.7514990  99.8809997  54.7249992  25.0924990  99.3669997
  54.1069471  24.5930654  99.7205051  54.5779992  25.2404990 105.1919997
  55.5109992  25.4524990 105.1579997  54.3429992  25.3414990 106.1149997
  54.6738357  25.2831303 105.3120232  54.6069992  25.9774990 107.9679997
  53.7639992  26.2454990 108.3339997  55.0499992  26.7994990 107.7569997
  54.5514358  26.1253294 107.9895999 126.4679992   3.6984990  86.8239997
 125.7909992   3.8294990  87.4879997 125.9819992   3.5434990  86.0139997
 126.3097265   3.6954665  86.8053380  54.5799992  21.9214990  99.8049997
  54.7619992  21.4724990 100.6299997  53.9799992  21.3374990  99.3409997
  54.5238187  21.7810563  99.8552721  40.1099992  22.7374990 104.3359997
  40.5549992  21.9454990 104.6379997  40.5759992  23.4534990 104.7669997
  40.2339059  22.7259485 104.4356061  38.4139992  25.7364990 105.4049997
  38.9059992  25.5154990 104.6149997  38.7759992  26.5764990 105.6859997
  38.5303429  25.8198220 105.3347918  56.4459992  21.9894990  96.3329997
  56.8589992  21.2684990  95.8569997  57.1279992  22.6584990  96.3909997
  56.5945712  21.9814304  96.2758247  38.7269992  21.9944990  99.4599997
  37.8019992  22.2024990  99.3299997  39.1809992  22.4784990  98.7699997
  38.6617401  22.0883895  99.3489433  53.4979992  36.9784990 101.4049997
  54.1499992  36.6304990 100.7969997  54.0089992  37.4664990 102.0509997
  53.6562872  36.9968248 101.4090964  38.6909992  20.7324990 107.8039997
  38.0259992  20.4864990 108.4469997  38.2479992  21.3544990 107.2269997
  38.5401168  20.7829225 107.8139830  43.8369992  34.8814990 108.2069997
  43.4119992  35.6914990 107.9239997  44.7409992  34.9674990 107.9049997
  43.9011002  35.0038728 108.1274798  55.4109992  20.1564990 109.4899997
  54.5979992  20.4814990 109.1019997  55.6439992  19.3954990 108.9569997
  55.3312566  20.0981570 109.3649196  41.2389992  38.1384990 108.2539997
  40.5179992  38.5784990 107.8029997  40.8729992  37.8874990 109.1029997
  41.0909785  38.1647691 108.3069849 129.7549992  19.3694990  93.1009997
 129.9549992  19.7934990  92.2659997 130.4109992  19.7134990  93.7079997
 129.8709916  19.4739784  93.0687890  43.7059992  37.7384990 107.2839997
  42.8409992  37.8104990 107.6879997  43.6509992  38.2854990 106.4999997
  43.5802066  37.8222678 107.2333371  48.4169992  37.6264990 106.4599997
  47.9599992  38.1554990 105.8059997  48.5789992  38.2294990 107.1849997
  48.3763919  37.7803990 106.4685740  50.7439992  36.5044990 107.4049997
  49.8399992  36.6694990 107.1389997  51.1729992  37.3574990 107.3389997
  50.6782017  36.6424184 107.3596495  53.3479992  38.0744990 107.6999997
  53.1669992  38.9904990 107.4889997  53.5249992  37.6634990 106.8529997
  53.3471377  38.1443365 107.5567178  40.6539992  36.7614990 105.1649997
  40.6349992  36.3354990 106.0219997  41.4579992  36.4424990 104.7559997
  40.7601393  36.6600297 105.2270155  42.7949992  35.4714990 103.8199997
  42.5759992  34.5544990 103.9889997  43.6189992  35.6114990 104.2859997
  42.8764637  35.3649586 103.9061414  45.3319992  35.9414990 104.6679997
  45.5449992  35.0534990 104.3809997  45.3969992  35.9064990 105.6229997
  45.3699075  35.8153318 104.7577355  48.8409992  21.6054990 103.8129997
  48.1659992  20.9754990 104.0679997  49.4049992  21.1214990 103.2099997
  48.8249558  21.4539283 103.7663451  53.9829992  19.7124990 103.9249997
  54.5869992  20.2604990 103.4239997  53.1139992  20.0314990 103.6849997
  53.9481126  19.8307070 103.8239180  55.7099992  20.8514990 102.2589997
  56.3219992  20.3374990 101.7319997  56.0929992  21.7284990 102.2819997
  55.8453867  20.8997613 102.1900888 117.3529992  11.8434990  92.7089997
 118.0849992  12.0984990  93.2699997 116.5729992  12.0484990  93.2239997
 117.3477684  11.9061457  92.8554774  41.1669992  20.2394990 101.6349997
  40.3899992  20.0044990 101.1269997  41.6979992  19.4424990 101.6439997
  41.1324443  20.0996721 101.5667200  40.0039992  20.0374990  97.4379997
  40.4429992  20.6484990  96.8469997  39.3699992  20.5754990  97.9119997
  39.9784103  20.1939233  97.4211376  45.7469992  20.1654990 101.4479997
  46.6209992  20.5544990 101.4179997  45.6109992  19.9504990 102.3709997
  45.8483125  20.1897120 101.5686523  51.3029992  20.1954990 103.0969997
  51.3799992  20.2914990 102.1479997  51.0279992  19.2884990 103.2259997
  51.2763407  20.0859188 102.9843532  52.6569992  20.2214990  98.7899997
  51.9539992  20.8364990  98.5799997  52.2119992  19.3844990  98.9209997
  52.5006550  20.1924679  98.7789819  39.9049992  35.9854990  98.3359997
  39.2199992  35.9474990  97.6679997  39.9079992  36.8974990  98.6239997
  39.8117358  36.1036744  98.2836145  41.8649992  21.9534990  95.8809997
  42.3559992  21.3234990  95.3529997  42.4879992  22.2494990  96.5439997
  42.0165459  21.9072419  95.8983667  46.8909992  22.2464990  98.3379997
  47.0689992  21.5994990  99.0209997  46.8369992  23.0804990  98.8049997
  46.9080678  22.2706615  98.4946283  48.7689992  37.1944990  96.7329997
  49.6349992  37.5614990  96.5549997  48.5219992  36.7554990  95.9199997
  48.8542041  37.1853648  96.5985958  55.4779992  36.7574990  99.4129997
  55.2839992  36.0094990  98.8479997  55.4389992  37.5154990  98.8289997
  55.4461907  36.7575770  99.2568077 123.3829992   7.2504990  85.4469997
 123.9469992   6.7044990  84.8999997 123.2349992   6.7294990  86.2359997
 123.4403037   7.1051798  85.4787212  41.7229992  36.9054990  95.3609997
  41.4549992  37.1914990  96.2339997  42.4939992  36.3594990  95.5129997
  41.7905600  36.8708341  95.5011482  69.1019992  29.3954990 101.5929997
  69.1909992  30.3394990 101.4609997  68.4629992  29.1204990 100.9349997
  69.0278319  29.4874984 101.4860276  68.0349992  28.6504990 105.0119997
  67.9959992  28.0044990 105.7169997  67.7119992  28.1834990 104.2409997
  67.9860199  28.4990089 105.0042865  60.4029992  28.2644990 106.6049997
  60.4439992  27.6394990 107.3289997  61.1059992  28.8884990 106.7869997
  60.5036054  28.2633262 106.7286311  71.7409992  31.5894990 103.3139997
  71.2999992  30.8694990 103.7639997  71.7279992  32.3104990 103.9439997
  71.6788398  31.5883187 103.4607734  61.3269992  32.7144990 105.1399997
  60.9569992  31.9124990 104.7709997  62.2679992  32.5464990 105.1869997
  61.4035630  32.5818680 105.0957873  57.9369992  26.3744990 100.5329997
  57.4889992  27.2204990 100.5149997  57.3759992  25.7954990 100.0179997
  57.7998546  26.4119004 100.4608874  58.6469992  28.5364990 102.6589997
  58.8609992  27.7664990 103.1859997  59.3849992  28.6264990 102.0559997
  58.7760073  28.4433546 102.6495786  68.8519992  36.6934990 103.5259997
  69.4719992  36.0174990 103.2529997  68.6439992  36.4754990 104.4339997
  68.9087360  36.5714792 103.6114387  66.4239992  31.0824990 105.4179997
  66.7279992  30.3964990 104.8239997  67.1459992  31.2014990 106.0359997
  66.5631152  31.0047201 105.4202106 118.3849992   3.3874990  81.8649997
 118.0669992   2.4844990  81.8299997 119.1659992   3.3894990  81.3129997
 118.4471560   3.2641148  81.7854975  75.0869992  22.6844990 106.2789997
  75.1359992  23.2944990 107.0149997  75.5129992  23.1454990 105.5559997
  75.1512851  22.8303266 106.2820532  69.5649992  25.4764990 105.7459997
  69.7069992  24.5304990 105.7659997  69.4589992  25.6834990 104.8169997
  69.5701158  25.3749722 105.6232241  62.7199992  23.5784990 103.0179997
  62.7629992  24.4384990 102.5999997  62.2619992  23.0254990 102.3849997
  62.6639613  23.6215689 102.8751276  70.4419992  23.7094990 101.4189997
  71.0879992  23.3804990 102.0439997  70.9519992  24.2264990 100.7959997
  70.5994392  23.7343710 101.4203248  59.3399992  25.9754990 103.7799997
  59.9939992  25.4254990 104.2119997  59.3639992  25.7014990 102.8639997
  59.4327022  25.8632005 103.7151698  64.4959992  27.5254990 102.9959997
  65.1119992  26.9984990 103.5049997  63.9099992  26.8854990 102.5919997
  64.5010652  27.3668919 103.0110277  75.4789992  24.1624990 108.5149997
  74.7899992  24.8204990 108.4199997  75.4939992  23.9644990 109.4519997
  75.3867756  24.2257614 108.6285795  61.5299992  22.4964990 107.0919997
  61.3109992  23.0264990 106.3259997  60.8619992  22.7224990 107.7399997
  61.4097271  22.5996508 107.0746206  68.8989992  31.9964990 100.6359997
  68.6029992  31.6734990  99.7849997  68.5749992  32.8964990 100.6779997
  68.8146501  32.0739058 100.5250893  64.0989992  30.1714990 107.3799997
  63.3589992  30.7704990 107.4829997  64.8129992  30.7254990 107.0639997
  64.0943288  30.3282368 107.3513787 122.0089992   5.6394990  87.8609997
 121.1739992   6.0934990  87.9709997 122.5329992   5.9154990  88.6129997
 121.9655070   5.7389677  87.9777134  72.2059992  23.0004990 103.3999997
  71.9909992  22.2344990 103.9319997  72.8619992  23.4724990 103.9129997
  72.2652451  22.9594472 103.5421699  61.1239992  24.3884990 105.0449997
  61.7369992  25.0214990 105.4179997  61.6359992  23.9164990 104.3879997
  61.2771680  24.4114006 105.0072830  62.5059992  32.1364990 108.1669997
  62.5009992  33.0154990 107.7889997  61.6529992  32.0524990 108.5919997
  62.3899199  32.2455901 108.1726942  58.6279992  31.8074990  98.9489997
  58.3559992  32.0364990  98.0599997  58.6729992  32.6444990  99.4089997
  58.5968709  31.9521069  98.8896089  72.2529992  33.4284990 105.6619997
  71.3109992  33.4874990 105.8229997  72.5289992  34.3344990 105.5249997
  72.1615771  33.5590270 105.6654827  72.5529992  21.7154990 107.0789997
  71.8169992  22.3254990 107.0409997  73.2369992  22.1304990 106.5529997
  72.5445885  21.8551924 107.0026931  65.5559992  19.8014990 104.5449997
  65.4389992  18.8534990 104.4909997  64.7009992  20.1344990 104.8179997
  65.4243691  19.7165842 104.5745072  70.5049992  35.2094990 102.2869997
  70.9299992  34.5024990 101.8019997  70.8219992  36.0114990 101.8699997
  70.6060266  35.2210201 102.1642461  71.6639992  33.1104990 100.7959997
  71.4069992  32.4204990 100.1839997  71.7349992  32.6674990 101.6409997
  71.6384322  32.9561568 100.8265372  73.3499992  31.6774990 109.2729997
  73.4899992  31.0854990 108.5339997  73.5179992  32.5504990 108.9169997
  73.3918734  31.7144041 109.1236937 122.5529992  11.8524990  79.5459997
 121.8079992  11.3444990  79.2229997 122.4189992  11.9014990  80.4919997
 122.4328633  11.7895714  79.6297563  67.8229992  28.6394990  99.0449997
  67.1109992  29.1744990  98.6939997  68.5139992  28.6944990  98.3849997
  67.8188696  28.7202591  98.9076372  67.8769992  27.0964990  96.0839997
  68.5779992  27.1194990  96.7349997  68.1789992  26.4684990  95.4279997
  68.0138282  27.0147350  96.0844478  75.1919992  28.0174990 107.3389997
  74.5399992  28.7114990 107.4279997  75.6569992  28.2274990 106.5289997
  75.1655357  28.1409544 107.2417056  71.2289992  28.8484990  99.9969997
  70.4969992  29.0774990 100.5699997  71.6759992  28.1354990 100.4519997
  71.1892753  28.7833984 100.1369698  71.1259992  27.0234990 109.0649997
  71.2059992  27.7864990 109.6369997  70.5249992  27.3024990 108.3739997
  71.0557115  27.1657707 109.0499631  62.8739992  29.4794990 101.8799997
  62.5439992  29.1084990 101.0609997  63.4619992  28.8084990 102.2259997
  62.9084056  29.3381257 101.8149035  64.2409992  32.9074990 104.5609997
  64.1459992  32.3284990 103.8039997  64.9699992  32.5364990 105.0569997
  64.3266161  32.7780902 104.5245192  63.2409992  28.2474990 105.5129997
  63.8059992  28.3694990 104.7499997  63.5589992  28.8854990 106.1519997
  63.3613430  28.3504448 105.4949094  69.5499992  33.7514990 106.2469997
  69.3089992  34.4134990 106.8949997  69.3519992  32.9164990 106.6719997
  69.4902662  33.7292704 106.3931008  70.0999992  28.0114990  97.6819997
  70.6789992  28.1614990  98.4289997  70.5139992  28.4814990  96.9589997
  70.2353122  28.0956288  97.6865024 129.7029992  10.9854990  88.3319997
 130.3449992  11.4414990  87.7889997 128.8729992  11.0984990  87.8699997
 129.6787352  11.0633223  88.1950234  61.0409992  28.8454990 109.4589997
  61.1109992  29.4964990 110.1569997  60.1499992  28.9484990 109.1239997
  60.9301802  28.9484769 109.5092231  67.8259992  34.7474990 101.1179997
  68.2999992  35.0434990 101.8949997  67.2629992  35.4864990 100.8839997
  67.8148460  34.8878336 101.1927626  73.7979992  19.7614990  97.4949997
  72.8979992  19.8994990  97.7899997  74.0499992  20.5924990  97.0929997
  73.7087355  19.8928200  97.4810539  61.8639992  28.5484990  99.4689997
  61.5719992  29.3164990  98.9779997  61.1899992  27.8894990  99.3059997
  61.7328843  28.5644537  99.3797695  74.9879992  34.1274990  95.8719997
  75.0609992  35.0664990  96.0419997  75.8929992  33.8224990  95.8149997
  75.1204168  34.2148531  95.8875736  57.9569992  30.9114990 108.2839997
  57.4559992  30.8834990 107.4689997  57.9629992  30.0064990 108.5939997
  57.8891690  30.7852234 108.2142770  57.7079992  33.6924990 105.1679997
  58.6539992  33.5474990 105.1489997  57.5949992  34.4764990 105.7049997
  57.8223578  33.7786708 105.2380300  66.8839992  33.9324990 109.7259997
  66.9709992  34.7584990 110.2009997  66.0199992  33.6024990 109.9749997
  66.7791944  34.0009871 109.8246558  67.2979992  37.7044990  99.5319997
  67.2229992  37.5834990  98.5859997  67.3309992  38.6534990  99.6509997
  67.2921862  37.8162492  99.4184840  60.9519992  36.4934990 101.3129997
  61.1039992  36.1454990 102.1919997  60.1009992  36.1364990 101.0579997
  60.8577899  36.3976749 101.3987322 124.0729992  12.0364990  90.7829997
 123.7269992  11.6544990  91.5889997 123.8729992  12.9694990  90.8539997
 123.9985400  12.1103489  90.9030401  70.3999992  36.8584990  96.5349997
  70.7749992  36.1144990  96.0639997  70.4039992  36.5884990  97.4529997
  70.4518969  36.7200920  96.5946475  70.0689992  36.7844990  99.2839997
  69.1339992  36.8844990  99.4629997  70.3489992  36.0744990  99.8619997
  69.9789270  36.7022300  99.3865984  60.2059992  32.2354990 109.3269997
  60.4219992  31.8734990 110.1869997  59.3509992  31.8604990 109.1169997
  60.1199349  32.1352914 109.4162134  62.8249992  20.7054990 105.3229997
  61.9629992  20.6184990 104.9149997  62.8029992  21.5614990 105.7499997
  62.7040953  20.8093558 105.3249262  67.4879992  20.4274990 108.6969997
  67.9079992  20.0124990 109.4499997  66.5549992  20.2484990 108.8139997
  67.4193736  20.3464921 108.8158950  70.8139992  24.1824990 109.5509997
  70.2999992  24.0574990 110.3479997  70.6589992  25.0954990 109.3059997
  70.7226643  24.2887068 109.6270624  71.5769992  29.0434990  95.3119997
  71.6189992  28.8214990  94.3819997  72.4259992  29.4424990  95.5019997
  71.6975253  29.0670510  95.2103804  67.1499992  22.9194990  95.9819997
  66.8959992  22.9384990  96.9049997  66.8929992  22.0484990  95.6809997
  67.0805133  22.8043121  96.0675065  62.9159992  25.6704990 106.4179997
  62.2739992  25.6304990 107.1269997  62.9529992  26.5974990 106.1799997
  62.8331659  25.7902540 106.4828463  62.9129992  25.8914990 101.3299997
  62.0199992  25.5514990 101.2709997  63.3639992  25.5144990 100.5739997
  62.8517185  25.7940220 101.2197698 117.6779992  11.1474990  85.3149997
 118.4229992  11.1444990  84.7139997 117.7559992  10.3234990  85.7969997
 117.7904158  11.0357928  85.2979136  68.4489992  26.3074990 100.1469997
  68.0399992  27.1224990  99.8549997  69.1689992  26.1674990  99.5319997
  68.4903946  26.3999963 100.0239616  69.4529992  25.7534990 102.9609997
  69.2579992  26.3594990 102.2459997  69.6349992  24.9204990 102.5259997
  69.4509272  25.7237955 102.8044075  60.6659992  25.9914990 108.2849997
  60.6279992  26.3914990 109.1529997  60.1749992  25.1744990 108.3749997
  60.5944246  25.9358842 108.4161171  64.0319992  23.3654990  95.0829997
  63.6009992  22.9204990  95.8129997  63.3139992  23.7364990  94.5709997
  63.8759363  23.3547979  95.1136194  57.2739992  23.1074990 102.1349997
  57.9049992  23.0784990 102.8549997  57.7239992  22.6824990 101.4049997
  57.4210905  23.0460839 102.1347479  58.5479992  23.8534990  97.5589997
  59.0229992  24.4444990  96.9739997  57.8309992  24.3834990  97.9059997
  58.5160406  24.0061011  97.5258495  68.7169992  27.3914990 107.6319997
  69.0409992  26.7604990 106.9889997  68.2769992  26.8574990 108.2929997
  68.7018707  27.2328261 107.6333195  65.4949992  23.3194990 102.4159997
  64.5839992  23.3764990 102.7049997  65.9999992  23.2594990 103.2269997
  65.4386873  23.3191838 102.5651190  60.3229992  24.9484990 101.2429997
  59.4339992  25.0474990 100.9029997  60.6189992  24.1064990 100.8969997
  60.2414001  24.8482473 101.1497318  63.9759992  24.9484990  98.8989997
  64.9079992  25.0774990  99.0769997  63.7609992  25.6174990  98.2499997
  64.0744245  25.0566452  98.8355602 124.6789992  13.3104990  78.5709997
 124.3839992  14.1374990  78.9529997 123.9759992  12.6914990  78.7669997
 124.5435855  13.3399458  78.6497634  69.8999992  22.5544990 105.6799997
  69.2229992  22.6854990 106.3439997  69.4139992  22.3994990 104.8699997
  69.7417265  22.5514665 105.6613380  62.6499992  26.1424990  96.4659997
  62.1079992  25.7634990  95.7749997  63.4839992  26.3374990  96.0369997
  62.6884283  26.1169383  96.3134298  66.8149992  26.1064990 104.3029997
  67.3789992  25.5604990 103.7559997  66.6669992  25.5854990 105.0919997
  66.8723037  25.9611798 104.3347212  61.8169992  22.2434990 100.7209997
  61.4989992  21.3404990 100.6859997  62.5979992  22.2454990 100.1689997
  61.8791560  22.1201148 100.6414975  65.4409992  24.4954990 106.7169997
  64.6059992  24.9494990 106.8269997  65.9649992  24.7714990 107.4689997
  65.3975070  24.5949677 106.8337134  65.9849992  30.7084990  98.4019997
  65.2399992  30.2004990  98.0789997  65.8509992  30.7574990  99.3479997
  65.8648633  30.6455714  98.4857563  73.1349992  29.8414990 107.1879997
  73.7769992  30.2974990 106.6449997  72.3049992  29.9544990 106.7259997
  73.1107352  29.9193223 107.0510234  69.8829992  23.5224990  96.6009997
  68.9439992  23.6334990  96.4499997  70.1799992  24.3784990  96.9069997
  69.7946371  23.6535327  96.6217362  67.5049992  30.8924990 109.6389997
  67.1589992  30.5104990 110.4449997  67.3049992  31.8254990 109.7099997
  67.4305399  30.9663489 109.7590401  70.6009992  25.3894990  98.2619997
  71.4929992  25.2514990  98.5809997  70.6579992  26.1804990  97.7249997
  70.7307380  25.4774777  98.2330981 114.6859992   9.6074990  90.6299997
 114.9089992   9.1894990  91.4619997 114.0839992   8.9954990  90.2079997
 114.6350802   9.4675216  90.6867561  61.1099992  30.0034990 104.1709997
  61.8549992  30.0004990 103.5699997  61.1879992  29.1794990 104.6529997
  61.2224158  29.8917928 104.1539136  68.1109992  32.1664990  97.4269997
  67.8159992  32.9934990  97.8089997  67.4079992  31.5474990  97.6229997
  67.9755855  32.1959458  97.5057634  58.1179992  28.4634990 109.4859997
  58.3409992  28.0454990 110.3179997  57.5159992  27.8514990 109.0639997
  58.0670802  28.3235216 109.5427561  69.7549992  33.3544990 109.5889997
  68.8539992  33.5374990 109.3209997  69.7889992  33.6134990 110.5099997
  69.6363021  33.4145505 109.6768206  75.4859992  25.5984990  97.9559997
  74.9319992  25.2024990  97.2839997  75.5869992  26.5094990  97.6789997
  75.4237084  25.6673565  97.8264381  73.7809992  34.3844990  98.4209997
  73.4089992  33.5594990  98.7309997  74.0589992  34.2014990  97.5239997
  73.7675997  34.2466160  98.3421551  70.9419992  29.1924990 105.4429997
  70.0139992  28.9614990 105.4159997  71.3929992  28.4154990 105.1129997
  70.8758165  29.0557785 105.3946772  63.4849992  33.5214990 101.5759997
  64.0119992  34.2944990 101.3749997  62.6049992  33.7454990 101.2739997
  63.4381793  33.6576652 101.5076304  59.2399992  28.3834990  96.1629997
  59.8559992  29.0104990  96.5419997  58.3779992  28.6994990  96.4339997
  59.2078195  28.5120810  96.2515369  64.9119992  31.1844990 101.1519997
  64.6709992  32.1094990 101.1939997  64.1719992  30.7254990 101.5479997
  64.7788934  31.2490881 101.2113191 121.7029992   9.1244990  92.8429997
 121.4069992   8.9594990  91.9479997 122.6339992   8.9044990  92.8329997
 121.7883909   9.0721274  92.7190110  65.4269992  35.3334990 107.4669997
  65.7899992  36.1874990 107.2339997  65.9589992  35.0414990 108.2079997
  65.5485141  35.4108907 107.5352079  63.5949992  36.2054990 100.6969997
  62.6459992  36.3114990 100.7489997  63.9469992  37.0264990 101.0419997
  63.5126214  36.3309361 100.7507317  68.9709992  31.4324990 107.1679997
  68.5449992  31.2044990 107.9939997  69.5519992  30.6934990 106.9849997
  68.9911587  31.3014084 107.2564111  71.1739992  32.3614990  96.2419997
  71.5269992  31.9814990  97.0459997  70.2249992  32.2674990  96.3279997
  71.0940985  32.2967330  96.3637738  71.6299992  35.9844990 109.6369997
  71.0279992  35.4284990 109.1419997  71.9109992  36.6514990 109.0109997
  71.5855757  35.9985755 109.4845657  75.6769992  36.8404990  96.4429997
  76.4209992  37.4264990  96.3029997  74.9829992  37.4094990  96.7759997
  75.6849809  36.9975830  96.4688572  59.7519992  23.2174990 109.0439997
  58.8589992  23.5554990 108.9769997  59.6529992  22.3614990 109.4619997
  59.6165241  23.1480941 109.0912982  72.0399992  31.0334990  98.4679997
  71.7629992  30.3054990  99.0239997  72.9669992  31.1524990  98.6739997
  72.1274181  30.9500068  98.5718972  59.4029992  35.0214990 107.4789997
  59.6199992  34.0894990 107.4479997  59.6499992  35.2964990 108.3629997
  59.4660543  34.9310877 107.5941412  65.2649992  33.4734990  94.6889997
  65.5039992  32.7244990  94.1409997  64.9959992  33.0854990  95.5209997
  65.2612804  33.3186524  94.7266352 126.3229992  14.4984990  90.7329997
 125.4219992  14.6814990  90.4649997 126.3569992  14.7574990  91.6539997
 126.2043021  14.5585505  90.8208206  64.2019992  33.0434990  97.1449997
  64.3489992  32.5234990  97.9349997  64.1989992  33.9504990  97.4509997
  64.2217300  33.0948975  97.2945877  60.6549992  30.2954990  97.6549997
  59.9689992  30.6484990  98.2219997  61.1779992  31.0584990  97.4089997
  60.6319033  30.4468757  97.6992644  68.4859992  22.9584990 107.9339997
  69.1849992  23.0324990 108.5839997  68.1059992  22.0934990 108.0889997
  68.5302095  22.8517402 108.0437982  69.2709992  22.6104990  99.0309997
  69.4909992  23.0814990  98.2279997  69.8289992  23.0044990  99.7019997
  69.3765851  22.7283272  99.0116134  66.9399992  34.7404990  97.8939997
  66.1229992  35.2374990  97.9469997  67.4689992  35.2164990  97.2539997
  66.8997898  34.8728123  97.8147274  66.4709992  24.3384990  99.8659997
  67.2829992  24.8424990  99.9119997  66.2259992  24.1934990 100.7799997
  66.5491091  24.3879366  99.9958552  67.0069992  25.3244990 109.0509997
  67.1259992  25.8984990 109.8079997  67.6619992  24.6364990 109.1659997
  67.1118684  25.3100205 109.1701656  67.3549992  21.4194990 100.8039997
  67.0079992  22.0364990 101.4489997  68.0129992  21.9204990 100.3229997
  67.3965290  21.5716384 100.8271635  64.2779992  35.7844990  97.8759997
  64.4389992  36.5844990  97.3749997  64.0809992  36.0914990  98.7609997
  64.2733919  35.9354140  97.9270988  63.0119992  22.4824990  97.4919997
  62.9289992  23.3704990  97.8379997  63.9019992  22.2174990  97.7229997
  63.1209751  22.5682482  97.5706066 132.0539992   6.7424990  79.0999997
 131.4999992   6.3464990  78.4279997 132.1549992   7.6534990  78.8229997
 131.9917084   6.8113565  78.9704381  73.2109992  23.2314990 109.8859997
  72.2949992  23.4934990 109.7979997  73.5469992  23.2284990 108.9889997
  73.1309789  23.2669637 109.7527829  71.8129992  26.9814990 103.9819997
  71.0159992  26.5664990 103.6529997  72.2579992  26.2914990 104.4729997
  71.7640317  26.8313197 104.0033557  61.2709992  32.9094990  96.5519997
  61.8629992  33.6094990  96.8279997  61.7299992  32.4764990  95.8329997
  61.4141172  32.9467371  96.4925163  59.5869992  25.5744990  95.6679997
  59.5419992  26.5134990  95.8469997  58.6989992  25.3384990  95.3979997
  59.4608472  25.6711946  95.6560282  72.8999992  36.2374990 105.6039997
  72.7439992  36.9164990 104.9469997  73.8319992  36.3094990 105.8069997
  73.0047328  36.3401586 105.5415529  60.3949992  20.3554990 104.3409997
  60.1659992  20.4144990 103.4139997  59.9519992  19.5644990 104.6479997
  60.3037387  20.2566412 104.2555223  59.3249992  34.2964990 100.5019997
  58.4929992  34.7684990 100.5289997  59.8709992  34.8064990  99.9029997
  59.2848710  34.4300317 100.4247570  67.3029992  35.3364990  94.8269997
  66.6589992  34.7054990  95.1489997  68.0649992  34.8054990  94.5949997
  67.3178260  35.1783035  94.8397298  71.9069992  35.1534990  95.0609997
  72.1899992  34.3584990  95.5139997  72.6469992  35.3864990  94.4999997
  72.0457295  35.0762349  95.0471469  62.8619992  31.0624990  94.9179997
  62.9259992  30.2684990  95.4489997  63.5149992  30.9444990  94.2289997
  62.9591168  30.9377748  94.8975119 132.0169992  12.5434990  91.9369997
 131.1659992  12.7814990  91.5699997 132.6079992  12.5264990  91.1839997
 131.9802468  12.5738251  91.7848902  68.2139992  32.1094990  94.6539997
  67.9459992  32.2904990  95.5549997  68.0079992  31.1844990  94.5229997
  68.1494251  32.0091528  94.7596809  70.9109992  30.6044990 109.6019997
  71.6559992  31.1934990 109.4819997  70.1529992  31.1864990 109.6649997
  70.9105185  30.7637000 109.5940940  64.0109992  29.0354990  97.2239997
  63.5519992  28.5514990  97.9099997  64.2659992  28.3664990  96.5879997
  63.9826178  28.8788511  97.2319785  63.2999992  26.9284990 109.5799997
  62.6819992  27.6024990 109.8609997  63.6439992  27.2494990 108.7469997
  63.2618181  27.0643233 109.5058266  65.0819992  27.2784990  95.4869997
  64.9019992  27.1234990  94.5589997  66.0319992  27.3864990  95.5309997
  65.1858016  27.2719264  95.3662123  74.4719992  29.6324990  94.9319997
  74.1989992  29.2084990  94.1189997  74.5119992  30.5644990  94.7149997
  74.4400201  29.7003523  94.7913548  64.0519992  22.6524990 108.1549997
  64.5879992  23.1044990 107.5029997  63.1999992  22.5444990 107.7329997
  64.0101648  22.6997883 108.0086395  65.6339992  28.0924990 108.3949997
  66.3849992  27.9364990 107.8219997  65.2949992  28.9444990 108.1189997
  65.6909052  28.1862745 108.2793469  64.8579992  20.1094990 108.5869997
  64.7599992  21.0554990 108.4809997  64.1149992  19.7364990 108.1109997
  64.7442363  20.1885987 108.5082029  64.9799992  37.9684990  96.4879997
  65.9129992  38.1264990  96.6319997  64.7149992  38.6444990  95.8629997
  65.0719846  38.0814567  96.4232930 130.3489992  15.5284990  79.5649997
 129.9769992  14.7034990  79.8749997 130.6269992  15.3454990  78.6679997
 130.3355997  15.3906160  79.4861551  58.5479992  32.6054990  95.9709997
  59.4619992  32.6844990  96.2439997  58.5549992  31.9184990  95.3039997
  58.6740769  32.5234735  95.9182366  57.1969992  37.9984990 101.0479997
  56.5499992  37.5364990 100.5149997  57.5519992  37.3264990 101.6309997
  57.1563861  37.8444707 101.0537939  58.0669992  36.0784990 102.8529997
  57.7329992  35.1984990 103.0249997  58.2889992  36.4244990 103.7169997
  58.0512677  36.0047365 102.9934252  75.6159992  36.8884990 105.8329997
  75.5939992  37.0734990 106.7719997  76.3059992  37.4564990 105.4919997
  75.7063439  36.9906898 105.9154774  75.1789992  36.4554990 108.7549997
  74.6919992  35.7194990 108.3839997  75.7279992  36.0614990 109.4329997
  75.1866101  36.3016267 108.7959034  74.9309992  30.5014990  98.9069997
  75.7809992  30.9224990  99.0349997  74.9359992  29.7614990  99.5149997
  75.0479745  30.4591347  99.0066479  75.3249992  28.5554990 100.7309997
  74.5989992  28.0754990 101.1289997  75.9059992  28.7604990 101.4629997
  75.3042504  28.5175592 100.8844199  75.0839992  31.3404990 105.6789997
  75.9179992  30.9624990 105.3979997  75.1959992  32.2834990 105.5599997
  75.2131917  31.4162954 105.6244844  73.5699992  34.2184990 107.9859997
  72.9229992  34.5434990 108.6109997  73.0529992  33.7774990 107.3109997
  73.4114067  34.2034726 107.9804918  75.5929992  28.4564990  97.1219997
  75.0719992  28.8124990  96.4029997  75.5599992  29.1314990  97.7999997
  75.5171525  28.5965273  97.1151408 127.5099992  10.3364990  86.5869997
 126.5819992  10.1054990  86.5599997 127.9609992   9.5594990  86.2569997
 127.4438165  10.1997785  86.5386772  73.9419992  25.6954990  95.6729997
  74.0389992  26.3624990  94.9929997  73.8019992  24.8804990  95.1909997
  73.9363428  25.6765667  95.5148311  73.1119992  27.0764990 101.2939997
  72.9619992  26.1314990 101.2739997  72.7579992  27.3574990 102.1379997
  73.0436351  26.9851656 101.4053202  58.1469992  29.1544990 105.3039997
  58.3309992  29.0724990 104.3689997  58.9959992  29.0304990 105.7279997
  58.2870259  29.1264915 105.2331771  73.1899992  23.1034990  94.7899997
  73.7999992  22.7324990  95.4269997  72.3529992  22.6824990  94.9859997
  73.1603704  22.9957942  94.9037077  72.8219992  24.6584990  99.7559997
  73.1019992  23.7514990  99.8809997  73.5809992  25.0924990  99.3669997
  72.9629471  24.5930654  99.7205051  73.4339992  25.2404990 105.1919997
  74.3669992  25.4524990 105.1579997  73.1989992  25.3414990 106.1149997
  73.5298357  25.2831303 105.3120232  73.4629992  25.9774990 107.9679997
  72.6199992  26.2454990 108.3339997  73.9059992  26.7994990 107.7569997
  73.4074358  26.1253294 107.9895999  73.4359992  21.9214990  99.8049997
  73.6179992  21.4724990 100.6299997  72.8359992  21.3374990  99.3409997
  73.3798187  21.7810563  99.8552721  58.9659992  22.7374990 104.3359997
  59.4109992  21.9454990 104.6379997  59.4319992  23.4534990 104.7669997
  59.0899059  22.7259485 104.4356061  57.2699992  25.7364990 105.4049997
  57.7619992  25.5154990 104.6149997  57.6319992  26.5764990 105.6859997
  57.3863428  25.8198220 105.3347918 120.0529992  14.6654990  82.7199997
 120.5799992  15.4384990  82.5189997 119.1729992  14.8894990  82.4179997
 120.0061793  14.8016652  82.6516304  75.3019992  21.9894990  96.3329997
  75.7149992  21.2684990  95.8569997  75.9839992  22.6584990  96.3909997
  75.4505712  21.9814304  96.2758247  57.5829992  21.9944990  99.4599997
  56.6579992  22.2024990  99.3299997  58.0369992  22.4784990  98.7699997
  57.5177401  22.0883895  99.3489433  72.3539992  36.9784990 101.4049997
  73.0059992  36.6304990 100.7969997  72.8649992  37.4664990 102.0509997
  72.5122872  36.9968248 101.4090964  57.5469992  20.7324990 107.8039997
  56.8819992  20.4864990 108.4469997  57.1039992  21.3544990 107.2269997
  57.3961168  20.7829225 107.8139830  62.6929992  34.8814990 108.2069997
  62.2679992  35.6914990 107.9239997  63.5969992  34.9674990 107.9049997
  62.7571002  35.0038728 108.1274798  74.2669992  20.1564990 109.4899997
  73.4539992  20.4814990 109.1019997  74.4999992  19.3954990 108.9569997
  74.1872566  20.0981570 109.3649196  60.0949992  38.1384990 108.2539997
  59.3739992  38.5784990 107.8029997  59.7289992  37.8874990 109.1029997
  59.9469785  38.1647691 108.3069849  62.5619992  37.7384990 107.2839997
  61.6969992  37.8104990 107.6879997  62.5069992  38.2854990 106.4999997
  62.4362066  37.8222678 107.2333371  67.2729992  37.6264990 106.4599997
  66.8159992  38.1554990 105.8059997  67.4349992  38.2294990 107.1849997
  67.2323919  37.7803990 106.4685740  69.5999992  36.5044990 107.4049997
  68.6959992  36.6694990 107.1389997  70.0289992  37.3574990 107.3389997
  69.5342017  36.6424184 107.3596495 115.8079992   9.5274990  77.3069997
 116.4239992  10.1544990  77.6859997 114.9459992   9.8434990  77.5779997
 115.7758195   9.6560810  77.3955369  72.2039992  38.0744990 107.6999997
  72.0229992  38.9904990 107.4889997  72.3809992  37.6634990 106.8529997
  72.2031377  38.1443365 107.5567178  59.5099992  36.7614990 105.1649997
  59.4909992  36.3354990 106.0219997  60.3139992  36.4424990 104.7559997
  59.6161393  36.6600297 105.2270155  61.6509992  35.4714990 103.8199997
  61.4319992  34.5544990 103.9889997  62.4749992  35.6114990 104.2859997
  61.7324637  35.3649586 103.9061414  64.1879992  35.9414990 104.6679997
  64.4009992  35.0534990 104.3809997  64.2529992  35.9064990 105.6229997
  64.2259075  35.8153318 104.7577355  67.6969992  21.6054990 103.8129997
  67.0219992  20.9754990 104.0679997  68.2609992  21.1214990 103.2099997
  67.6809558  21.4539283 103.7663451  72.8389992  19.7124990 103.9249997
  73.4429992  20.2604990 103.4239997  71.9699992  20.0314990 103.6849997
  72.8041126  19.8307070 103.8239180  74.5659992  20.8514990 102.2589997
  75.1779992  20.3374990 101.7319997  74.9489992  21.7284990 102.2819997
  74.7013867  20.8997613 102.1900888  60.0229992  20.2394990 101.6349997
  59.2459992  20.0044990 101.1269997  60.5539992  19.4424990 101.6439997
  59.9884443  20.0996721 101.5667200  58.8599992  20.0374990  97.4379997
  59.2989992  20.6484990  96.8469997  58.2259992  20.5754990  97.9119997
  58.8344103  20.1939233  97.4211376  64.6029992  20.1654990 101.4479997
  65.4769992  20.5544990 101.4179997  64.4669992  19.9504990 102.3709997
  64.7043125  20.1897120 101.5686523 121.4799992  12.3284990  82.2959997
 121.2389992  13.2534990  82.3379997 120.7399992  11.8694990  82.6919997
 121.3468934  12.3930881  82.3553191  70.1589992  20.1954990 103.0969997
  70.2359992  20.2914990 102.1479997  69.8839992  19.2884990 103.2259997
  70.1323407  20.0859188 102.9843532  71.5129992  20.2214990  98.7899997
  70.8099992  20.8364990  98.5799997  71.0679992  19.3844990  98.9209997
  71.3566550  20.1924679  98.7789819  58.7609992  35.9854990  98.3359997
  58.0759992  35.9474990  97.6679997  58.7639992  36.8974990  98.6239997
  58.6677358  36.1036744  98.2836145  60.7209992  21.9534990  95.8809997
  61.2119992  21.3234990  95.3529997  61.3439992  22.2494990  96.5439997
  60.8725459  21.9072419  95.8983667  65.7469992  22.2464990  98.3379997
  65.9249992  21.5994990  99.0209997  65.6929992  23.0804990  98.8049997
  65.7640678  22.2706615  98.4946283  67.6249992  37.1944990  96.7329997
  68.4909992  37.5614990  96.5549997  67.3779992  36.7554990  95.9199997
  67.7102041  37.1853648  96.5985958  74.3339992  36.7574990  99.4129997
  74.1399992  36.0094990  98.8479997  74.2949992  37.5154990  98.8289997
  74.3021907  36.7575770  99.2568077  60.5789992  36.9054990  95.3609997
  60.3109992  37.1914990  96.2339997  61.3499992  36.3594990  95.5129997
  60.6465600  36.8708341  95.5011482  87.9579992  29.3954990 101.5929997
  88.0469992  30.3394990 101.4609997  87.3189992  29.1204990 100.9349997
  87.8838319  29.4874984 101.4860276  86.8909992  28.6504990 105.0119997
  86.8519992  28.0044990 105.7169997  86.5679992  28.1834990 104.2409997
  86.8420199  28.4990089 105.0042865 121.9949992  16.4774990  88.6109997
 122.3579992  17.3314990  88.3779997 122.5269992  16.1854990  89.3519997
 122.1165141  16.5548907  88.6792079  79.2589992  28.2644990 106.6049997
  79.2999992  27.6394990 107.3289997  79.9619992  28.8884990 106.7869997
  79.3596054  28.2633262 106.7286311  90.5969992  31.5894990 103.3139997
  90.1559992  30.8694990 103.7639997  90.5839992  32.3104990 103.9439997
  90.5348398  31.5883187 103.4607734  80.1829992  32.7144990 105.1399997
  79.8129992  31.9124990 104.7709997  81.1239992  32.5464990 105.1869997
  80.2595630  32.5818680 105.0957873  76.7929992  26.3744990 100.5329997
  76.3449992  27.2204990 100.5149997  76.2319992  25.7954990 100.0179997
  76.6558546  26.4119004 100.4608874  77.5029992  28.5364990 102.6589997
  77.7169992  27.7664990 103.1859997  78.2409992  28.6264990 102.0559997
  77.6320073  28.4433546 102.6495786  87.7079992  36.6934990 103.5259997
  88.3279992  36.0174990 103.2529997  87.4999992  36.4754990 104.4339997
  87.7647360  36.5714792 103.6114387  85.2799992  31.0824990 105.4179997
  85.5839992  30.3964990 104.8239997  86.0019992  31.2014990 106.0359997
  85.4191152  31.0047201 105.4202106  93.9429992  22.6844990 106.2789997
  93.9919992  23.2944990 107.0149997  94.3689992  23.1454990 105.5559997
  94.0072851  22.8303266 106.2820532  88.4209992  25.4764990 105.7459997
  88.5629992  24.5304990 105.7659997  88.3149992  25.6834990 104.8169997
  88.4261158  25.3749722 105.6232241  81.5759992  23.5784990 103.0179997
  81.6189992  24.4384990 102.5999997  81.1179992  23.0254990 102.3849997
  81.5199613  23.6215689 102.8751276 120.1629992  17.3494990  81.8409997
 119.2139992  17.4554990  81.8929997 120.5149992  18.1704990  82.1859997
 120.0806214  17.4749361  81.8947317  89.2979992  23.7094990 101.4189997
  89.9439992  23.3804990 102.0439997  89.8079992  24.2264990 100.7959997
  89.4554392  23.7343710 101.4203248  78.1959992  25.9754990 103.7799997
  78.8499992  25.4254990 104.2119997  78.2199992  25.7014990 102.8639997
  78.2887022  25.8632005 103.7151698  83.3519992  27.5254990 102.9959997
  83.9679992  26.9984990 103.5049997  82.7659992  26.8854990 102.5919997
  83.3570652  27.3668919 103.0110277  94.3349992  24.1624990 108.5149997
  93.6459992  24.8204990 108.4199997  94.3499992  23.9644990 109.4519997
  94.2427756  24.2257614 108.6285795  80.3859992  22.4964990 107.0919997
  80.1669992  23.0264990 106.3259997  79.7179992  22.7224990 107.7399997
  80.2657271  22.5996508 107.0746206  87.7549992  31.9964990 100.6359997
  87.4589992  31.6734990  99.7849997  87.4309992  32.8964990 100.6779997
  87.6706501  32.0739058 100.5250893  82.9549992  30.1714990 107.3799997
  82.2149992  30.7704990 107.4829997  83.6689992  30.7254990 107.0639997
  82.9503288  30.3282368 107.3513787  91.0619992  23.0004990 103.3999997
  90.8469992  22.2344990 103.9319997  91.7179992  23.4724990 103.9129997
  91.1212451  22.9594472 103.5421699  79.9799992  24.3884990 105.0449997
  80.5929992  25.0214990 105.4179997  80.4919992  23.9164990 104.3879997
  80.1331680  24.4114006 105.0072830  81.3619992  32.1364990 108.1669997
  81.3569992  33.0154990 107.7889997  80.5089992  32.0524990 108.5919997
  81.2459199  32.2455901 108.1726942 125.5389992  12.5764990  88.3119997
 125.1129992  12.3484990  89.1379997 126.1199992  11.8374990  88.1289997
 125.5591587  12.4454084  88.4004111  77.4839992  31.8074990  98.9489997
  77.2119992  32.0364990  98.0599997  77.5289992  32.6444990  99.4089997
  77.4528709  31.9521069  98.8896089  91.1089992  33.4284990 105.6619997
  90.1669992  33.4874990 105.8229997  91.3849992  34.3344990 105.5249997
  91.0175771  33.5590270 105.6654827  91.4089992  21.7154990 107.0789997
  90.6729992  22.3254990 107.0409997  92.0929992  22.1304990 106.5529997
  91.4005885  21.8551924 107.0026931  84.4119992  19.8014990 104.5449997
  84.2949992  18.8534990 104.4909997  83.5569992  20.1344990 104.8179997
  84.2803691  19.7165842 104.5745072  89.3609992  35.2094990 102.2869997
  89.7859992  34.5024990 101.8019997  89.6779992  36.0114990 101.8699997
  89.4620266  35.2210201 102.1642461  90.5199992  33.1104990 100.7959997
  90.2629992  32.4204990 100.1839997  90.5909992  32.6674990 101.6409997
  90.4944322  32.9561568 100.8265372  92.2059992  31.6774990 109.2729997
  92.3459992  31.0854990 108.5339997  92.3739992  32.5504990 108.9169997
  92.2478734  31.7144041 109.1236937  86.6789992  28.6394990  99.0449997
  85.9669992  29.1744990  98.6939997  87.3699992  28.6944990  98.3849997
  86.6748696  28.7202591  98.9076372  86.7329992  27.0964990  96.0839997
  87.4339992  27.1194990  96.7349997  87.0349992  26.4684990  95.4279997
  86.8698282  27.0147350  96.0844478  94.0479992  28.0174990 107.3389997
  93.3959992  28.7114990 107.4279997  94.5129992  28.2274990 106.5289997
  94.0215357  28.1409544 107.2417056 128.1979992  17.1284990  90.7809997
 127.5959992  16.5724990  90.2859997 128.4789992  17.7954990  90.1549997
 128.1535757  17.1425755  90.6285657  90.0849992  28.8484990  99.9969997
  89.3529992  29.0774990 100.5699997  90.5319992  28.1354990 100.4519997
  90.0452753  28.7833984 100.1369698  89.9819992  27.0234990 109.0649997
  90.0619992  27.7864990 109.6369997  89.3809992  27.3024990 108.3739997
  89.9117115  27.1657707 109.0499631  81.7299992  29.4794990 101.8799997
  81.3999992  29.1084990 101.0609997  82.3179992  28.8084990 102.2259997
  81.7644056  29.3381257 101.8149035  83.0969992  32.9074990 104.5609997
  83.0019992  32.3284990 103.8039997  83.8259992  32.5364990 105.0569997
  83.1826161  32.7780902 104.5245192  82.0969992  28.2474990 105.5129997
  82.6619992  28.3694990 104.7499997  82.4149992  28.8854990 106.1519997
  82.2173430  28.3504448 105.4949094  88.4059992  33.7514990 106.2469997
  88.1649992  34.4134990 106.8949997  88.2079992  32.9164990 106.6719997
  88.3462662  33.7292704 106.3931008  88.9559992  28.0114990  97.6819997
  89.5349992  28.1614990  98.4289997  89.3699992  28.4814990  96.9589997
  89.0913122  28.0956288  97.6865024  79.8969992  28.8454990 109.4589997
  79.9669992  29.4964990 110.1569997  79.0059992  28.9484990 109.1239997
  79.7861802  28.9484769 109.5092231  86.6819992  34.7474990 101.1179997
  87.1559992  35.0434990 101.8949997  86.1189992  35.4864990 100.8839997
  86.6708460  34.8878336 101.1927626  92.6539992  19.7614990  97.4949997
  91.7539992  19.8994990  97.7899997  92.9059992  20.5924990  97.0929997
  92.5647355  19.8928200  97.4810539 116.3199992   4.3614990  90.1879997
 115.4269992   4.6994990  90.1209997 116.2209992   3.5054990  90.6059997
 116.1845241   4.2920941  90.2352982  80.7199992  28.5484990  99.4689997
  80.4279992  29.3164990  98.9779997  80.0459992  27.8894990  99.3059997
  80.5888843  28.5644537  99.3797695  93.8439992  34.1274990  95.8719997
  93.9169992  35.0664990  96.0419997  94.7489992  33.8224990  95.8149997
  93.9764168  34.2148531  95.8875736  76.8129992  30.9114990 108.2839997
  76.3119992  30.8834990 107.4689997  76.8189992  30.0064990 108.5939997
  76.7451690  30.7852234 108.2142770  76.5639992  33.6924990 105.1679997
  77.5099992  33.5474990 105.1489997  76.4509992  34.4764990 105.7049997
  76.6783578  33.7786708 105.2380300  85.7399992  33.9324990 109.7259997
  85.8269992  34.7584990 110.2009997  84.8759992  33.6024990 109.9749997
  85.6351944  34.0009871 109.8246558  86.1539992  37.7044990  99.5319997
  86.0789992  37.5834990  98.5859997  86.1869992  38.6534990  99.6509997
  86.1481862  37.8162492  99.4184840  79.8079992  36.4934990 101.3129997
  79.9599992  36.1454990 102.1919997  78.9569992  36.1364990 101.0579997
  79.7137899  36.3976749 101.3987322  89.2559992  36.8584990  96.5349997
  89.6309992  36.1144990  96.0639997  89.2599992  36.5884990  97.4529997
  89.3078969  36.7200920  96.5946475  88.9249992  36.7844990  99.2839997
  87.9899992  36.8844990  99.4629997  89.2049992  36.0744990  99.8619997
  88.8349270  36.7022300  99.3865984  79.0619992  32.2354990 109.3269997
  79.2779992  31.8734990 110.1869997  78.2069992  31.8604990 109.1169997
  78.9759349  32.1352914 109.4162134 128.6079992  12.1774990  79.6119997
 128.3309992  11.4494990  80.1679997 129.5349992  12.2964990  79.8179997
 128.6954181  12.0940068  79.7158972  81.6809992  20.7054990 105.3229997
  80.8189992  20.6184990 104.9149997  81.6589992  21.5614990 105.7499997
  81.5600953  20.8093558 105.3249262  86.3439992  20.4274990 108.6969997
  86.7639992  20.0124990 109.4499997  85.4109992  20.2484990 108.8139997
  86.2753736  20.3464921 108.8158950  89.6699992  24.1824990 109.5509997
  89.1559992  24.0574990 110.3479997  89.5149992  25.0954990 109.3059997
  89.5786643  24.2887068 109.6270624  90.4329992  29.0434990  95.3119997
  90.4749992  28.8214990  94.3819997  91.2819992  29.4424990  95.5019997
  90.5535253  29.0670510  95.2103804  86.0059992  22.9194990  95.9819997
  85.7519992  22.9384990  96.9049997  85.7489992  22.0484990  95.6809997
  85.9365133  22.8043121  96.0675065  81.7719992  25.6704990 106.4179997
  81.1299992  25.6304990 107.1269997  81.8089992  26.5974990 106.1799997
  81.6891659  25.7902540 106.4828463  81.7689992  25.8914990 101.3299997
  80.8759992  25.5514990 101.2709997  82.2199992  25.5144990 100.5739997
  81.7077185  25.7940220 101.2197698  87.3049992  26.3074990 100.1469997
  86.8959992  27.1224990  99.8549997  88.0249992  26.1674990  99.5319997
  87.3463946  26.3999963 100.0239616  88.3089992  25.7534990 102.9609997
  88.1139992  26.3594990 102.2459997  88.4909992  24.9204990 102.5259997
  88.3069272  25.7237955 102.8044075  79.5219992  25.9914990 108.2849997
  79.4839992  26.3914990 109.1529997  79.0309992  25.1744990 108.3749997
  79.4504246  25.9358842 108.4161171 115.9709992  16.1654990  88.6229997
 116.1879992  15.2334990  88.5919997 116.2179992  16.4404990  89.5069997
 116.0340543  16.0750877  88.7381412  82.8879992  23.3654990  95.0829997
  82.4569992  22.9204990  95.8129997  82.1699992  23.7364990  94.5709997
  82.7319363  23.3547979  95.1136194  76.1299992  23.1074990 102.1349997
  76.7609992  23.0784990 102.8549997  76.5799992  22.6824990 101.4049997
  76.2770905  23.0460839 102.1347479  77.4039992  23.8534990  97.5589997
  77.8789992  24.4444990  96.9739997  76.6869992  24.3834990  97.9059997
  77.3720406  24.0061011  97.5258495  87.5729992  27.3914990 107.6319997
  87.8969992  26.7604990 106.9889997  87.1329992  26.8574990 108.2929997
  87.5578707  27.2328261 107.6333195  84.3509992  23.3194990 102.4159997
  83.4399992  23.3764990 102.7049997  84.8559992  23.2594990 103.2269997
  84.2946873  23.3191838 102.5651190  79.1789992  24.9484990 101.2429997
  78.2899992  25.0474990 100.9029997  79.4749992  24.1064990 100.8969997
  79.0974001  24.8482473 101.1497318  82.8319992  24.9484990  98.8989997
  83.7639992  25.0774990  99.0769997  82.6169992  25.6174990  98.2499997
  82.9304245  25.0566452  98.8355602  88.7559992  22.5544990 105.6799997
  88.0789992  22.6854990 106.3439997  88.2699992  22.3994990 104.8699997
  88.5977265  22.5514665 105.6613380  81.5059992  26.1424990  96.4659997
  80.9639992  25.7634990  95.7749997  82.3399992  26.3374990  96.0369997
  81.5444283  26.1169383  96.3134298  85.6709992  26.1064990 104.3029997
  86.2349992  25.5604990 103.7559997  85.5229992  25.5854990 105.0919997
  85.7283037  25.9611798 104.3347212 121.8329992  14.6174990  75.8329997
 122.0719992  13.8684990  75.2849997 121.5639992  14.2294990  76.6649997
 121.8292804  14.4626524  75.8706352  80.6729992  22.2434990 100.7209997
  80.3549992  21.3404990 100.6859997  81.4539992  22.2454990 100.1689997
  80.7351560  22.1201148 100.6414975  84.2969992  24.4954990 106.7169997
  83.4619992  24.9494990 106.8269997  84.8209992  24.7714990 107.4689997
  84.2535070  24.5949677 106.8337134  84.8409992  30.7084990  98.4019997
  84.0959992  30.2004990  98.0789997  84.7069992  30.7574990  99.3479997
  84.7208633  30.6455714  98.4857563  91.9909992  29.8414990 107.1879997
  92.6329992  30.2974990 106.6449997  91.1609992  29.9544990 106.7259997
  91.9667352  29.9193223 107.0510234  88.7389992  23.5224990  96.6009997
  87.7999992  23.6334990  96.4499997  89.0359992  24.3784990  96.9069997
  88.6506371  23.6535327  96.6217362  86.3609992  30.8924990 109.6389997
  86.0149992  30.5104990 110.4449997  86.1609992  31.8254990 109.7099997
  86.2865399  30.9663489 109.7590401  89.4569992  25.3894990  98.2619997
  90.3489992  25.2514990  98.5809997  89.5139992  26.1804990  97.7249997
  89.5867380  25.4774777  98.2330981  79.9659992  30.0034990 104.1709997
  80.7109992  30.0004990 103.5699997  80.0439992  29.1794990 104.6529997
  80.0784158  29.8917928 104.1539136  86.9669992  32.1664990  97.4269997
  86.6719992  32.9934990  97.8089997  86.2639992  31.5474990  97.6229997
  86.8315855  32.1959458  97.5057634  76.9739992  28.4634990 109.4859997
  77.1969992  28.0454990 110.3179997  76.3719992  27.8514990 109.0639997
  76.9230802  28.3235216 109.5427561 120.7699992  14.1874990  78.2889997
 120.9169992  13.6674990  79.0789997 120.7669992  15.0944990  78.5949997
 120.7897300  14.2388975  78.4385877  88.6109992  33.3544990 109.5889997
  87.7099992  33.5374990 109.3209997  88.6449992  33.6134990 110.5099997
  88.4923021  33.4145505 109.6768206  94.3419992  25.5984990  97.9559997
  93.7879992  25.2024990  97.2839997  94.4429992  26.5094990  97.6789997
  94.2797084  25.6673565  97.8264381  92.6369992  34.3844990  98.4209997
  92.2649992  33.5594990  98.7309997  92.9149992  34.2014990  97.5239997
  92.6235997  34.2466160  98.3421551  89.7979992  29.1924990 105.4429997
  88.8699992  28.9614990 105.4159997  90.2489992  28.4154990 105.1129997
  89.7318165  29.0557785 105.3946772  82.3409992  33.5214990 101.5759997
  82.8679992  34.2944990 101.3749997  81.4609992  33.7454990 101.2739997
  82.2941793  33.6576652 101.5076304  78.0959992  28.3834990  96.1629997
  78.7119992  29.0104990  96.5419997  77.2339992  28.6994990  96.4339997
  78.0638195  28.5120810  96.2515369  83.7679992  31.1844990 101.1519997
  83.5269992  32.1094990 101.1939997  83.0279992  30.7254990 101.5479997
  83.6348934  31.2490881 101.2113191  84.2829992  35.3334990 107.4669997
  84.6459992  36.1874990 107.2339997  84.8149992  35.0414990 108.2079997
  84.4045141  35.4108907 107.5352079  82.4509992  36.2054990 100.6969997
  81.5019992  36.3114990 100.7489997  82.8029992  37.0264990 101.0419997
  82.3686214  36.3309361 100.7507317  87.8269992  31.4324990 107.1679997
  87.4009992  31.2044990 107.9939997  88.4079992  30.6934990 106.9849997
  87.8471587  31.3014084 107.2564111 117.2229992  11.4394990  78.7989997
 116.5369992  11.7924990  79.3659997 117.7459992  12.2024990  78.5529997
 117.1999033  11.5908757  78.8432644  90.0299992  32.3614990  96.2419997
  90.3829992  31.9814990  97.0459997  89.0809992  32.2674990  96.3279997
  89.9500985  32.2967330  96.3637738  90.4859992  35.9844990 109.6369997
  89.8839992  35.4284990 109.1419997  90.7669992  36.6514990 109.0109997
  90.4415757  35.9985755 109.4845657  94.5329992  36.8404990  96.4429997
  95.2769992  37.4264990  96.3029997  93.8389992  37.4094990  96.7759997
  94.5409809  36.9975830  96.4688572  78.6079992  23.2174990 109.0439997
  77.7149992  23.5554990 108.9769997  78.5089992  22.3614990 109.4619997
  78.4725241  23.1480941 109.0912982  90.8959992  31.0334990  98.4679997
  90.6189992  30.3054990  99.0239997  91.8229992  31.1524990  98.6739997
  90.9834181  30.9500068  98.5718972  78.2589992  35.0214990 107.4789997
  78.4759992  34.0894990 107.4479997  78.5059992  35.2964990 108.3629997
  78.3220543  34.9310877 107.5941412  84.1209992  33.4734990  94.6889997
  84.3599992  32.7244990  94.1409997  83.8519992  33.0854990  95.5209997
  84.1172804  33.3186524  94.7266352  83.0579992  33.0434990  97.1449997
  83.2049992  32.5234990  97.9349997  83.0549992  33.9504990  97.4509997
  83.0777300  33.0948975  97.2945877  79.5109992  30.2954990  97.6549997
  78.8249992  30.6484990  98.2219997  80.0339992  31.0584990  97.4089997
  79.4879033  30.4468757  97.6992644  87.3419992  22.9584990 107.9339997
  88.0409992  23.0324990 108.5839997  86.9619992  22.0934990 108.0889997
  87.3862095  22.8517402 108.0437982 125.0539992   4.1024990  89.0779997
 125.7529992   4.1764990  89.7279997 124.6739992   3.2374990  89.2329997
 125.0982095   3.9957402  89.1877982  88.1269992  22.6104990  99.0309997
  88.3469992  23.0814990  98.2279997  88.6849992  23.0044990  99.7019997
  88.2325851  22.7283272  99.0116134  85.7959992  34.7404990  97.8939997
  84.9789992  35.2374990  97.9469997  86.3249992  35.2164990  97.2539997
  85.7557898  34.8728123  97.8147274  85.3269992  24.3384990  99.8659997
  86.1389992  24.8424990  99.9119997  85.0819992  24.1934990 100.7799997
  85.4051091  24.3879366  99.9958552  85.8629992  25.3244990 109.0509997
  85.9819992  25.8984990 109.8079997  86.5179992  24.6364990 109.1659997
  85.9678684  25.3100205 109.1701656  86.2109992  21.4194990 100.8039997
  85.8639992  22.0364990 101.4489997  86.8689992  21.9204990 100.3229997
  86.2525290  21.5716384 100.8271635  83.1339992  35.7844990  97.8759997
  83.2949992  36.5844990  97.3749997  82.9369992  36.0914990  98.7609997
  83.1293919  35.9354140  97.9270988  81.8679992  22.4824990  97.4919997
  81.7849992  23.3704990  97.8379997  82.7579992  22.2174990  97.7229997
  81.9769751  22.5682482  97.5706066  92.0669992  23.2314990 109.8859997
  91.1509992  23.4934990 109.7979997  92.4029992  23.2284990 108.9889997
  91.9869789  23.2669637 109.7527829  90.6689992  26.9814990 103.9819997
  89.8719992  26.5664990 103.6529997  91.1139992  26.2914990 104.4729997
  90.6200317  26.8313197 104.0033556  80.1269992  32.9094990  96.5519997
  80.7189992  33.6094990  96.8279997  80.5859992  32.4764990  95.8329997
  80.2701172  32.9467371  96.4925163 123.5079992  15.8844990  79.0379997
 122.6909992  16.3814990  79.0909997 124.0369992  16.3604990  78.3979997
 123.4677898  16.0168123  78.9587274  78.4429992  25.5744990  95.6679997
  78.3979992  26.5134990  95.8469997  77.5549992  25.3384990  95.3979997
  78.3168472  25.6711946  95.6560282  91.7559992  36.2374990 105.6039997
  91.5999992  36.9164990 104.9469997  92.6879992  36.3094990 105.8069997
  91.8607328  36.3401586 105.5415529  79.2509992  20.3554990 104.3409997
  79.0219992  20.4144990 103.4139997  78.8079992  19.5644990 104.6479997
  79.1597387  20.2566412 104.2555223  78.1809992  34.2964990 100.5019997
  77.3489992  34.7684990 100.5289997  78.7269992  34.8064990  99.9029997
  78.1408710  34.4300317 100.4247570  86.1589992  35.3364990  94.8269997
  85.5149992  34.7054990  95.1489997  86.9209992  34.8054990  94.5949997
  86.1738260  35.1783035  94.8397298  90.7629992  35.1534990  95.0609997
  91.0459992  34.3584990  95.5139997  91.5029992  35.3864990  94.4999997
  90.9017295  35.0762349  95.0471469  81.7179992  31.0624990  94.9179997
  81.7819992  30.2684990  95.4489997  82.3709992  30.9444990  94.2289997
  81.8151168  30.9377748  94.8975119  87.0699992  32.1094990  94.6539997
  86.8019992  32.2904990  95.5549997  86.8639992  31.1844990  94.5229997
  87.0054251  32.0091528  94.7596809  89.7669992  30.6044990 109.6019997
  90.5119992  31.1934990 109.4819997  89.0089992  31.1864990 109.6649997
  89.7665185  30.7637000 109.5940940  82.8669992  29.0354990  97.2239997
  82.4079992  28.5514990  97.9099997  83.1219992  28.3664990  96.5879997
  82.8386178  28.8788511  97.2319785 123.0389992   5.4824990  81.0099997
 123.8509992   5.9864990  81.0559997 122.7939992   5.3374990  81.9239997
 123.1171091   5.5319366  81.1398552  82.1559992  26.9284990 109.5799997
  81.5379992  27.6024990 109.8609997  82.4999992  27.2494990 108.7469997
  82.1178181  27.0643233 109.5058266  83.9379992  27.2784990  95.4869997
  83.7579992  27.1234990  94.5589997  84.8879992  27.3864990  95.5309997
  84.0418016  27.2719264  95.3662123  93.3279992  29.6324990  94.9319997
  93.0549992  29.2084990  94.1189997  93.3679992  30.5644990  94.7149997
  93.2960201  29.7003523  94.7913548  82.9079992  22.6524990 108.1549997
  83.4439992  23.1044990 107.5029997  82.0559992  22.5444990 107.7329997
  82.8661648  22.6997883 108.0086395  84.4899992  28.0924990 108.3949997
  85.2409992  27.9364990 107.8219997  84.1509992  28.9444990 108.1189997
  84.5469052  28.1862745 108.2793469  83.7139992  20.1094990 108.5869997
  83.6159992  21.0554990 108.4809997  82.9709992  19.7364990 108.1109997
  83.6002363  20.1885987 108.5082029  83.8359992  37.9684990  96.4879997
  84.7689992  38.1264990  96.6319997  83.5709992  38.6444990  95.8629997
  83.9279846  38.0814567  96.4232930  77.4039992  32.6054990  95.9709997
  78.3179992  32.6844990  96.2439997  77.4109992  31.9184990  95.3039997
  77.5300769  32.5234735  95.9182366  76.0529992  37.9984990 101.0479997
  75.4059992  37.5364990 100.5149997  76.4079992  37.3264990 101.6309997
  76.0123861  37.8444707 101.0537939  76.9229992  36.0784990 102.8529997
  76.5889992  35.1984990 103.0249997  77.1449992  36.4244990 103.7169997
  76.9072677  36.0047365 102.9934252 123.5749992   6.4684990  90.1949997
 123.6939992   7.0424990  90.9519997 124.2299992   5.7804990  90.3099997
 123.6798684   6.4540205  90.3141656  94.4719992  36.8884990 105.8329997
  94.4499992  37.0734990 106.7719997  95.1619992  37.4564990 105.4919997
  94.5623439  36.9906898 105.9154774  94.0349992  36.4554990 108.7549997
  93.5479992  35.7194990 108.3839997  94.5839992  36.0614990 109.4329997
  94.0426101  36.3016267 108.7959034  93.7869992  30.5014990  98.9069997
  94.6369992  30.9224990  99.0349997  93.7919992  29.7614990  99.5149997
  93.9039745  30.4591347  99.0066479  94.1809992  28.5554990 100.7309997
  93.4549992  28.0754990 101.1289997  94.7619992  28.7604990 101.4629997
  94.1602504  28.5175592 100.8844199  93.9399992  31.3404990 105.6789997
  94.7739992  30.9624990 105.3979997  94.0519992  32.2834990 105.5599997
  94.0691917  31.4162954 105.6244844  92.4259992  34.2184990 107.9859997
  91.7789992  34.5434990 108.6109997  91.9089992  33.7774990 107.3109997
  92.2674068  34.2034726 107.9804918  94.4489992  28.4564990  97.1219997
  93.9279992  28.8124990  96.4029997  94.4159992  29.1314990  97.7999997
  94.3731525  28.5965273  97.1151408  92.7979992  25.6954990  95.6729997
  92.8949992  26.3624990  94.9929997  92.6579992  24.8804990  95.1909997
  92.7923428  25.6765667  95.5148311  91.9679992  27.0764990 101.2939997
  91.8179992  26.1314990 101.2739997  91.6139992  27.3574990 102.1379997
  91.8996351  26.9851656 101.4053202  77.0029992  29.1544990 105.3039997
  77.1869992  29.0724990 104.3689997  77.8519992  29.0304990 105.7279997
  77.1430259  29.1264915 105.2331771 123.9229992   2.5634990  81.9479997
 123.5759992   3.1804990  82.5929997 124.5809992   3.0644990  81.4669997
 123.9645290   2.7156384  81.9711635  92.0459992  23.1034990  94.7899997
  92.6559992  22.7324990  95.4269997  91.2089992  22.6824990  94.9859997
  92.0163704  22.9957942  94.9037077  91.6779992  24.6584990  99.7559997
  91.9579992  23.7514990  99.8809997  92.4369992  25.0924990  99.3669997
  91.8189471  24.5930654  99.7205052  92.2899992  25.2404990 105.1919997
  93.2229992  25.4524990 105.1579997  92.0549992  25.3414990 106.1149997
  92.3858357  25.2831303 105.3120232  92.3189992  25.9774990 107.9679997
  91.4759992  26.2454990 108.3339997  92.7619992  26.7994990 107.7569997
  92.2634358  26.1253294 107.9895999  92.2919992  21.9214990  99.8049997
  92.4739992  21.4724990 100.6299997  91.6919992  21.3374990  99.3409997
  92.2358187  21.7810563  99.8552721  77.8219992  22.7374990 104.3359997
  78.2669992  21.9454990 104.6379997  78.2879992  23.4534990 104.7669997
  77.9459059  22.7259485 104.4356061  76.1259992  25.7364990 105.4049997
  76.6179992  25.5154990 104.6149997  76.4879992  26.5764990 105.6859997
  76.2423429  25.8198220 105.3347918  94.1579992  21.9894990  96.3329997
  94.5709992  21.2684990  95.8569997  94.8399992  22.6584990  96.3909997
  94.3065712  21.9814304  96.2758247  76.4389992  21.9944990  99.4599997
  75.5139992  22.2024990  99.3299997  76.8929992  22.4784990  98.7699997
  76.3737401  22.0883895  99.3489433  91.2099992  36.9784990 101.4049997
  91.8619992  36.6304990 100.7969997  91.7209992  37.4664990 102.0509997
  91.3682872  36.9968248 101.4090964 120.8459992  16.9284990  79.0199997
 121.0069992  17.7284990  78.5189997 120.6489992  17.2354990  79.9049997
 120.8413919  17.0794140  79.0710988  76.4029992  20.7324990 107.8039997
  75.7379992  20.4864990 108.4469997  75.9599992  21.3544990 107.2269997
  76.2521168  20.7829225 107.8139830  81.5489992  34.8814990 108.2069997
  81.1239992  35.6914990 107.9239997  82.4529992  34.9674990 107.9049997
  81.6131002  35.0038728 108.1274798  93.1229992  20.1564990 109.4899997
  92.3099992  20.4814990 109.1019997  93.3559992  19.3954990 108.9569997
  93.0432566  20.0981570 109.3649196  78.9509992  38.1384990 108.2539997
  78.2299992  38.5784990 107.8029997  78.5849992  37.8874990 109.1029997
  78.8029785  38.1647691 108.3069849  81.4179992  37.7384990 107.2839997
  80.5529992  37.8104990 107.6879997  81.3629992  38.2854990 106.4999997
  81.2922066  37.8222678 107.2333371  86.1289992  37.6264990 106.4599997
  85.6719992  38.1554990 105.8059997  86.2909992  38.2294990 107.1849997
  86.0883919  37.7803990 106.4685740  88.4559992  36.5044990 107.4049997
  87.5519992  36.6694990 107.1389997  88.8849992  37.3574990 107.3389997
  88.3902017  36.6424184 107.3596495  91.0599992  38.0744990 107.6999997
  90.8789992  38.9904990 107.4889997  91.2369992  37.6634990 106.8529997
  91.0591377  38.1443365 107.5567178  78.3659992  36.7614990 105.1649997
  78.3469992  36.3354990 106.0219997  79.1699992  36.4424990 104.7559997
  78.4721393  36.6600297 105.2270155  80.5069992  35.4714990 103.8199997
  80.2879992  34.5544990 103.9889997  81.3309992  35.6114990 104.2859997
  80.5884637  35.3649586 103.9061414 119.5799992   3.6264990  78.6359997
 119.4969992   4.5144990  78.9819997 120.4699992   3.3614990  78.8669997
 119.6889751   3.7122482  78.7146066  83.0439992  35.9414990 104.6679997
  83.2569992  35.0534990 104.3809997  83.1089992  35.9064990 105.6229997
  83.0819075  35.8153318 104.7577355  86.5529992  21.6054990 103.8129997
  85.8779992  20.9754990 104.0679997  87.1169992  21.1214990 103.2099997
  86.5369558  21.4539283 103.7663451  91.6949992  19.7124990 103.9249997
  92.2989992  20.2604990 103.4239997  90.8259992  20.0314990 103.6849997
  91.6601126  19.8307070 103.8239180  93.4219992  20.8514990 102.2589997
  94.0339992  20.3374990 101.7319997  93.8049992  21.7284990 102.2819997
  93.5573867  20.8997613 102.1900888  78.8789992  20.2394990 101.6349997
  78.1019992  20.0044990 101.1269997  79.4099992  19.4424990 101.6439997
  78.8444443  20.0996721 101.5667200  77.7159992  20.0374990  97.4379997
  78.1549992  20.6484990  96.8469997  77.0819992  20.5754990  97.9119997
  77.6904103  20.1939233  97.4211376  83.4589992  20.1654990 101.4479997
  84.3329992  20.5544990 101.4179997  83.3229992  19.9504990 102.3709997
  83.5603125  20.1897120 101.5686523  89.0149992  20.1954990 103.0969997
  89.0919992  20.2914990 102.1479997  88.7399992  19.2884990 103.2259997
  88.9883407  20.0859188 102.9843532  90.3689992  20.2214990  98.7899997
  89.6659992  20.8364990  98.5799997  89.9239992  19.3844990  98.9209997
  90.2126550  20.1924679  98.7789819  77.6169992  35.9854990  98.3359997
  76.9319992  35.9474990  97.6679997  77.6199992  36.8974990  98.6239997
  77.5237358  36.1036744  98.2836145 129.7789992   4.3754990  91.0299997
 128.8629992   4.6374990  90.9419997 130.1149992   4.3724990  90.1329997
 129.6989789   4.4109637  90.8967829  79.5769992  21.9534990  95.8809997
  80.0679992  21.3234990  95.3529997  80.1999992  22.2494990  96.5439997
  79.7285459  21.9072419  95.8983667  84.6029992  22.2464990  98.3379997
  84.7809992  21.5994990  99.0209997  84.5489992  23.0804990  98.8049997
  84.6200678  22.2706615  98.4946283  86.4809992  37.1944990  96.7329997
  87.3469992  37.5614990  96.5549997  86.2339992  36.7554990  95.9199997
  86.5662041  37.1853648  96.5985958  93.1899992  36.7574990  99.4129997
  92.9959992  36.0094990  98.8479997  93.1509992  37.5154990  98.8289997
  93.1581907  36.7575770  99.2568077  79.4349992  36.9054990  95.3609997
  79.1669992  37.1914990  96.2339997  80.2059992  36.3594990  95.5129997
  79.5025600  36.8708341  95.5011482 106.8139992  29.3954990 101.5929997
 106.9029992  30.3394990 101.4609997 106.1749992  29.1204990 100.9349997
 106.7398319  29.4874984 101.4860276 105.7469992  28.6504990 105.0119997
 105.7079992  28.0044990 105.7169997 105.4239992  28.1834990 104.2409997
 105.6980199  28.4990089 105.0042865  98.1149992  28.2644990 106.6049997
  98.1559992  27.6394990 107.3289997  98.8179992  28.8884990 106.7869997
  98.2156054  28.2633262 106.7286311 109.4529992  31.5894990 103.3139997
 109.0119992  30.8694990 103.7639997 109.4399992  32.3104990 103.9439997
 109.3908398  31.5883187 103.4607734  99.0389992  32.7144990 105.1399997
  98.6689992  31.9124990 104.7709997  99.9799992  32.5464990 105.1869997
  99.1155630  32.5818680 105.0957873 128.3809992   8.1254990  85.1259997
 127.5839992   7.7104990  84.7969997 128.8259992   7.4354990  85.6169997
 128.3320317   7.9753197  85.1473556  95.6489992  26.3744990 100.5329997
  95.2009992  27.2204990 100.5149997  95.0879992  25.7954990 100.0179997
  95.5118546  26.4119004 100.4608874  96.3589992  28.5364990 102.6589997
  96.5729992  27.7664990 103.1859997  97.0969992  28.6264990 102.0559997
  96.4880073  28.4433546 102.6495786 106.5639992  36.6934990 103.5259997
 107.1839992  36.0174990 103.2529997 106.3559992  36.4754990 104.4339997
 106.6207360  36.5714792 103.6114387 104.1359992  31.0824990 105.4179997
 104.4399992  30.3964990 104.8239997 104.8579992  31.2014990 106.0359997
 104.2751152  31.0047201 105.4202106 112.7989992  22.6844990 106.2789997
 112.8479992  23.2944990 107.0149997 113.2249992  23.1454990 105.5559997
 112.8632851  22.8303266 106.2820532 107.2769992  25.4764990 105.7459997
 107.4189992  24.5304990 105.7659997 107.1709992  25.6834990 104.8169997
 107.2821158  25.3749722 105.6232241 100.4319992  23.5784990 103.0179997
 100.4749992  24.4384990 102.5999997  99.9739992  23.0254990 102.3849997
 100.3759613  23.6215689 102.8751276 108.1539992  23.7094990 101.4189997
 108.7999992  23.3804990 102.0439997 108.6639992  24.2264990 100.7959997
 108.3114392  23.7343710 101.4203248  97.0519992  25.9754990 103.7799997
  97.7059992  25.4254990 104.2119997  97.0759992  25.7014990 102.8639997
  97.1447022  25.8632005 103.7151698 102.2079992  27.5254990 102.9959997
 102.8239992  26.9984990 103.5049997 101.6219992  26.8854990 102.5919997
 102.2130652  27.3668919 103.0110277 117.8389992  14.0534990  77.6959997
 118.4309992  14.7534990  77.9719997 118.2979992  13.6204990  76.9769997
 117.9821172  14.0907371  77.6365163 113.1909992  24.1624990 108.5149997
 112.5019992  24.8204990 108.4199997 113.2059992  23.9644990 109.4519997
 113.0987756  24.2257614 108.6285795  99.2419992  22.4964990 107.0919997
  99.0229992  23.0264990 106.3259997  98.5739992  22.7224990 107.7399997
  99.1217271  22.5996508 107.0746206 106.6109992  31.9964990 100.6359997
 106.3149992  31.6734990  99.7849997 106.2869992  32.8964990 100.6779997
 106.5266501  32.0739058 100.5250893 101.8109992  30.1714990 107.3799997
 101.0709992  30.7704990 107.4829997 102.5249992  30.7254990 107.0639997
 101.8063288  30.3282368 107.3513787 109.9179992  23.0004990 103.3999997
 109.7029992  22.2344990 103.9319997 110.5739992  23.4724990 103.9129997
 109.9772451  22.9594472 103.5421699  98.8359992  24.3884990 105.0449997
  99.4489992  25.0214990 105.4179997  99.3479992  23.9164990 104.3879997
  98.9891680  24.4114006 105.0072830 100.2179992  32.1364990 108.1669997
 100.2129992  33.0154990 107.7889997  99.3649992  32.0524990 108.5919997
 100.1019199  32.2455901 108.1726942  96.3399992  31.8074990  98.9489997
  96.0679992  32.0364990  98.0599997  96.3849992  32.6444990  99.4089997
  96.3088709  31.9521069  98.8896089 109.9649992  33.4284990 105.6619997
 109.0229992  33.4874990 105.8229997 110.2409992  34.3344990 105.5249997
 109.8735771  33.5590270 105.6654827 110.2649992  21.7154990 107.0789997
 109.5289992  22.3254990 107.0409997 110.9489992  22.1304990 106.5529997
 110.2565885  21.8551924 107.0026931 116.1549992   6.7184990  76.8119997
 116.1099992   7.6574990  76.9909997 115.2669992   6.4824990  76.5419997
 116.0288472   6.8151946  76.8000282 103.2679992  19.8014990 104.5449997
 103.1509992  18.8534990 104.4909997 102.4129992  20.1344990 104.8179997
 103.1363691  19.7165842 104.5745072 108.2169992  35.2094990 102.2869997
 108.6419992  34.5024990 101.8019997 108.5339992  36.0114990 101.8699997
 108.3180266  35.2210201 102.1642461 109.3759992  33.1104990 100.7959997
 109.1189992  32.4204990 100.1839997 109.4469992  32.6674990 101.6409997
 109.3504322  32.9561568 100.8265372 111.0619992  31.6774990 109.2729997
 111.2019992  31.0854990 108.5339997 111.2299992  32.5504990 108.9169997
 111.1038734  31.7144041 109.1236937 105.5349992  28.6394990  99.0449997
 104.8229992  29.1744990  98.6939997 106.2259992  28.6944990  98.3849997
 105.5308696  28.7202591  98.9076372 105.5889992  27.0964990  96.0839997
 106.2899992  27.1194990  96.7349997 105.8909992  26.4684990  95.4279997
 105.7258282  27.0147350  96.0844478 112.9039992  28.0174990 107.3389997
 112.2519992  28.7114990 107.4279997 113.3689992  28.2274990 106.5289997
 112.8775357  28.1409544 107.2417056 108.9409992  28.8484990  99.9969997
 108.2089992  29.0774990 100.5699997 109.3879992  28.1354990 100.4519997
 108.9012753  28.7833984 100.1369698 108.8379992  27.0234990 109.0649997
 108.9179992  27.7864990 109.6369997 108.2369992  27.3024990 108.3739997
 108.7677115  27.1657707 109.0499631 100.5859992  29.4794990 101.8799997
 100.2559992  29.1084990 101.0609997 101.1739992  28.8084990 102.2259997
 100.6204056  29.3381257 101.8149035 129.4679992  17.3814990  86.7479997
 129.3119992  18.0604990  86.0909997 130.3999992  17.4534990  86.9509997
 129.5727328  17.4841586  86.6855529 101.9529992  32.9074990 104.5609997
 101.8579992  32.3284990 103.8039997 102.6819992  32.5364990 105.0569997
 102.0386161  32.7780902 104.5245192 100.9529992  28.2474990 105.5129997
 101.5179992  28.3694990 104.7499997 101.2709992  28.8854990 106.1519997
 101.0733430  28.3504448 105.4949094 107.2619992  33.7514990 106.2469997
 107.0209992  34.4134990 106.8949997 107.0639992  32.9164990 106.6719997
 107.2022662  33.7292704 106.3931008 107.8119992  28.0114990  97.6819997
 108.3909992  28.1614990  98.4289997 108.2259992  28.4814990  96.9589997
 107.9473122  28.0956288  97.6865024  98.7529992  28.8454990 109.4589997
  98.8229992  29.4964990 110.1569997  97.8619992  28.9484990 109.1239997
  98.6421802  28.9484769 109.5092231 105.5379992  34.7474990 101.1179997
 106.0119992  35.0434990 101.8949997 104.9749992  35.4864990 100.8839997
 105.5268460  34.8878336 101.1927626 111.5099992  19.7614990  97.4949997
 110.6099992  19.8994990  97.7899997 111.7619992  20.5924990  97.0929997
 111.4207355  19.8928200  97.4810539  99.5759992  28.5484990  99.4689997
  99.2839992  29.3164990  98.9779997  98.9019992  27.8894990  99.3059997
  99.4448843  28.5644537  99.3797695 112.6999992  34.1274990  95.8719997
 112.7729992  35.0664990  96.0419997 113.6049992  33.8224990  95.8149997
 112.8324168  34.2148531  95.8875736  95.6689992  30.9114990 108.2839997
  95.1679992  30.8834990 107.4689997  95.6749992  30.0064990 108.5939997
  95.6011690  30.7852234 108.2142770 116.9629992   1.4994990  85.4849997
 116.7339992   1.5584990  84.5579997 116.5199992   0.7084990  85.7919997
 116.8717387   1.4006412  85.3995223  95.4199992  33.6924990 105.1679997
  96.3659992  33.5474990 105.1489997  95.3069992  34.4764990 105.7049997
  95.5343578  33.7786708 105.2380300 104.5959992  33.9324990 109.7259997
 104.6829992  34.7584990 110.2009997 103.7319992  33.6024990 109.9749997
 104.4911944  34.0009871 109.8246558 105.0099992  37.7044990  99.5319997
 104.9349992  37.5834990  98.5859997 105.0429992  38.6534990  99.6509997
 105.0041862  37.8162492  99.4184840  98.6639992  36.4934990 101.3129997
  98.8159992  36.1454990 102.1919997  97.8129992  36.1364990 101.0579997
  98.5697899  36.3976749 101.3987322 108.1119992  36.8584990  96.5349997
 108.4869992  36.1144990  96.0639997 108.1159992  36.5884990  97.4529997
 108.1638969  36.7200920  96.5946475 107.7809992  36.7844990  99.2839997
 106.8459992  36.8844990  99.4629997 108.0609992  36.0744990  99.8619997
 107.6909270  36.7022300  99.3865984  97.9179992  32.2354990 109.3269997
  98.1339992  31.8734990 110.1869997  97.0629992  31.8604990 109.1169997
  97.8319349  32.1352914 109.4162134 100.5369992  20.7054990 105.3229997
  99.6749992  20.6184990 104.9149997 100.5149992  21.5614990 105.7499997
 100.4160953  20.8093558 105.3249262 105.1999992  20.4274990 108.6969997
 105.6199992  20.0124990 109.4499997 104.2669992  20.2484990 108.8139997
 105.1313736  20.3464921 108.8158950 108.5259992  24.1824990 109.5509997
 108.0119992  24.0574990 110.3479997 108.3709992  25.0954990 109.3059997
 108.4346643  24.2887068 109.6270624 115.8929992  15.4404990  81.6459997
 115.0609992  15.9124990  81.6729997 116.4389992  15.9504990  81.0469997
 115.8528710  15.5740317  81.5687570 109.2889992  29.0434990  95.3119997
 109.3309992  28.8214990  94.3819997 110.1379992  29.4424990  95.5019997
 109.4095253  29.0670510  95.2103804 104.8619992  22.9194990  95.9819997
 104.6079992  22.9384990  96.9049997 104.6049992  22.0484990  95.6809997
 104.7925133  22.8043121  96.0675065 100.6279992  25.6704990 106.4179997
  99.9859992  25.6304990 107.1269997 100.6649992  26.5974990 106.1799997
 100.5451659  25.7902540 106.4828463 100.6249992  25.8914990 101.3299997
  99.7319992  25.5514990 101.2709997 101.0759992  25.5144990 100.5739997
 100.5637185  25.7940220 101.2197698 106.1609992  26.3074990 100.1469997
 105.7519992  27.1224990  99.8549997 106.8809992  26.1674990  99.5319997
 106.2023946  26.3999963 100.0239616 107.1649992  25.7534990 102.9609997
 106.9699992  26.3594990 102.2459997 107.3469992  24.9204990 102.5259997
 107.1629272  25.7237955 102.8044075  98.3779992  25.9914990 108.2849997
  98.3399992  26.3914990 109.1529997  97.8869992  25.1744990 108.3749997
  98.3064246  25.9358842 108.4161171 101.7439992  23.3654990  95.0829997
 101.3129992  22.9204990  95.8129997 101.0259992  23.7364990  94.5709997
 101.5879363  23.3547979  95.1136194  94.9859992  23.1074990 102.1349997
  95.6169992  23.0784990 102.8549997  95.4359992  22.6824990 101.4049997
  95.1330905  23.0460839 102.1347479  96.2599992  23.8534990  97.5589997
  96.7349992  24.4444990  96.9739997  95.5429992  24.3834990  97.9059997
  96.2280406  24.0061011  97.5258495 115.1819992  18.0524990  92.9759997
 115.7219992  17.8364990  93.7349997 114.6999992  17.2474990  92.7859997
 115.1909101  17.9140216  93.0544364 106.4289992  27.3914990 107.6319997
 106.7529992  26.7604990 106.9889997 105.9889992  26.8574990 108.2929997
 106.4138707  27.2328261 107.6333195 103.2069992  23.3194990 102.4159997
 102.2959992  23.3764990 102.7049997 103.7119992  23.2594990 103.2269997
 103.1506873  23.3191838 102.5651190  98.0349992  24.9484990 101.2429997
  97.1459992  25.0474990 100.9029997  98.3309992  24.1064990 100.8969997
  97.9534001  24.8482473 101.1497318 101.6879992  24.9484990  98.8989997
 102.6199992  25.0774990  99.0769997 101.4729992  25.6174990  98.2499997
 101.7864245  25.0566452  98.8355602 107.6119992  22.5544990 105.6799997
 106.9349992  22.6854990 106.3439997 107.1259992  22.3994990 104.8699997
 107.4537265  22.5514665 105.6613380 100.3619992  26.1424990  96.4659997
  99.8199992  25.7634990  95.7749997 101.1959992  26.3374990  96.0369997
 100.4004283  26.1169383  96.3134298 104.5269992  26.1064990 104.3029997
 105.0909992  25.5604990 103.7559997 104.3789992  25.5854990 105.0919997
 104.5843037  25.9611798 104.3347212  99.5289992  22.2434990 100.7209997
  99.2109992  21.3404990 100.6859997 100.3099992  22.2454990 100.1689997
  99.5911560  22.1201148 100.6414975 103.1529992  24.4954990 106.7169997
 102.3179992  24.9494990 106.8269997 103.6769992  24.7714990 107.4689997
 103.1095070  24.5949677 106.8337134 103.6969992  30.7084990  98.4019997
 102.9519992  30.2004990  98.0789997 103.5629992  30.7574990  99.3479997
 103.5768633  30.6455714  98.4857563 119.7789992  16.9724990  94.5959997
 120.5469992  16.5134990  94.9369997 119.7579992  16.7464990  93.6659997
 119.8812135  16.8791680  94.5169473 110.8469992  29.8414990 107.1879997
 111.4889992  30.2974990 106.6449997 110.0169992  29.9544990 106.7259997
 110.8227352  29.9193223 107.0510234 107.5949992  23.5224990  96.6009997
 106.6559992  23.6334990  96.4499997 107.8919992  24.3784990  96.9069997
 107.5066371  23.6535327  96.6217362 105.2169992  30.8924990 109.6389997
 104.8709992  30.5104990 110.4449997 105.0169992  31.8254990 109.7099997
 105.1425400  30.9663489 109.7590401 108.3129992  25.3894990  98.2619997
 109.2049992  25.2514990  98.5809997 108.3699992  26.1804990  97.7249997
 108.4427380  25.4774777  98.2330981  98.8219992  30.0034990 104.1709997
  99.5669992  30.0004990 103.5699997  98.8999992  29.1794990 104.6529997
  98.9344158  29.8917928 104.1539136 105.8229992  32.1664990  97.4269997
 105.5279992  32.9934990  97.8089997 105.1199992  31.5474990  97.6229997
 105.6875855  32.1959458  97.5057634  95.8299992  28.4634990 109.4859997
  96.0529992  28.0454990 110.3179997  95.2279992  27.8514990 109.0639997
  95.7790802  28.3235216 109.5427561 107.4669992  33.3544990 109.5889997
 106.5659992  33.5374990 109.3209997 107.5009992  33.6134990 110.5099997
 107.3483021  33.4145505 109.6768206 113.1979992  25.5984990  97.9559997
 112.6439992  25.2024990  97.2839997 113.2989992  26.5094990  97.6789997
 113.1357084  25.6673565  97.8264381 111.4929992  34.3844990  98.4209997
 111.1209992  33.5594990  98.7309997 111.7709992  34.2014990  97.5239997
 111.4795997  34.2466160  98.3421551 126.3559992  15.3524990  93.3249997
 126.0049992  14.4954990  93.5679997 127.0819992  15.4944990  93.9319997
 126.4061590  15.2545189  93.4402889 108.6539992  29.1924990 105.4429997
 107.7259992  28.9614990 105.4159997 109.1049992  28.4154990 105.1129997
 108.5878165  29.0557785 105.3946772 101.1969992  33.5214990 101.5759997
 101.7239992  34.2944990 101.3749997 100.3169992  33.7454990 101.2739997
 101.1501793  33.6576652 101.5076304  96.9519992  28.3834990  96.1629997
  97.5679992  29.0104990  96.5419997  96.0899992  28.6994990  96.4339997
  96.9198195  28.5120810  96.2515369 102.6239992  31.1844990 101.1519997
 102.3829992  32.1094990 101.1939997 101.8839992  30.7254990 101.5479997
 102.4908934  31.2490881 101.2113191 103.1389992  35.3334990 107.4669997
 103.5019992  36.1874990 107.2339997 103.6709992  35.0414990 108.2079997
 103.2605141  35.4108907 107.5352079 101.3069992  36.2054990 100.6969997
 100.3579992  36.3114990 100.7489997 101.6589992  37.0264990 101.0419997
 101.2246214  36.3309361 100.7507317 106.6829992  31.4324990 107.1679997
 106.2569992  31.2044990 107.9939997 107.2639992  30.6934990 106.9849997
 106.7031587  31.3014084 107.2564111 108.8859992  32.3614990  96.2419997
 109.2389992  31.9814990  97.0459997 107.9369992  32.2674990  96.3279997
 108.8060985  32.2967330  96.3637738 109.3419992  35.9844990 109.6369997
 108.7399992  35.4284990 109.1419997 109.6229992  36.6514990 109.0109997
 109.2975757  35.9985755 109.4845657 113.3889992  36.8404990  96.4429997
 114.1329992  37.4264990  96.3029997 112.6949992  37.4094990  96.7759997
 113.3969809  36.9975830  96.4688572 115.0889992  11.8634990  93.9299997
 115.2329992  10.9614990  93.6439997 114.3159992  12.1494990  93.4419997
 115.0042854  11.7786876  93.8249363  97.4639992  23.2174990 109.0439997
  96.5709992  23.5554990 108.9769997  97.3649992  22.3614990 109.4619997
  97.3285241  23.1480941 109.0912982 109.7519992  31.0334990  98.4679997
 109.4749992  30.3054990  99.0239997 110.6789992  31.1524990  98.6739997
 109.8394181  30.9500068  98.5718972  97.1149992  35.0214990 107.4789997
  97.3319992  34.0894990 107.4479997  97.3619992  35.2964990 108.3629997
  97.1780543  34.9310877 107.5941412 102.9769992  33.4734990  94.6889997
 103.2159992  32.7244990  94.1409997 102.7079992  33.0854990  95.5209997
 102.9732804  33.3186524  94.7266352 101.9139992  33.0434990  97.1449997
 102.0609992  32.5234990  97.9349997 101.9109992  33.9504990  97.4509997
 101.9337300  33.0948975  97.2945877  98.3669992  30.2954990  97.6549997
  97.6809992  30.6484990  98.2219997  98.8899992  31.0584990  97.4089997
  98.3439033  30.4468757  97.6992644 106.1979992  22.9584990 107.9339997
 106.8969992  23.0324990 108.5839997 105.8179992  22.0934990 108.0889997
 106.2422095  22.8517402 108.0437982 106.9829992  22.6104990  99.0309997
 107.2029992  23.0814990  98.2279997 107.5409992  23.0044990  99.7019997
 107.0885851  22.7283272  99.0116134 104.6519992  34.7404990  97.8939997
 103.8349992  35.2374990  97.9469997 105.1809992  35.2164990  97.2539997
 104.6117898  34.8728123  97.8147274 104.1829992  24.3384990  99.8659997
 104.9949992  24.8424990  99.9119997 103.9379992  24.1934990 100.7799997
 104.2611091  24.3879366  99.9958552 121.7439992  11.8324990  93.3629997
 121.4159992  12.1034990  92.5049997 121.8959992  10.8914990  93.2749997
 121.7196970  11.7423694  93.2337953 104.7189992  25.3244990 109.0509997
 104.8379992  25.8984990 109.8079997 105.3739992  24.6364990 109.1659997
 104.8238684  25.3100205 109.1701656 105.0669992  21.4194990 100.8039997
 104.7199992  22.0364990 101.4489997 105.7249992  21.9204990 100.3229997
 105.1085290  21.5716384 100.8271635 101.9899992  35.7844990  97.8759997
 102.1509992  36.5844990  97.3749997 101.7929992  36.0914990  98.7609997
 101.9853919  35.9354140  97.9270988 100.7239992  22.4824990  97.4919997
 100.6409992  23.3704990  97.8379997 101.6139992  22.2174990  97.7229997
 100.8329751  22.5682482  97.5706066 110.9229992  23.2314990 109.8859997
 110.0069992  23.4934990 109.7979997 111.2589992  23.2284990 108.9889997
 110.8429789  23.2669637 109.7527829 109.5249992  26.9814990 103.9819997
 108.7279992  26.5664990 103.6529997 109.9699992  26.2914990 104.4729997
 109.4760317  26.8313197 104.0033556  98.9829992  32.9094990  96.5519997
  99.5749992  33.6094990  96.8279997  99.4419992  32.4764990  95.8329997
  99.1261172  32.9467371  96.4925163  97.2989992  25.5744990  95.6679997
  97.2539992  26.5134990  95.8469997  96.4109992  25.3384990  95.3979997
  97.1728472  25.6711946  95.6560282 110.6119992  36.2374990 105.6039997
 110.4559992  36.9164990 104.9469997 111.5439992  36.3094990 105.8069997
 110.7167328  36.3401586 105.5415529  98.1069992  20.3554990 104.3409997
  97.8779992  20.4144990 103.4139997  97.6639992  19.5644990 104.6479997
  98.0157387  20.2566412 104.2555223 127.4789992  11.7484990  90.7459997
 128.2239992  12.3374990  90.6259997 126.7209992  12.3304990  90.8089997
 127.4785185  11.9077000  90.7380940  97.0369992  34.2964990 100.5019997
  96.2049992  34.7684990 100.5289997  97.5829992  34.8064990  99.9029997
  96.9968710  34.4300317 100.4247570 105.0149992  35.3364990  94.8269997
 104.3709992  34.7054990  95.1489997 105.7769992  34.8054990  94.5949997
 105.0298260  35.1783035  94.8397298 109.6189992  35.1534990  95.0609997
 109.9019992  34.3584990  95.5139997 110.3589992  35.3864990  94.4999997
 109.7577295  35.0762349  95.0471469 100.5739992  31.0624990  94.9179997
 100.6379992  30.2684990  95.4489997 101.2269992  30.9444990  94.2289997
 100.6711168  30.9377748  94.8975119 105.9259992  32.1094990  94.6539997
 105.6579992  32.2904990  95.5549997 105.7199992  31.1844990  94.5229997
 105.8614251  32.0091528  94.7596809 108.6229992  30.6044990 109.6019997
 109.3679992  31.1934990 109.4819997 107.8649992  31.1864990 109.6649997
 108.6225185  30.7637000 109.5940940 101.7229992  29.0354990  97.2239997
 101.2639992  28.5514990  97.9099997 101.9779992  28.3664990  96.5879997
 101.6946178  28.8788511  97.2319785 101.0119992  26.9284990 109.5799997
 100.3939992  27.6024990 109.8609997 101.3559992  27.2494990 108.7469997
 100.9738181  27.0643233 109.5058266 102.7939992  27.2784990  95.4869997
 102.6139992  27.1234990  94.5589997 103.7439992  27.3864990  95.5309997
 102.8978016  27.2719264  95.3662123 112.1839992  29.6324990  94.9319997
 111.9109992  29.2084990  94.1189997 112.2239992  30.5644990  94.7149997
 112.1520201  29.7003523  94.7913548 115.9209992   9.0634990  93.3499997
 116.3289992   8.2064990  93.2289997 115.6609992   9.0774990  94.2709997
 115.9417082   8.9480596  93.4579469 101.7639992  22.6524990 108.1549997
 102.2999992  23.1044990 107.5029997 100.9119992  22.5444990 107.7329997
 101.7221648  22.6997883 108.0086395 103.3459992  28.0924990 108.3949997
 104.0969992  27.9364990 107.8219997 103.0069992  28.9444990 108.1189997
 103.4029052  28.1862745 108.2793469 102.5699992  20.1094990 108.5869997
 102.4719992  21.0554990 108.4809997 101.8269992  19.7364990 108.1109997
 102.4562363  20.1885987 108.5082029 102.6919992  37.9684990  96.4879997
 103.6249992  38.1264990  96.6319997 102.4269992  38.6444990  95.8629997
 102.7839846  38.0814567  96.4232930  96.2599992  32.6054990  95.9709997
  97.1739992  32.6844990  96.2439997  96.2669992  31.9184990  95.3039997
  96.3860769  32.5234735  95.9182366  94.9089992  37.9984990 101.0479997
  94.2619992  37.5364990 100.5149997  95.2639992  37.3264990 101.6309997
  94.8683861  37.8444707 101.0537939  95.7789992  36.0784990 102.8529997
  95.4449992  35.1984990 103.0249997  96.0009992  36.4244990 103.7169997
  95.7632677  36.0047365 102.9934252 113.3279992  36.8884990 105.8329997
 113.3059992  37.0734990 106.7719997 114.0179992  37.4564990 105.4919997
 113.4183439  36.9906898 105.9154774 112.8909992  36.4554990 108.7549997
 112.4039992  35.7194990 108.3839997 113.4399992  36.0614990 109.4329997
 112.8986101  36.3016267 108.7959034 112.6429992  30.5014990  98.9069997
 113.4929992  30.9224990  99.0349997 112.6479992  29.7614990  99.5149997
 112.7599745  30.4591347  99.0066479 119.8679992   8.0724990  90.7239997
 119.2499992   8.7464990  91.0049997 120.2119992   8.3934990  89.8909997
 119.8298181   8.2083233  90.6498266 113.0369992  28.5554990 100.7309997
 112.3109992  28.0754990 101.1289997 113.6179992  28.7604990 101.4629997
 113.0162504  28.5175592 100.8844199 112.7959992  31.3404990 105.6789997
 113.6299992  30.9624990 105.3979997 112.9079992  32.2834990 105.5599997
 112.9251917  31.4162954 105.6244844 111.2819992  34.2184990 107.9859997
 110.6349992  34.5434990 108.6109997 110.7649992  33.7774990 107.3109997
 111.1234068  34.2034726 107.9804918 113.3049992  28.4564990  97.1219997
 112.7839992  28.8124990  96.4029997 113.2719992  29.1314990  97.7999997
 113.2291525  28.5965273  97.1151408 111.6539992  25.6954990  95.6729997
 111.7509992  26.3624990  94.9929997 111.5139992  24.8804990  95.1909997
 111.6483428  25.6765667  95.5148311 110.8239992  27.0764990 101.2939997
 110.6739992  26.1314990 101.2739997 110.4699992  27.3574990 102.1379997
 110.7556351  26.9851656 101.4053202  95.8589992  29.1544990 105.3039997
  96.0429992  29.0724990 104.3689997  96.7079992  29.0304990 105.7279997
  95.9990259  29.1264915 105.2331771 110.9019992  23.1034990  94.7899997
 111.5119992  22.7324990  95.4269997 110.0649992  22.6824990  94.9859997
 110.8723704  22.9957942  94.9037077 110.5339992  24.6584990  99.7559997
 110.8139992  23.7514990  99.8809997 111.2929992  25.0924990  99.3669997
 110.6749471  24.5930654  99.7205052 111.1459992  25.2404990 105.1919997
 112.0789992  25.4524990 105.1579997 110.9109992  25.3414990 106.1149997
 111.2418357  25.2831303 105.3120232 124.8879992  10.5434990  94.0019997
 125.8409992  10.6274990  93.9739997 124.7279992   9.8314990  94.6209997
 124.9968161  10.4587198  94.0818689 111.1749992  25.9774990 107.9679997
 110.3319992  26.2454990 108.3339997 111.6179992  26.7994990 107.7569997
 111.1194358  26.1253294 107.9895999 111.1479992  21.9214990  99.8049997
 111.3299992  21.4724990 100.6299997 110.5479992  21.3374990  99.3409997
 111.0918187  21.7810563  99.8552721  96.6779992  22.7374990 104.3359997
  97.1229992  21.9454990 104.6379997  97.1439992  23.4534990 104.7669997
  96.8019059  22.7259485 104.4356061  94.9819992  25.7364990 105.4049997
  95.4739992  25.5154990 104.6149997  95.3439992  26.5764990 105.6859997
  95.0983428  25.8198220 105.3347918 113.0139992  21.9894990  96.3329997
 113.4269992  21.2684990  95.8569997 113.6959992  22.6584990  96.3909997
 113.1625712  21.9814304  96.2758247  95.2949992  21.9944990  99.4599997
  94.3699992  22.2024990  99.3299997  95.7489992  22.4784990  98.7699997
  95.2297401  22.0883895  99.3489433 110.0659992  36.9784990 101.4049997
 110.7179992  36.6304990 100.7969997 110.5769992  37.4664990 102.0509997
 110.2242872  36.9968248 101.4090964  95.2589992  20.7324990 107.8039997
  94.5939992  20.4864990 108.4469997  94.8159992  21.3544990 107.2269997
  95.1081168  20.7829225 107.8139830 100.4049992  34.8814990 108.2069997
  99.9799992  35.6914990 107.9239997 101.3089992  34.9674990 107.9049997
 100.4691002  35.0038728 108.1274798 111.9789992  20.1564990 109.4899997
 111.1659992  20.4814990 109.1019997 112.2119992  19.3954990 108.9569997
 111.8992566  20.0981570 109.3649196 120.2079992   5.4274990  91.8069997
 120.3579992   4.6984990  91.2039997 120.2099992   6.2044990  91.2479997
 120.2287664   5.4328971  91.6490525  97.8069992  38.1384990 108.2539997
  97.0859992  38.5784990 107.8029997  97.4409992  37.8874990 109.1029997
  97.6589785  38.1647691 108.3069849 100.2739992  37.7384990 107.2839997
  99.4089992  37.8104990 107.6879997 100.2189992  38.2854990 106.4999997
 100.1482066  37.8222678 107.2333371 104.9849992  37.6264990 106.4599997
 104.5279992  38.1554990 105.8059997 105.1469992  38.2294990 107.1849997
 104.9443919  37.7803990 106.4685740 107.3119992  36.5044990 107.4049997
 106.4079992  36.6694990 107.1389997 107.7409992  37.3574990 107.3389997
 107.2462017  36.6424184 107.3596495 109.9159992  38.0744990 107.6999997
 109.7349992  38.9904990 107.4889997 110.0929992  37.6634990 106.8529997
 109.9151377  38.1443365 107.5567178  97.2219992  36.7614990 105.1649997
  97.2029992  36.3354990 106.0219997  98.0259992  36.4424990 104.7559997
  97.3281393  36.6600297 105.2270155  99.3629992  35.4714990 103.8199997
  99.1439992  34.5544990 103.9889997 100.1869992  35.6114990 104.2859997
  99.4444637  35.3649586 103.9061414 101.8999992  35.9414990 104.6679997
 102.1129992  35.0534990 104.3809997 101.9649992  35.9064990 105.6229997
 101.9379075  35.8153318 104.7577355 105.4089992  21.6054990 103.8129997
 104.7339992  20.9754990 104.0679997 105.9729992  21.1214990 103.2099997
 105.3929558  21.4539283 103.7663451 110.5509992  19.7124990 103.9249997
 111.1549992  20.2604990 103.4239997 109.6819992  20.0314990 103.6849997
 110.5161126  19.8307070 103.8239180 120.6199992   3.7964990  89.2989997
 121.1559992   4.2484990  88.6469997 119.7679992   3.6884990  88.8769997
 120.5781648   3.8437883  89.1526395 112.2779992  20.8514990 102.2589997
 112.8899992  20.3374990 101.7319997 112.6609992  21.7284990 102.2819997
 112.4133867  20.8997613 102.1900888  97.7349992  20.2394990 101.6349997
  96.9579992  20.0044990 101.1269997  98.2659992  19.4424990 101.6439997
  97.7004443  20.0996721 101.5667200  96.5719992  20.0374990  97.4379997
  97.0109992  20.6484990  96.8469997  95.9379992  20.5754990  97.9119997
  96.5464103  20.1939233  97.4211376 102.3149992  20.1654990 101.4479997
 103.1889992  20.5544990 101.4179997 102.1789992  19.9504990 102.3709997
 102.4163125  20.1897120 101.5686523 107.8709992  20.1954990 103.0969997
 107.9479992  20.2914990 102.1479997 107.5959992  19.2884990 103.2259997
 107.8443407  20.0859188 102.9843532 109.2249992  20.2214990  98.7899997
 108.5219992  20.8364990  98.5799997 108.7799992  19.3844990  98.9209997
 109.0686550  20.1924679  98.7789819  96.4729992  35.9854990  98.3359997
  95.7879992  35.9474990  97.6679997  96.4759992  36.8974990  98.6239997
  96.3797358  36.1036744  98.2836145  98.4329992  21.9534990  95.8809997
  98.9239992  21.3234990  95.3529997  99.0559992  22.2494990  96.5439997
  98.5845459  21.9072419  95.8983667 103.4589992  22.2464990  98.3379997
 103.6369992  21.5994990  99.0209997 103.4049992  23.0804990  98.8049997
 103.4760678  22.2706615  98.4946283 105.3369992  37.1944990  96.7329997
 106.2029992  37.5614990  96.5549997 105.0899992  36.7554990  95.9199997
 105.4222041  37.1853648  96.5985958 122.2019992   9.2364990  89.5389997
 122.9529992   9.0804990  88.9659997 121.8629992  10.0884990  89.2629997
 122.2589052   9.3302745  89.4233469 112.0459992  36.7574990  99.4129997
 111.8519992  36.0094990  98.8479997 112.0069992  37.5154990  98.8289997
 112.0141907  36.7575770  99.2568077  98.2909992  36.9054990  95.3609997
  98.0229992  37.1914990  96.2339997  99.0619992  36.3594990  95.5129997
  98.3585600  36.8708341  95.5011482 125.6699992  29.3954990 101.5929997
 125.7589992  30.3394990 101.4609997 125.0309992  29.1204990 100.9349997
 125.5958319  29.4874984 101.4860276 124.6029992  28.6504990 105.0119997
 124.5639992  28.0044990 105.7169997 124.2799992  28.1834990 104.2409997
 124.5540199  28.4990089 105.0042865 116.9709992  28.2644990 106.6049997
 117.0119992  27.6394990 107.3289997 117.6739992  28.8884990 106.7869997
 117.0716054  28.2633262 106.7286311 128.3089992  31.5894990 103.3139997
 127.8679992  30.8694990 103.7639997 128.2959992  32.3104990 103.9439997
 128.2468398  31.5883187 103.4607734 117.8949992  32.7144990 105.1399997
 117.5249992  31.9124990 104.7709997 118.8359992  32.5464990 105.1869997
 117.9715630  32.5818680 105.0957873 114.5049992  26.3744990 100.5329997
 114.0569992  27.2204990 100.5149997 113.9439992  25.7954990 100.0179997
 114.3678546  26.4119004 100.4608874 115.2149992  28.5364990 102.6589997
 115.4289992  27.7664990 103.1859997 115.9529992  28.6264990 102.0559997
 115.3440073  28.4433546 102.6495786 125.4199992  36.6934990 103.5259997
 126.0399992  36.0174990 103.2529997 125.2119992  36.4754990 104.4339997
 125.4767360  36.5714792 103.6114387 126.6179992   7.0514990  94.5669997
 126.8099992   6.1204990  94.4559997 127.4749992   7.4764990  94.5569997
 126.7602320   6.9814743  94.5504433 122.9919992  31.0824990 105.4179997
 123.2959992  30.3964990 104.8239997 123.7139992  31.2014990 106.0359997
 123.1311152  31.0047201 105.4202106 131.6549992  22.6844990 106.2789997
 131.7039992  23.2944990 107.0149997 132.0809992  23.1454990 105.5559997
 131.7192851  22.8303266 106.2820532 126.1329992  25.4764990 105.7459997
 126.2749992  24.5304990 105.7659997 126.0269992  25.6834990 104.8169997
 126.1381158  25.3749722 105.6232241 119.2879992  23.5784990 103.0179997
 119.3309992  24.4384990 102.5999997 118.8299992  23.0254990 102.3849997
 119.2319613  23.6215689 102.8751276 127.0099992  23.7094990 101.4189997
 127.6559992  23.3804990 102.0439997 127.5199992  24.2264990 100.7959997
 127.1674392  23.7343710 101.4203248 115.9079992  25.9754990 103.7799997
 116.5619992  25.4254990 104.2119997 115.9319992  25.7014990 102.8639997
 116.0007022  25.8632005 103.7151698 121.0639992  27.5254990 102.9959997
 121.6799992  26.9984990 103.5049997 120.4779992  26.8854990 102.5919997
 121.0690652  27.3668919 103.0110277 132.0469992  24.1624990 108.5149997
 131.3579992  24.8204990 108.4199997 132.0619992  23.9644990 109.4519997
 131.9547756  24.2257614 108.6285795 118.0979992  22.4964990 107.0919997
 117.8789992  23.0264990 106.3259997 117.4299992  22.7224990 107.7399997
 117.9777271  22.5996508 107.0746206 125.4669992  31.9964990 100.6359997
 125.1709992  31.6734990  99.7849997 125.1429992  32.8964990 100.6779997
 125.3826501  32.0739058 100.5250893 127.9339992   9.8404990  92.6449997
 127.6529992  10.5494990  92.0669997 128.8769992   9.7674990  92.4939997
 128.0229272   9.9276704  92.5454976 120.6669992  30.1714990 107.3799997
 119.9269992  30.7704990 107.4829997 121.3809992  30.7254990 107.0639997
 120.6623288  30.3282368 107.3513787 128.7739992  23.0004990 103.3999997
 128.5589992  22.2344990 103.9319997 129.4299992  23.4724990 103.9129997
 128.8332451  22.9594472 103.5421699 117.6919992  24.3884990 105.0449997
 118.3049992  25.0214990 105.4179997 118.2039992  23.9164990 104.3879997
 117.8451680  24.4114006 105.0072830 119.0739992  32.1364990 108.1669997
 119.0689992  33.0154990 107.7889997 118.2209992  32.0524990 108.5919997
 118.9579199  32.2455901 108.1726942 115.1959992  31.8074990  98.9489997
 114.9239992  32.0364990  98.0599997 115.2409992  32.6444990  99.4089997
 115.1648709  31.9521069  98.8896089 128.8209992  33.4284990 105.6619997
 127.8789992  33.4874990 105.8229997 129.0969992  34.3344990 105.5249997
 128.7295771  33.5590270 105.6654827 129.1209992  21.7154990 107.0789997
 128.3849992  22.3254990 107.0409997 129.8049992  22.1304990 106.5529997
 129.1125885  21.8551924 107.0026931 122.1239992  19.8014990 104.5449997
 122.0069992  18.8534990 104.4909997 121.2689992  20.1344990 104.8179997
 121.9923691  19.7165842 104.5745072 127.0729992  35.2094990 102.2869997
 127.4979992  34.5024990 101.8019997 127.3899992  36.0114990 101.8699997
 127.1740266  35.2210201 102.1642461 128.2319992  33.1104990 100.7959997
 127.9749992  32.4204990 100.1839997 128.3029992  32.6674990 101.6409997
 128.2064322  32.9561568 100.8265372 118.6859992   6.6254990  93.7179997
 117.9189992   6.0924990  93.5079997 119.3649992   6.3154990  93.1189997
 118.6728292   6.5106360  93.6082693 129.9179992  31.6774990 109.2729997
 130.0579992  31.0854990 108.5339997 130.0859992  32.5504990 108.9169997
 129.9598734  31.7144041 109.1236937 124.3909992  28.6394990  99.0449997
 123.6789992  29.1744990  98.6939997 125.0819992  28.6944990  98.3849997
 124.3868696  28.7202591  98.9076372 124.4449992  27.0964990  96.0839997
 125.1459992  27.1194990  96.7349997 124.7469992  26.4684990  95.4279997
 124.5818282  27.0147350  96.0844478 131.7599992  28.0174990 107.3389997
 131.1079992  28.7114990 107.4279997 132.2249992  28.2274990 106.5289997
 131.7335357  28.1409544 107.2417056 127.7969992  28.8484990  99.9969997
 127.0649992  29.0774990 100.5699997 128.2439992  28.1354990 100.4519997
 127.7572753  28.7833984 100.1369698 127.6939992  27.0234990 109.0649997
 127.7739992  27.7864990 109.6369997 127.0929992  27.3024990 108.3739997
 127.6237115  27.1657707 109.0499631 119.4419992  29.4794990 101.8799997
 119.1119992  29.1084990 101.0609997 120.0299992  28.8084990 102.2259997
 119.4764056  29.3381257 101.8149035 120.8089992  32.9074990 104.5609997
 120.7139992  32.3284990 103.8039997 121.5379992  32.5364990 105.0569997
 120.8946161  32.7780902 104.5245192 119.8089992  28.2474990 105.5129997
 120.3739992  28.3694990 104.7499997 120.1269992  28.8854990 106.1519997
 119.9293430  28.3504448 105.4949094 126.1179992  33.7514990 106.2469997
 125.8769992  34.4134990 106.8949997 125.9199992  32.9164990 106.6719997
 126.0582662  33.7292704 106.3931008 121.4259992   1.2534990  89.7309997
 121.3279992   2.1994990  89.6249997 120.6829992   0.8804990  89.2549997
 121.3122363   1.3325987  89.6522029 126.6679992  28.0114990  97.6819997
 127.2469992  28.1614990  98.4289997 127.0819992  28.4814990  96.9589997
 126.8033122  28.0956288  97.6865024 117.6089992  28.8454990 109.4589997
 117.6789992  29.4964990 110.1569997 116.7179992  28.9484990 109.1239997
 117.4981802  28.9484769 109.5092231 124.3939992  34.7474990 101.1179997
 124.8679992  35.0434990 101.8949997 123.8309992  35.4864990 100.8839997
 124.3828460  34.8878336 101.1927626 130.3659992  19.7614990  97.4949997
 129.4659992  19.8994990  97.7899997 130.6179992  20.5924990  97.0929997
 130.2767355  19.8928200  97.4810539 118.4319992  28.5484990  99.4689997
 118.1399992  29.3164990  98.9779997 117.7579992  27.8894990  99.3059997
 118.3008843  28.5644537  99.3797695 131.5559992  34.1274990  95.8719997
 131.6289992  35.0664990  96.0419997 132.4609992  33.8224990  95.8149997
 131.6884168  34.2148531  95.8875736 114.5249992  30.9114990 108.2839997
 114.0239992  30.8834990 107.4689997 114.5309992  30.0064990 108.5939997
 114.4571690  30.7852234 108.2142770 114.2759992  33.6924990 105.1679997
 115.2219992  33.5474990 105.1489997 114.1629992  34.4764990 105.7049997
 114.3903578  33.7786708 105.2380300 123.4519992  33.9324990 109.7259997
 123.5389992  34.7584990 110.2009997 122.5879992  33.6024990 109.9749997
 123.3471944  34.0009871 109.8246558 123.8659992  37.7044990  99.5319997
 123.7909992  37.5834990  98.5859997 123.8989992  38.6534990  99.6509997
 123.8601862  37.8162492  99.4184840 122.6899992   5.5744990  93.2939997
 122.4539992   5.3554990  94.1959997 121.9069992   5.3674990  92.7849997
 122.5518444   5.5165688  93.3484518 117.5199992  36.4934990 101.3129997
 117.6719992  36.1454990 102.1919997 116.6689992  36.1364990 101.0579997
 117.4257899  36.3976749 101.3987322 126.9679992  36.8584990  96.5349997
 127.3429992  36.1144990  96.0639997 126.9719992  36.5884990  97.4529997
 127.0198969  36.7200920  96.5946475 126.6369992  36.7844990  99.2839997
 125.7019992  36.8844990  99.4629997 126.9169992  36.0744990  99.8619997
 126.5469270  36.7022300  99.3865984 116.7739992  32.2354990 109.3269997
 116.9899992  31.8734990 110.1869997 115.9189992  31.8604990 109.1169997
 116.6879349  32.1352914 109.4162134 119.3929992  20.7054990 105.3229997
 118.5309992  20.6184990 104.9149997 119.3709992  21.5614990 105.7499997
 119.2720953  20.8093558 105.3249262 124.0559992  20.4274990 108.6969997
 124.4759992  20.0124990 109.4499997 123.1229992  20.2484990 108.8139997
 123.9873736  20.3464921 108.8158950 127.3819992  24.1824990 109.5509997
 126.8679992  24.0574990 110.3479997 127.2269992  25.0954990 109.3059997
 127.2906643  24.2887068 109.6270624 128.1449992  29.0434990  95.3119997
 128.1869992  28.8214990  94.3819997 128.9939992  29.4424990  95.5019997
 128.2655253  29.0670510  95.2103804 123.7179992  22.9194990  95.9819997
 123.4639992  22.9384990  96.9049997 123.4609992  22.0484990  95.6809997
 123.6485133  22.8043121  96.0675065 119.4839992  25.6704990 106.4179997
 118.8419992  25.6304990 107.1269997 119.5209992  26.5974990 106.1799997
 119.4011659  25.7902540 106.4828463 125.4059992   4.7024990  92.3699997
 124.4579992   4.7344990  92.5019997 125.7179992   4.0764990  93.0239997
 125.3185293   4.6222934  92.4764130 119.4809992  25.8914990 101.3299997
 118.5879992  25.5514990 101.2709997 119.9319992  25.5144990 100.5739997
 119.4197185  25.7940220 101.2197698 125.0169992  26.3074990 100.1469997
 124.6079992  27.1224990  99.8549997 125.7369992  26.1674990  99.5319997
 125.0583946  26.3999963 100.0239616 126.0209992  25.7534990 102.9609997
 125.8259992  26.3594990 102.2459997 126.2029992  24.9204990 102.5259997
 126.0189272  25.7237955 102.8044075 117.2339992  25.9914990 108.2849997
 117.1959992  26.3914990 109.1529997 116.7429992  25.1744990 108.3749997
 117.1624246  25.9358842 108.4161171 120.5999992  23.3654990  95.0829997
 120.1689992  22.9204990  95.8129997 119.8819992  23.7364990  94.5709997
 120.4439363  23.3547979  95.1136194 113.8419992  23.1074990 102.1349997
 114.4729992  23.0784990 102.8549997 114.2919992  22.6824990 101.4049997
 113.9890905  23.0460839 102.1347479 115.1159992  23.8534990  97.5589997
 115.5909992  24.4444990  96.9739997 114.3989992  24.3834990  97.9059997
 115.0840406  24.0061011  97.5258495 125.2849992  27.3914990 107.6319997
 125.6089992  26.7604990 106.9889997 124.8449992  26.8574990 108.2929997
 125.2698707  27.2328261 107.6333195 122.0629992  23.3194990 102.4159997
 121.1519992  23.3764990 102.7049997 122.5679992  23.2594990 103.2269997
 122.0066873  23.3191838 102.5651190 116.8909992  24.9484990 101.2429997
 116.0019992  25.0474990 100.9029997 117.1869992  24.1064990 100.8969997
 116.8094001  24.8482473 101.1497318 127.0399992   3.3364990  94.3749997
 126.9429992   2.3844990  94.3689997 126.7179992   3.6044990  95.2359997
 126.9832229   3.2424706  94.4905108 120.5439992  24.9484990  98.8989997
 121.4759992  25.0774990  99.0769997 120.3289992  25.6174990  98.2499997
 120.6424245  25.0566452  98.8355602 126.4679992  22.5544990 105.6799997
 125.7909992  22.6854990 106.3439997 125.9819992  22.3994990 104.8699997
 126.3097265  22.5514665 105.6613380 119.2179992  26.1424990  96.4659997
 118.6759992  25.7634990  95.7749997 120.0519992  26.3374990  96.0369997
 119.2564283  26.1169383  96.3134298 123.3829992  26.1064990 104.3029997
 123.9469992  25.5604990 103.7559997 123.2349992  25.5854990 105.0919997
 123.4403037  25.9611798 104.3347212 118.3849992  22.2434990 100.7209997
 118.0669992  21.3404990 100.6859997 119.1659992  22.2454990 100.1689997
 118.4471560  22.1201148 100.6414975 122.0089992  24.4954990 106.7169997
 121.1739992  24.9494990 106.8269997 122.5329992  24.7714990 107.4689997
 121.9655070  24.5949677 106.8337134 122.5529992  30.7084990  98.4019997
 121.8079992  30.2004990  98.0789997 122.4189992  30.7574990  99.3479997
 122.4328633  30.6455714  98.4857563 129.7029992  29.8414990 107.1879997
 130.3449992  30.2974990 106.6449997 128.8729992  29.9544990 106.7259997
 129.6787352  29.9193223 107.0510234 126.4509992  23.5224990  96.6009997
 125.5119992  23.6334990  96.4499997 126.7479992  24.3784990  96.9069997
 126.3626371  23.6535327  96.6217362 124.0729992  30.8924990 109.6389997
 123.7269992  30.5104990 110.4449997 123.8729992  31.8254990 109.7099997
 123.9985400  30.9663489 109.7590401 116.8669992   4.5454990  93.4229997
 117.0779992   3.8394990  92.8119997 116.7549992   4.1084990  94.2669997
 116.8807674   4.3896376  93.4534199 127.1689992  25.3894990  98.2619997
 128.0609992  25.2514990  98.5809997 127.2259992  26.1804990  97.7249997
 127.2987380  25.4774777  98.2330981 117.6779992  30.0034990 104.1709997
 118.4229992  30.0004990 103.5699997 117.7559992  29.1794990 104.6529997
 117.7904158  29.8917928 104.1539136 124.6789992  32.1664990  97.4269997
 124.3839992  32.9934990  97.8089997 123.9759992  31.5474990  97.6229997
 124.5435855  32.1959458  97.5057634 114.6859992  28.4634990 109.4859997
 114.9089992  28.0454990 110.3179997 114.0839992  27.8514990 109.0639997
 114.6350802  28.3235216 109.5427561 126.3229992  33.3544990 109.5889997
 125.4219992  33.5374990 109.3209997 126.3569992  33.6134990 110.5099997
 126.2043021  33.4145505 109.6768206 132.0539992  25.5984990  97.9559997
 131.4999992  25.2024990  97.2839997 132.1549992  26.5094990  97.6789997
 131.9917084  25.6673565  97.8264381 130.3489992  34.3844990  98.4209997
 129.9769992  33.5594990  98.7309997 130.6269992  34.2014990  97.5239997
 130.3355997  34.2466160  98.3421551 127.5099992  29.1924990 105.4429997
 126.5819992  28.9614990 105.4159997 127.9609992  28.4154990 105.1129997
 127.4438165  29.0557785 105.3946772 120.0529992  33.5214990 101.5759997
 120.5799992  34.2944990 101.3749997 119.1729992  33.7454990 101.2739997
 120.0061793  33.6576652 101.5076304 115.8079992  28.3834990  96.1629997
 116.4239992  29.0104990  96.5419997 114.9459992  28.6994990  96.4339997
 115.7758195  28.5120810  96.2515369 121.6479992   0.5474990  92.4019997
 122.3589992  -0.0925010  92.3879997 121.5469992   0.8134990  91.4879997
 121.7316732   0.4958451  92.2765475 121.4799992  31.1844990 101.1519997
 121.2389992  32.1094990 101.1939997 120.7399992  30.7254990 101.5479997
 121.3468934  31.2490881 101.2113191 121.9949992  35.3334990 107.4669997
 122.3579992  36.1874990 107.2339997 122.5269992  35.0414990 108.2079997
 122.1165141  35.4108907 107.5352079 120.1629992  36.2054990 100.6969997
 119.2139992  36.3114990 100.7489997 120.5149992  37.0264990 101.0419997
 120.0806214  36.3309361 100.7507317 125.5389992  31.4324990 107.1679997
 125.1129992  31.2044990 107.9939997 126.1199992  30.6934990 106.9849997
 125.5591587  31.3014084 107.2564111 127.7419992  32.3614990  96.2419997
 128.0949992  31.9814990  97.0459997 126.7929992  32.2674990  96.3279997
 127.6620985  32.2967330  96.3637738 128.1979992  35.9844990 109.6369997
 127.5959992  35.4284990 109.1419997 128.4789992  36.6514990 109.0109997
 128.1535757  35.9985755 109.4845657 132.2449992  36.8404990  96.4429997
 132.9889992  37.4264990  96.3029997 131.5509992  37.4094990  96.7759997
 132.2529809  36.9975830  96.4688572 116.3199992  23.2174990 109.0439997
 115.4269992  23.5554990 108.9769997 116.2209992  22.3614990 109.4619997
 116.1845241  23.1480941 109.0912982 128.6079992  31.0334990  98.4679997
 128.3309992  30.3054990  99.0239997 129.5349992  31.1524990  98.6739997
 128.6954181  30.9500068  98.5718972 115.9709992  35.0214990 107.4789997
 116.1879992  34.0894990 107.4479997 116.2179992  35.2964990 108.3629997
 116.0340543  34.9310877 107.5941412 122.0009992   2.2294990  94.4559997
 121.8699992   1.7544990  93.6349997 121.4019992   2.9744990  94.3999997
 121.9021524   2.2651968  94.3361553 121.8329992  33.4734990  94.6889997
 122.0719992  32.7244990  94.1409997 121.5639992  33.0854990  95.5209997
 121.8292804  33.3186524  94.7266352 120.7699992  33.0434990  97.1449997
 120.9169992  32.5234990  97.9349997 120.7669992  33.9504990  97.4509997
 120.7897300  33.0948975  97.2945877 117.2229992  30.2954990  97.6549997
 116.5369992  30.6484990  98.2219997 117.7459992  31.0584990  97.4089997
 117.1999033  30.4468757  97.6992644 125.0539992  22.9584990 107.9339997
 125.7529992  23.0324990 108.5839997 124.6739992  22.0934990 108.0889997
 125.0982095  22.8517402 108.0437982 125.8389992  22.6104990  99.0309997
 126.0589992  23.0814990  98.2279997 126.3969992  23.0044990  99.7019997
 125.9445851  22.7283272  99.0116134 123.5079992  34.7404990  97.8939997
 122.6909992  35.2374990  97.9469997 124.0369992  35.2164990  97.2539997
 123.4677898  34.8728123  97.8147274 123.0389992  24.3384990  99.8659997
 123.8509992  24.8424990  99.9119997 122.7939992  24.1934990 100.7799997
 123.1171091  24.3879366  99.9958552 123.5749992  25.3244990 109.0509997
 123.6939992  25.8984990 109.8079997 124.2299992  24.6364990 109.1659997
 123.6798684  25.3100205 109.1701656 123.9229992  21.4194990 100.8039997
 123.5759992  22.0364990 101.4489997 124.5809992  21.9204990 100.3229997
 123.9645290  21.5716384 100.8271635 120.8459992  35.7844990  97.8759997
 121.0069992  36.5844990  97.3749997 120.6489992  36.0914990  98.7609997
 120.8413919  35.9354140  97.9270988 113.7649992  19.1424990  82.1919997
 113.1179992  18.6804990  81.6589997 114.1199992  18.4704990  82.7749997
 113.7243861  18.9884707  82.1977939 119.5799992  22.4824990  97.4919997
 119.4969992  23.3704990  97.8379997 120.4699992  22.2174990  97.7229997
 119.6889751  22.5682482  97.5706066 129.7789992  23.2314990 109.8859997
 128.8629992  23.4934990 109.7979997 130.1149992  23.2284990 108.9889997
 129.6989789  23.2669637 109.7527829 128.3809992  26.9814990 103.9819997
 127.5839992  26.5664990 103.6529997 128.8259992  26.2914990 104.4729997
 128.3320317  26.8313197 104.0033556 117.8389992  32.9094990  96.5519997
 118.4309992  33.6094990  96.8279997 118.2979992  32.4764990  95.8329997
 117.9821172  32.9467371  96.4925163 116.1549992  25.5744990  95.6679997
 116.1099992  26.5134990  95.8469997 115.2669992  25.3384990  95.3979997
 116.0288472  25.6711946  95.6560282 129.4679992  36.2374990 105.6039997
 129.3119992  36.9164990 104.9469997 130.3999992  36.3094990 105.8069997
 129.5727328  36.3401586 105.5415529 116.9629992  20.3554990 104.3409997
 116.7339992  20.4144990 103.4139997 116.5199992  19.5644990 104.6479997
 116.8717387  20.2566412 104.2555223 115.8929992  34.2964990 100.5019997
 115.0609992  34.7684990 100.5289997 116.4389992  34.8064990  99.9029997
 115.8528710  34.4300317 100.4247570 123.8709992  35.3364990  94.8269997
 123.2269992  34.7054990  95.1489997 124.6329992  34.8054990  94.5949997
 123.8858260  35.1783035  94.8397298 128.4749992  35.1534990  95.0609997
 128.7579992  34.3584990  95.5139997 129.2149992  35.3864990  94.4999997
 128.6137295  35.0762349  95.0471469 114.6349992  17.2224990  83.9969997
 114.3009992  16.3424990  84.1689997 114.8569992  17.5684990  84.8609997
 114.6192677  17.1487365  84.1374252 119.4299992  31.0624990  94.9179997
 119.4939992  30.2684990  95.4489997 120.0829992  30.9444990  94.2289997
 119.5271168  30.9377748  94.8975119 124.7819992  32.1094990  94.6539997
 124.5139992  32.2904990  95.5549997 124.5759992  31.1844990  94.5229997
 124.7174251  32.0091528  94.7596809 127.4789992  30.6044990 109.6019997
 128.2239992  31.1934990 109.4819997 126.7209992  31.1864990 109.6649997
 127.4785185  30.7637000 109.5940940 120.5789992  29.0354990  97.2239997
 120.1199992  28.5514990  97.9099997 120.8339992  28.3664990  96.5879997
 120.5506178  28.8788511  97.2319785 119.8679992  26.9284990 109.5799997
 119.2499992  27.6024990 109.8609997 120.2119992  27.2494990 108.7469997
 119.8298181  27.0643233 109.5058266 121.6499992  27.2784990  95.4869997
 121.4699992  27.1234990  94.5589997 122.5999992  27.3864990  95.5309997
 121.7538016  27.2719264  95.3662123 131.0399992  29.6324990  94.9319997
 130.7669992  29.2084990  94.1189997 131.0799992  30.5644990  94.7149997
 131.0080201  29.7003523  94.7913548 120.6199992  22.6524990 108.1549997
 121.1559992  23.1044990 107.5029997 119.7679992  22.5444990 107.7329997
 120.5781648  22.6997883 108.0086395 122.2019992  28.0924990 108.3949997
 122.9529992  27.9364990 107.8219997 121.8629992  28.9444990 108.1189997
 122.2589052  28.1862745 108.2793469 121.4259992  20.1094990 108.5869997
 121.3279992  21.0554990 108.4809997 120.6829992  19.7364990 108.1109997
 121.3122363  20.1885987 108.5082029 132.1839992  18.0324990  86.9769997
 132.1619992  18.2174990  87.9159997 132.8739992  18.6004990  86.6359997
 132.2743439  18.1346898  87.0594774 121.5479992  37.9684990  96.4879997
 122.4809992  38.1264990  96.6319997 121.2829992  38.6444990  95.8629997
 121.6399846  38.0814567  96.4232930 115.1159992  32.6054990  95.9709997
 116.0299992  32.6844990  96.2439997 115.1229992  31.9184990  95.3039997
 115.2420769  32.5234735  95.9182366 113.7649992  37.9984990 101.0479997
 113.1179992  37.5364990 100.5149997 114.1199992  37.3264990 101.6309997
 113.7243861  37.8444707 101.0537939 114.6349992  36.0784990 102.8529997
 114.3009992  35.1984990 103.0249997 114.8569992  36.4244990 103.7169997
 114.6192677  36.0047365 102.9934252 132.1839992  36.8884990 105.8329997
 132.1619992  37.0734990 106.7719997 132.8739992  37.4564990 105.4919997
 132.2743439  36.9906898 105.9154774 131.7469992  36.4554990 108.7549997
 131.2599992  35.7194990 108.3839997 132.2959992  36.0614990 109.4329997
 131.7546101  36.3016267 108.7959034 131.4989992  30.5014990  98.9069997
 132.3489992  30.9224990  99.0349997 131.5039992  29.7614990  99.5149997
 131.6159745  30.4591347  99.0066479 131.8929992  28.5554990 100.7309997
 131.1669992  28.0754990 101.1289997 132.4739992  28.7604990 101.4629997
 131.8722504  28.5175592 100.8844199 131.6519992  31.3404990 105.6789997
 132.4859992  30.9624990 105.3979997 131.7639992  32.2834990 105.5599997
 131.7811917  31.4162954 105.6244844 130.1379992  34.2184990 107.9859997
 129.4909992  34.5434990 108.6109997 129.6209992  33.7774990 107.3109997
 129.9794068  34.2034726 107.9804918 131.7469992  17.5994990  89.8989997
 131.2599992  16.8634990  89.5279997 132.2959992  17.2054990  90.5769997
 131.7546101  17.4456267  89.9399034 132.1609992  28.4564990  97.1219997
 131.6399992  28.8124990  96.4029997 132.1279992  29.1314990  97.7999997
 132.0851525  28.5965273  97.1151408 130.5099992  25.6954990  95.6729997
 130.6069992  26.3624990  94.9929997 130.3699992  24.8804990  95.1909997
 130.5043428  25.6765667  95.5148311 129.6799992  27.0764990 101.2939997
 129.5299992  26.1314990 101.2739997 129.3259992  27.3574990 102.1379997
 129.6116351  26.9851656 101.4053202 114.7149992  29.1544990 105.3039997
 114.8989992  29.0724990 104.3689997 115.5639992  29.0304990 105.7279997
 114.8550259  29.1264915 105.2331771 129.7579992  23.1034990  94.7899997
 130.3679992  22.7324990  95.4269997 128.9209992  22.6824990  94.9859997
 129.7283704  22.9957942  94.9037077 129.3899992  24.6584990  99.7559997
 129.6699992  23.7514990  99.8809997 130.1489992  25.0924990  99.3669997
 129.5309471  24.5930654  99.7205051 130.0019992  25.2404990 105.1919997
 130.9349992  25.4524990 105.1579997 129.7669992  25.3414990 106.1149997
 130.0978357  25.2831303 105.3120232 130.0309992  25.9774990 107.9679997
 129.1879992  26.2454990 108.3339997 130.4739992  26.7994990 107.7569997
 129.9754358  26.1253294 107.9895999 130.0039992  21.9214990  99.8049997
 130.1859992  21.4724990 100.6299997 129.4039992  21.3374990  99.3409997
 129.9478187  21.7810563  99.8552721 115.5339992  22.7374990 104.3359997
 115.9789992  21.9454990 104.6379997 115.9999992  23.4534990 104.7669997
 115.6579059  22.7259485 104.4356061 130.1979992  13.3894990  94.5369997
 129.3319992  13.2844990  94.9309997 130.5739992  14.1474990  94.9839997
 130.1303768  13.4776151  94.6513258 113.8379992  25.7364990 105.4049997
 114.3299992  25.5154990 104.6149997 114.1999992  26.5764990 105.6859997
 113.9543429  25.8198220 105.3347918 131.8699992  21.9894990  96.3329997
 132.2829992  21.2684990  95.8569997 132.5519992  22.6584990  96.3909997
 132.0185712  21.9814304  96.2758247 114.1509992  21.9944990  99.4599997
 113.2259992  22.2024990  99.3299997 114.6049992  22.4784990  98.7699997
 114.0857401  22.0883895  99.3489433 128.9219992  36.9784990 101.4049997
 129.5739992  36.6304990 100.7969997 129.4329992  37.4664990 102.0509997
 129.0802872  36.9968248 101.4090964 114.1149992  20.7324990 107.8039997
 113.4499992  20.4864990 108.4469997 113.6719992  21.3544990 107.2269997
 113.9641168  20.7829225 107.8139830 119.2609992  34.8814990 108.2069997
 118.8359992  35.6914990 107.9239997 120.1649992  34.9674990 107.9049997
 119.3251002  35.0038728 108.1274798 130.8349992  20.1564990 109.4899997
 130.0219992  20.4814990 109.1019997 131.0679992  19.3954990 108.9569997
 130.7552566  20.0981570 109.3649196 116.6629992  38.1384990 108.2539997
 115.9419992  38.5784990 107.8029997 116.2969992  37.8874990 109.1029997
 116.5149785  38.1647691 108.3069849 119.1299992  37.7384990 107.2839997
 118.2649992  37.8104990 107.6879997 119.0749992  38.2854990 106.4999997
 119.0042066  37.8222678 107.2333371 123.8409992  37.6264990 106.4599997
 123.3839992  38.1554990 105.8059997 124.0029992  38.2294990 107.1849997
 123.8003919  37.7803990 106.4685740 131.4989992  11.6454990  80.0509997
 132.3489992  12.0664990  80.1789997 131.5039992  10.9054990  80.6589997
 131.6159745  11.6031347  80.1506479 126.1679992  36.5044990 107.4049997
 125.2639992  36.6694990 107.1389997 126.5969992  37.3574990 107.3389997
 126.1022017  36.6424184 107.3596495 128.7719992  38.0744990 107.6999997
 128.5909992  38.9904990 107.4889997 128.9489992  37.6634990 106.8529997
 128.7711377  38.1443365 107.5567178 116.0779992  36.7614990 105.1649997
 116.0589992  36.3354990 106.0219997 116.8819992  36.4424990 104.7559997
 116.1841393  36.6600297 105.2270155 118.2189992  35.4714990 103.8199997
 117.9999992  34.5544990 103.9889997 119.0429992  35.6114990 104.2859997
 118.3004637  35.3649586 103.9061414 120.7559992  35.9414990 104.6679997
 120.9689992  35.0534990 104.3809997 120.8209992  35.9064990 105.6229997
 120.7939075  35.8153318 104.7577355 124.2649992  21.6054990 103.8129997
 123.5899992  20.9754990 104.0679997 124.8289992  21.1214990 103.2099997
 124.2489558  21.4539283 103.7663451 129.4069992  19.7124990 103.9249997
 130.0109992  20.2604990 103.4239997 128.5379992  20.0314990 103.6849997
 129.3721126  19.8307070 103.8239180 131.1339992  20.8514990 102.2589997
 131.7459992  20.3374990 101.7319997 131.5169992  21.7284990 102.2819997
 131.2693867  20.8997613 102.1900888 116.5909992  20.2394990 101.6349997
 115.8139992  20.0044990 101.1269997 117.1219992  19.4424990 101.6439997
 116.5564443  20.0996721 101.5667200 115.4279992  20.0374990  97.4379997
 115.8669992  20.6484990  96.8469997 114.7939992  20.5754990  97.9119997
 115.4024103  20.1939233  97.4211376 131.8929992   9.6994990  81.8749997
 131.1669992   9.2194990  82.2729997 132.4739992   9.9044990  82.6069997
 131.8722504   9.6615592  82.0284199 121.1709992  20.1654990 101.4479997
 122.0449992  20.5544990 101.4179997 121.0349992  19.9504990 102.3709997
 121.2723125  20.1897120 101.5686523 126.7269992  20.1954990 103.0969997
 126.8039992  20.2914990 102.1479997 126.4519992  19.2884990 103.2259997
 126.7003407  20.0859188 102.9843532 128.0809992  20.2214990  98.7899997
 127.3779992  20.8364990  98.5799997 127.6359992  19.3844990  98.9209997
 127.9246550  20.1924679  98.7789819 115.3289992  35.9854990  98.3359997
 114.6439992  35.9474990  97.6679997 115.3319992  36.8974990  98.6239997
 115.2357358  36.1036744  98.2836145 117.2889992  21.9534990  95.8809997
 117.7799992  21.3234990  95.3529997 117.9119992  22.2494990  96.5439997
 117.4405459  21.9072419  95.8983667 122.3149992  22.2464990  98.3379997
 122.4929992  21.5994990  99.0209997 122.2609992  23.0804990  98.8049997
 122.3320678  22.2706615  98.4946283 124.1929992  37.1944990  96.7329997
 125.0589992  37.5614990  96.5549997 123.9459992  36.7554990  95.9199997
 124.2782041  37.1853648  96.5985958 130.9019992  36.7574990  99.4129997
 130.7079992  36.0094990  98.8479997 130.8629992  37.5154990  98.8289997
 130.8701907  36.7575770  99.2568077 117.1469992  36.9054990  95.3609997
 116.8789992  37.1914990  96.2339997 117.9179992  36.3594990  95.5129997
 117.2145600  36.8708341  95.5011482 135.8269992  28.2644990 106.6049997
 135.8679992  27.6394990 107.3289997 136.5299992  28.8884990 106.7869997
 135.9276054  28.2633262 106.7286311 131.6519992  12.4844990  86.8229997
 132.4859992  12.1064990  86.5419997 131.7639992  13.4274990  86.7039997
 131.7811917  12.5602954  86.7684844 136.7509992  32.7144990 105.1399997
 136.3809992  31.9124990 104.7709997 137.6919992  32.5464990 105.1869997
 136.8275630  32.5818680 105.0957873 133.3609992  26.3744990 100.5329997
 132.9129992  27.2204990 100.5149997 132.7999992  25.7954990 100.0179997
 133.2238546  26.4119004 100.4608874 134.0709992  28.5364990 102.6589997
 134.2849992  27.7664990 103.1859997 134.8089992  28.6264990 102.0559997
 134.2000073  28.4433546 102.6495786 138.1439992  23.5784990 103.0179997
 138.1869992  24.4384990 102.5999997 137.6859992  23.0254990 102.3849997
 138.0879613  23.6215689 102.8751276 134.7639992  25.9754990 103.7799997
 135.4179992  25.4254990 104.2119997 134.7879992  25.7014990 102.8639997
 134.8567022  25.8632005 103.7151698 136.9539992  22.4964990 107.0919997
 136.7349992  23.0264990 106.3259997 136.2859992  22.7224990 107.7399997
 136.8337271  22.5996508 107.0746206 139.5229992  30.1714990 107.3799997
 138.7829992  30.7704990 107.4829997 140.2369992  30.7254990 107.0639997
 139.5183288  30.3282368 107.3513787 136.5479992  24.3884990 105.0449997
 137.1609992  25.0214990 105.4179997 137.0599992  23.9164990 104.3879997
 136.7011680  24.4114006 105.0072830 137.9299992  32.1364990 108.1669997
 137.9249992  33.0154990 107.7889997 137.0769992  32.0524990 108.5919997
 137.8139199  32.2455901 108.1726942 134.0519992  31.8074990  98.9489997
 133.7799992  32.0364990  98.0599997 134.0969992  32.6444990  99.4089997
 134.0208709  31.9521069  98.8896089 130.1379992  15.3624990  89.1299997
 129.4909992  15.6874990  89.7549997 129.6209992  14.9214990  88.4549997
 129.9794068  15.3474726  89.1244918 138.2979992  29.4794990 101.8799997
 137.9679992  29.1084990 101.0609997 138.8859992  28.8084990 102.2259997
 138.3324056  29.3381257 101.8149035 138.6649992  28.2474990 105.5129997
 139.2299992  28.3694990 104.7499997 138.9829992  28.8854990 106.1519997
 138.7853430  28.3504448 105.4949094 136.4649992  28.8454990 109.4589997
 136.5349992  29.4964990 110.1569997 135.5739992  28.9484990 109.1239997
 136.3541802  28.9484769 109.5092231 137.2879992  28.5484990  99.4689997
 136.9959992  29.3164990  98.9779997 136.6139992  27.8894990  99.3059997
 137.1568843  28.5644537  99.3797695 133.3809992  30.9114990 108.2839997
 132.8799992  30.8834990 107.4689997 133.3869992  30.0064990 108.5939997
 133.3131690  30.7852234 108.2142770 133.1319992  33.6924990 105.1679997
 134.0779992  33.5474990 105.1489997 133.0189992  34.4764990 105.7049997
 133.2463578  33.7786708 105.2380300 136.3759992  36.4934990 101.3129997
 136.5279992  36.1454990 102.1919997 135.5249992  36.1364990 101.0579997
 136.2817899  36.3976749 101.3987322 135.6299992  32.2354990 109.3269997
 135.8459992  31.8734990 110.1869997 134.7749992  31.8604990 109.1169997
 135.5439349  32.1352914 109.4162134 138.2489992  20.7054990 105.3229997
 137.3869992  20.6184990 104.9149997 138.2269992  21.5614990 105.7499997
 138.1280953  20.8093558 105.3249262 138.3399992  25.6704990 106.4179997
 137.6979992  25.6304990 107.1269997 138.3769992  26.5974990 106.1799997
 138.2571659  25.7902540 106.4828463 132.1609992   9.6004990  78.2659997
 131.6399992   9.9564990  77.5469997 132.1279992  10.2754990  78.9439997
 132.0851525   9.7405273  78.2591408 138.3369992  25.8914990 101.3299997
 137.4439992  25.5514990 101.2709997 138.7879992  25.5144990 100.5739997
 138.2757185  25.7940220 101.2197698 136.0899992  25.9914990 108.2849997
 136.0519992  26.3914990 109.1529997 135.5989992  25.1744990 108.3749997
 136.0184246  25.9358842 108.4161171 139.4559992  23.3654990  95.0829997
 139.0249992  22.9204990  95.8129997 138.7379992  23.7364990  94.5709997
 139.2999363  23.3547979  95.1136194 132.6979992  23.1074990 102.1349997
 133.3289992  23.0784990 102.8549997 133.1479992  22.6824990 101.4049997
 132.8450905  23.0460839 102.1347479 133.9719992  23.8534990  97.5589997
 134.4469992  24.4444990  96.9739997 133.2549992  24.3834990  97.9059997
 133.9400406  24.0061011  97.5258495 135.7469992  24.9484990 101.2429997
 134.8579992  25.0474990 100.9029997 136.0429992  24.1064990 100.8969997
 135.6654001  24.8482473 101.1497318 139.3999992  24.9484990  98.8989997
 140.3319992  25.0774990  99.0769997 139.1849992  25.6174990  98.2499997
 139.4984245  25.0566452  98.8355602 138.0739992  26.1424990  96.4659997
 137.5319992  25.7634990  95.7749997 138.9079992  26.3374990  96.0369997
 138.1124283  26.1169383  96.3134298 137.2409992  22.2434990 100.7209997
 136.9229992  21.3404990 100.6859997 138.0219992  22.2454990 100.1689997
 137.3031560  22.1201148 100.6414975 136.5339992  30.0034990 104.1709997
 137.2789992  30.0004990 103.5699997 136.6119992  29.1794990 104.6529997
 136.6464158  29.8917928 104.1539136 129.6799992   8.2204990  82.4379997
 129.5299992   7.2754990  82.4179997 129.3259992   8.5014990  83.2819997
 129.6116351   8.1291656  82.5493202 133.5419992  28.4634990 109.4859997
 133.7649992  28.0454990 110.3179997 132.9399992  27.8514990 109.0639997
 133.4910802  28.3235216 109.5427561 138.9089992  33.5214990 101.5759997
 139.4359992  34.2944990 101.3749997 138.0289992  33.7454990 101.2739997
 138.8621793  33.6576652 101.5076304 134.6639992  28.3834990  96.1629997
 135.2799992  29.0104990  96.5419997 133.8019992  28.6994990  96.4339997
 134.6318195  28.5120810  96.2515369 139.0189992  36.2054990 100.6969997
 138.0699992  36.3114990 100.7489997 139.3709992  37.0264990 101.0419997
 138.9366214  36.3309361 100.7507317 135.1759992  23.2174990 109.0439997
 134.2829992  23.5554990 108.9769997 135.0769992  22.3614990 109.4619997
 135.0405241  23.1480941 109.0912982 134.8269992  35.0214990 107.4789997
 135.0439992  34.0894990 107.4479997 135.0739992  35.2964990 108.3629997
 134.8900543  34.9310877 107.5941412 136.0789992  30.2954990  97.6549997
 135.3929992  30.6484990  98.2219997 136.6019992  31.0584990  97.4089997
 136.0559033  30.4468757  97.6992644 138.4359992  22.4824990  97.4919997
 138.3529992  23.3704990  97.8379997 139.3259992  22.2174990  97.7229997
 138.5449751  22.5682482  97.5706066 136.6949992  32.9094990  96.5519997
 137.2869992  33.6094990  96.8279997 137.1539992  32.4764990  95.8329997
 136.8381172  32.9467371  96.4925163 135.0109992  25.5744990  95.6679997
 134.9659992  26.5134990  95.8469997 134.1229992  25.3384990  95.3979997
 134.8848472  25.6711946  95.6560282 114.7149992  10.2984990  86.4479997
 114.8989992  10.2164990  85.5129997 115.5639992  10.1744990  86.8719997
 114.8550259  10.2704915  86.3771771 135.8189992  20.3554990 104.3409997
 135.5899992  20.4144990 103.4139997 135.3759992  19.5644990 104.6479997
 135.7277387  20.2566412 104.2555223 134.7489992  34.2964990 100.5019997
 133.9169992  34.7684990 100.5289997 135.2949992  34.8064990  99.9029997
 134.7088710  34.4300317 100.4247570 138.2859992  31.0624990  94.9179997
 138.3499992  30.2684990  95.4489997 138.9389992  30.9444990  94.2289997
 138.3831168  30.9377748  94.8975119 139.4349992  29.0354990  97.2239997
 138.9759992  28.5514990  97.9099997 139.6899992  28.3664990  96.5879997
 139.4066178  28.8788511  97.2319785 138.7239992  26.9284990 109.5799997
 138.1059992  27.6024990 109.8609997 139.0679992  27.2494990 108.7469997
 138.6858181  27.0643233 109.5058266 139.4759992  22.6524990 108.1549997
 140.0119992  23.1044990 107.5029997 138.6239992  22.5444990 107.7329997
 139.4341648  22.6997883 108.0086395 133.9719992  32.6054990  95.9709997
 134.8859992  32.6844990  96.2439997 133.9789992  31.9184990  95.3039997
 134.0980769  32.5234735  95.9182366 132.6209992  37.9984990 101.0479997
 131.9739992  37.5364990 100.5149997 132.9759992  37.3264990 101.6309997
 132.5803861  37.8444707 101.0537939 133.4909992  36.0784990 102.8529997
 133.1569992  35.1984990 103.0249997 133.7129992  36.4244990 103.7169997
 133.4752677  36.0047366 102.9934252 133.5709992  29.1544990 105.3039997
 133.7549992  29.0724990 104.3689997 134.4199992  29.0304990 105.7279997
 133.7110259  29.1264915 105.2331771 130.5359992  10.1904990  92.0769997
 131.1189992   9.4554990  92.2679997 131.0999992  10.9624990  92.1229997
 130.6920326  10.1942746  92.1093579 134.3899992  22.7374990 104.3359997
 134.8349992  21.9454990 104.6379997 134.8559992  23.4534990 104.7669997
 134.5139059  22.7259485 104.4356061 132.6939992  25.7364990 105.4049997
 133.1859992  25.5154990 104.6149997 133.0559992  26.5764990 105.6859997
 132.8103429  25.8198220 105.3347918 133.0069992  21.9944990  99.4599997
 132.0819992  22.2024990  99.3299997 133.4609992  22.4784990  98.7699997
 132.9417401  22.0883895  99.3489433 132.9709992  20.7324990 107.8039997
 132.3059992  20.4864990 108.4469997 132.5279992  21.3544990 107.2269997
 132.8201168  20.7829225 107.8139830 138.1169992  34.8814990 108.2069997
 137.6919992  35.6914990 107.9239997 139.0209992  34.9674990 107.9049997
 138.1811002  35.0038728 108.1274798 135.5189992  38.1384990 108.2539997
 134.7979992  38.5784990 107.8029997 135.1529992  37.8874990 109.1029997
 135.3709785  38.1647691 108.3069849 137.9859992  37.7384990 107.2839997
 137.1209992  37.8104990 107.6879997 137.9309992  38.2854990 106.4999997
 137.8602066  37.8222678 107.2333371 134.9339992  36.7614990 105.1649997
 134.9149992  36.3354990 106.0219997 135.7379992  36.4424990 104.7559997
 135.0401393  36.6600297 105.2270155 137.0749992  35.4714990 103.8199997
 136.8559992  34.5544990 103.9889997 137.8989992  35.6114990 104.2859997
 137.1564637  35.3649586 103.9061414 135.4469992  20.2394990 101.6349997
 134.6699992  20.0044990 101.1269997 135.9779992  19.4424990 101.6439997
 135.4124443  20.0996721 101.5667200 132.0329992   8.0934990  92.7609997
 131.1689992   7.7144990  92.5959997 132.6369992   7.3544990  92.6869997
 131.9964912   7.9417937  92.7284360 134.2839992  20.0374990  97.4379997
 134.7229992  20.6484990  96.8469997 133.6499992  20.5754990  97.9119997
 134.2584103  20.1939233  97.4211376 134.1849992  35.9854990  98.3359997
 133.4999992  35.9474990  97.6679997 134.1879992  36.8974990  98.6239997
 134.0917358  36.1036744  98.2836145 136.1449992  21.9534990  95.8809997
 136.6359992  21.3234990  95.3529997 136.7679992  22.2494990  96.5439997
 136.2965459  21.9072419  95.8983667 136.0029992  36.9054990  95.3609997
 135.7349992  37.1914990  96.2339997 136.7739992  36.3594990  95.5129997
 136.0705600  36.8708341  95.5011482  12.5339992  48.2514990 101.5929997
  12.6229992  49.1954990 101.4609997  11.8949992  47.9764990 100.9349997
  12.4598319  48.3434984 101.4860276  11.4669992  47.5064990 105.0119997
  11.4279992  46.8604990 105.7169997  11.1439992  47.0394990 104.2409997
  11.4180199  47.3550089 105.0042865   3.8349992  47.1204990 106.6049997
   3.8759992  46.4954990 107.3289997   4.5379992  47.7444990 106.7869997
   3.9356054  47.1193262 106.7286311  15.1729992  50.4454990 103.3139997
  14.7319992  49.7254990 103.7639997  15.1599992  51.1664990 103.9439997
  15.1108398  50.4443187 103.4607734   4.7589992  51.5704990 105.1399997
   4.3889992  50.7684990 104.7709997   5.6999992  51.4024990 105.1869997
   4.8355630  51.4378680 105.0957873   1.3689992  45.2304990 100.5329997
   0.9209992  46.0764990 100.5149997   0.8079992  44.6514990 100.0179997
   1.2318546  45.2679004 100.4608874 129.3899992   5.8024990  80.8999997
 129.6699992   4.8954990  81.0249997 130.1489992   6.2364990  80.5109997
 129.5309471   5.7370654  80.8645051   2.0789992  47.3924990 102.6589997
   2.2929992  46.6224990 103.1859997   2.8169992  47.4824990 102.0559997
   2.2080073  47.2993546 102.6495786  12.2839992  55.5494990 103.5259997
  12.9039992  54.8734990 103.2529997  12.0759992  55.3314990 104.4339997
  12.3407360  55.4274792 103.6114387   9.8559992  49.9384990 105.4179997
  10.1599992  49.2524990 104.8239997  10.5779992  50.0574990 106.0359997
   9.9951152  49.8607201 105.4202106  18.5189992  41.5404990 106.2789997
  18.5679992  42.1504990 107.0149997  18.9449992  42.0014990 105.5559997
  18.5832851  41.6863266 106.2820532  12.9969992  44.3324990 105.7459997
  13.1389992  43.3864990 105.7659997  12.8909992  44.5394990 104.8169997
  13.0021158  44.2309722 105.6232241   6.1519992  42.4344990 103.0179997
   6.1949992  43.2944990 102.5999997   5.6939992  41.8814990 102.3849997
   6.0959613  42.4775689 102.8751276  13.8739992  42.5654990 101.4189997
  14.5199992  42.2364990 102.0439997  14.3839992  43.0824990 100.7959997
  14.0314392  42.5903710 101.4203248   2.7719992  44.8314990 103.7799997
   3.4259992  44.2814990 104.2119997   2.7959992  44.5574990 102.8639997
   2.8647022  44.7192005 103.7151698   7.9279992  46.3814990 102.9959997
   8.5439992  45.8544990 103.5049997   7.3419992  45.7414990 102.5919997
   7.9330652  46.2228919 103.0110277  18.9109992  43.0184990 108.5149997
  18.2219992  43.6764990 108.4199997  18.9259992  42.8204990 109.4519997
  18.8187756  43.0817614 108.6285795 130.0019992   6.3844990  86.3359997
 130.9349992   6.5964990  86.3019997 129.7669992   6.4854990  87.2589997
 130.0978357   6.4271303  86.4560232   4.9619992  41.3524990 107.0919997
   4.7429992  41.8824990 106.3259997   4.2939992  41.5784990 107.7399997
   4.8417271  41.4556508 107.0746206  12.3309992  50.8524990 100.6359997
  12.0349992  50.5294990  99.7849997  12.0069992  51.7524990 100.6779997
  12.2466501  50.9299058 100.5250893   7.5309992  49.0274990 107.3799997
   6.7909992  49.6264990 107.4829997   8.2449992  49.5814990 107.0639997
   7.5263288  49.1842368 107.3513787  15.6379992  41.8564990 103.3999997
  15.4229992  41.0904990 103.9319997  16.2939992  42.3284990 103.9129997
  15.6972451  41.8154472 103.5421699   4.5559992  43.2444990 105.0449997
   5.1689992  43.8774990 105.4179997   5.0679992  42.7724990 104.3879997
   4.7091680  43.2674006 105.0072830   5.9379992  50.9924990 108.1669997
   5.9329992  51.8714990 107.7889997   5.0849992  50.9084990 108.5919997
   5.8219199  51.1015901 108.1726942   2.0599992  50.6634990  98.9489997
   1.7879992  50.8924990  98.0599997   2.1049992  51.5004990  99.4089997
   2.0288709  50.8081069  98.8896089  15.6849992  52.2844990 105.6619997
  14.7429992  52.3434990 105.8229997  15.9609992  53.1904990 105.5249997
  15.5935771  52.4150270 105.6654827  15.9849992  40.5714990 107.0789997
  15.2489992  41.1814990 107.0409997  16.6689992  40.9864990 106.5529997
  15.9765885  40.7111924 107.0026931   8.9879992  38.6574990 104.5449997
   8.8709992  37.7094990 104.4909997   8.1329992  38.9904990 104.8179997
   8.8563691  38.5725842 104.5745072 130.0309992   7.1214990  89.1119997
 129.1879992   7.3894990  89.4779997 130.4739992   7.9434990  88.9009997
 129.9754358   7.2693294  89.1335999  13.9369992  54.0654990 102.2869997
  14.3619992  53.3584990 101.8019997  14.2539992  54.8674990 101.8699997
  14.0380266  54.0770201 102.1642461  15.0959992  51.9664990 100.7959997
  14.8389992  51.2764990 100.1839997  15.1669992  51.5234990 101.6409997
  15.0704322  51.8121568 100.8265372  16.7819992  50.5334990 109.2729997
  16.9219992  49.9414990 108.5339997  16.9499992  51.4064990 108.9169997
  16.8238734  50.5704041 109.1236937  11.2549992  47.4954990  99.0449997
  10.5429992  48.0304990  98.6939997  11.9459992  47.5504990  98.3849997
  11.2508696  47.5762591  98.9076372  11.3089992  45.9524990  96.0839997
  12.0099992  45.9754990  96.7349997  11.6109992  45.3244990  95.4279997
  11.4458282  45.8707350  96.0844478  18.6239992  46.8734990 107.3389997
  17.9719992  47.5674990 107.4279997  19.0889992  47.0834990 106.5289997
  18.5975357  46.9969544 107.2417056  14.6609992  47.7044990  99.9969997
  13.9289992  47.9334990 100.5699997  15.1079992  46.9914990 100.4519997
  14.6212753  47.6393984 100.1369698  14.5579992  45.8794990 109.0649997
  14.6379992  46.6424990 109.6369997  13.9569992  46.1584990 108.3739997
  14.4877115  46.0217707 109.0499631   6.3059992  48.3354990 101.8799997
   5.9759992  47.9644990 101.0609997   6.8939992  47.6644990 102.2259997
   6.3404056  48.1941257 101.8149035   7.6729992  51.7634990 104.5609997
   7.5779992  51.1844990 103.8039997   8.4019992  51.3924990 105.0569997
   7.7586161  51.6340902 104.5245192 114.3119992   5.5684990  92.5889997
 115.2319992   5.4464990  92.8249997 113.8629992   4.8184990  92.9779997
 114.3771561   5.4503720  92.6739015   6.6729992  47.1034990 105.5129997
   7.2379992  47.2254990 104.7499997   6.9909992  47.7414990 106.1519997
   6.7933430  47.2064448 105.4949094  12.9819992  52.6074990 106.2469997
  12.7409992  53.2694990 106.8949997  12.7839992  51.7724990 106.6719997
  12.9222662  52.5852704 106.3931008  13.5319992  46.8674990  97.6819997
  14.1109992  47.0174990  98.4289997  13.9459992  47.3374990  96.9589997
  13.6673122  46.9516288  97.6865024   4.4729992  47.7014990 109.4589997
   4.5429992  48.3524990 110.1569997   3.5819992  47.8044990 109.1239997
   4.3621802  47.8044769 109.5092231  11.2579992  53.6034990 101.1179997
  11.7319992  53.8994990 101.8949997  10.6949992  54.3424990 100.8839997
  11.2468460  53.7438336 101.1927626  17.2299992  38.6174990  97.4949997
  16.3299992  38.7554990  97.7899997  17.4819992  39.4484990  97.0929997
  17.1407355  38.7488200  97.4810539   5.2959992  47.4044990  99.4689997
   5.0039992  48.1724990  98.9779997   4.6219992  46.7454990  99.3059997
   5.1648843  47.4204537  99.3797695  18.4199992  52.9834990  95.8719997
  18.4929992  53.9224990  96.0419997  19.3249992  52.6784990  95.8149997
  18.5524168  53.0708531  95.8875736   1.3889992  49.7674990 108.2839997
   0.8879992  49.7394990 107.4689997   1.3949992  48.8624990 108.5939997
   1.3211690  49.6412234 108.2142770   1.1399992  52.5484990 105.1679997
   2.0859992  52.4034990 105.1489997   1.0269992  53.3324990 105.7049997
   1.2543578  52.6346708 105.2380300 132.3139992   1.1014990  94.4659997
 132.6639992   0.4474990  93.8599997 132.4609992   1.9384990  94.0259997
 132.3817192   1.1252545  94.3236712  10.3159992  52.7884990 109.7259997
  10.4029992  53.6144990 110.2009997   9.4519992  52.4584990 109.9749997
  10.2111944  52.8569871 109.8246558  10.7299992  56.5604990  99.5319997
  10.6549992  56.4394990  98.5859997  10.7629992  57.5094990  99.6509997
  10.7241862  56.6722492  99.4184840   4.3839992  55.3494990 101.3129997
   4.5359992  55.0014990 102.1919997   3.5329992  54.9924990 101.0579997
   4.2897899  55.2536749 101.3987322  13.8319992  55.7144990  96.5349997
  14.2069992  54.9704990  96.0639997  13.8359992  55.4444990  97.4529997
  13.8838969  55.5760920  96.5946475  13.5009992  55.6404990  99.2839997
  12.5659992  55.7404990  99.4629997  13.7809992  54.9304990  99.8619997
  13.4109270  55.5582300  99.3865984   3.6379992  51.0914990 109.3269997
   3.8539992  50.7294990 110.1869997   2.7829992  50.7164990 109.1169997
   3.5519349  50.9912914 109.4162134   6.2569992  39.5614990 105.3229997
   5.3949992  39.4744990 104.9149997   6.2349992  40.4174990 105.7499997
   6.1360953  39.6653558 105.3249262  10.9199992  39.2834990 108.6969997
  11.3399992  38.8684990 109.4499997   9.9869992  39.1044990 108.8139997
  10.8513736  39.2024921 108.8158950  14.2459992  43.0384990 109.5509997
  13.7319992  42.9134990 110.3479997  14.0909992  43.9514990 109.3059997
  14.1546643  43.1447068 109.6270624  15.0089992  47.8994990  95.3119997
  15.0509992  47.6774990  94.3819997  15.8579992  48.2984990  95.5019997
  15.1295253  47.9230510  95.2103804 130.0039992   3.0654990  80.9489997
 130.1859992   2.6164990  81.7739997 129.4039992   2.4814990  80.4849997
 129.9478187   2.9250563  80.9992721  10.5819992  41.7754990  95.9819997
  10.3279992  41.7944990  96.9049997  10.3249992  40.9044990  95.6809997
  10.5125133  41.6603121  96.0675065   6.3479992  44.5264990 106.4179997
   5.7059992  44.4864990 107.1269997   6.3849992  45.4534990 106.1799997
   6.2651659  44.6462540 106.4828463   6.3449992  44.7474990 101.3299997
   5.4519992  44.4074990 101.2709997   6.7959992  44.3704990 100.5739997
   6.2837185  44.6500220 101.2197698  11.8809992  45.1634990 100.1469997
  11.4719992  45.9784990  99.8549997  12.6009992  45.0234990  99.5319997
  11.9223946  45.2559963 100.0239616  12.8849992  44.6094990 102.9609997
  12.6899992  45.2154990 102.2459997  13.0669992  43.7764990 102.5259997
  12.8829272  44.5797955 102.8044075   4.0979992  44.8474990 108.2849997
   4.0599992  45.2474990 109.1529997   3.6069992  44.0304990 108.3749997
   4.0264246  44.7918842 108.4161171   7.4639992  42.2214990  95.0829997
   7.0329992  41.7764990  95.8129997   6.7459992  42.5924990  94.5709997
   7.3079363  42.2107979  95.1136194   0.7059992  41.9634990 102.1349997
   1.3369992  41.9344990 102.8549997   1.1559992  41.5384990 101.4049997
   0.8530905  41.9020839 102.1347479   1.9799992  42.7094990  97.5589997
   2.4549992  43.3004990  96.9739997   1.2629992  43.2394990  97.9059997
   1.9480406  42.8621011  97.5258495  12.1489992  46.2474990 107.6319997
  12.4729992  45.6164990 106.9889997  11.7089992  45.7134990 108.2929997
  12.1338707  46.0888261 107.6333195 115.5339992   3.8814990  85.4799997
 115.9789992   3.0894990  85.7819997 115.9999992   4.5974990  85.9109997
 115.6579059   3.8699485  85.5796061   8.9269992  42.1754990 102.4159997
   8.0159992  42.2324990 102.7049997   9.4319992  42.1154990 103.2269997
   8.8706873  42.1751838 102.5651190   3.7549992  43.8044990 101.2429997
   2.8659992  43.9034990 100.9029997   4.0509992  42.9624990 100.8969997
   3.6734001  43.7042473 101.1497318   7.4079992  43.8044990  98.8989997
   8.3399992  43.9334990  99.0769997   7.1929992  44.4734990  98.2499997
   7.5064245  43.9126452  98.8355602  13.3319992  41.4104990 105.6799997
  12.6549992  41.5414990 106.3439997  12.8459992  41.2554990 104.8699997
  13.1737265  41.4074665 105.6613380   6.0819992  44.9984990  96.4659997
   5.5399992  44.6194990  95.7749997   6.9159992  45.1934990  96.0369997
   6.1204283  44.9729383  96.3134298  10.2469992  44.9624990 104.3029997
  10.8109992  44.4164990 103.7559997  10.0989992  44.4414990 105.0919997
  10.3043037  44.8171798 104.3347212   5.2489992  41.0994990 100.7209997
   4.9309992  40.1964990 100.6859997   6.0299992  41.1014990 100.1689997
   5.3111560  40.9761148 100.6414975   8.8729992  43.3514990 106.7169997
   8.0379992  43.8054990 106.8269997   9.3969992  43.6274990 107.4689997
   8.8295070  43.4509677 106.8337134   9.4169992  49.5644990  98.4019997
   8.6719992  49.0564990  98.0789997   9.2829992  49.6134990  99.3479997
   9.2968633  49.5015714  98.4857563  16.5669992  48.6974990 107.1879997
  17.2089992  49.1534990 106.6449997  15.7369992  48.8104990 106.7259997
  16.5427352  48.7753223 107.0510234 113.8379992   6.8804990  86.5489997
 114.3299992   6.6594990  85.7589997 114.1999992   7.7204990  86.8299997
 113.9543429   6.9638220  86.4787918  13.3149992  42.3784990  96.6009997
  12.3759992  42.4894990  96.4499997  13.6119992  43.2344990  96.9069997
  13.2266371  42.5095327  96.6217362  10.9369992  49.7484990 109.6389997
  10.5909992  49.3664990 110.4449997  10.7369992  50.6814990 109.7099997
  10.8625400  49.8223489 109.7590401  14.0329992  44.2454990  98.2619997
  14.9249992  44.1074990  98.5809997  14.0899992  45.0364990  97.7249997
  14.1627380  44.3334777  98.2330981   4.5419992  48.8594990 104.1709997
   5.2869992  48.8564990 103.5699997   4.6199992  48.0354990 104.6529997
   4.6544159  48.7477928 104.1539136  11.5429992  51.0224990  97.4269997
  11.2479992  51.8494990  97.8089997  10.8399992  50.4034990  97.6229997
  11.4075855  51.0519458  97.5057634   1.5499992  47.3194990 109.4859997
   1.7729992  46.9014990 110.3179997   0.9479992  46.7074990 109.0639997
   1.4990802  47.1795216 109.5427561  13.1869992  52.2104990 109.5889997
  12.2859992  52.3934990 109.3209997  13.2209992  52.4694990 110.5099997
  13.0683021  52.2705505 109.6768206  18.9179992  44.4544990  97.9559997
  18.3639992  44.0584990  97.2839997  19.0189992  45.3654990  97.6789997
  18.8557084  44.5233565  97.8264381  17.2129992  53.2404990  98.4209997
  16.8409992  52.4154990  98.7309997  17.4909992  53.0574990  97.5239997
  17.1995997  53.1026160  98.3421551  14.3739992  48.0484990 105.4429997
  13.4459992  47.8174990 105.4159997  14.8249992  47.2714990 105.1129997
  14.3078165  47.9117785 105.3946772 131.8339992   3.2104990  92.8149997
 130.9169992   3.4814990  92.7789997 131.9569992   2.6754990  92.0309997
 131.7250828   3.1752711  92.7040767   6.9169992  52.3774990 101.5759997
   7.4439992  53.1504990 101.3749997   6.0369992  52.6014990 101.2739997
   6.8701793  52.5136652 101.5076304   2.6719992  47.2394990  96.1629997
   3.2879992  47.8664990  96.5419997   1.8099992  47.5554990  96.4339997
   2.6398195  47.3680810  96.2515369   8.3439992  50.0404990 101.1519997
   8.1029992  50.9654990 101.1939997   7.6039992  49.5814990 101.5479997
   8.2108934  50.1050881 101.2113191   8.8589992  54.1894990 107.4669997
   9.2219992  55.0434990 107.2339997   9.3909992  53.8974990 108.2079997
   8.9805141  54.2668907 107.5352079   7.0269992  55.0614990 100.6969997
   6.0779992  55.1674990 100.7489997   7.3789992  55.8824990 101.0419997
   6.9446214  55.1869361 100.7507317  12.4029992  50.2884990 107.1679997
  11.9769992  50.0604990 107.9939997  12.9839992  49.5494990 106.9849997
  12.4231587  50.1574084 107.2564111  14.6059992  51.2174990  96.2419997
  14.9589992  50.8374990  97.0459997  13.6569992  51.1234990  96.3279997
  14.5260985  51.1527330  96.3637738  15.0619992  54.8404990 109.6369997
  14.4599992  54.2844990 109.1419997  15.3429992  55.5074990 109.0109997
  15.0175757  54.8545755 109.4845657  19.1089992  55.6964990  96.4429997
  19.8529992  56.2824990  96.3029997  18.4149992  56.2654990  96.7759997
  19.1169809  55.8535830  96.4688572   3.1839992  42.0734990 109.0439997
   2.2909992  42.4114990 108.9769997   3.0849992  41.2174990 109.4619997
   3.0485241  42.0040941 109.0912982 114.1509992   3.1384990  80.6039997
 113.2259992   3.3464990  80.4739997 114.6049992   3.6224990  79.9139997
 114.0857401   3.2323895  80.4929433  15.4719992  49.8894990  98.4679997
  15.1949992  49.1614990  99.0239997  16.3989992  50.0084990  98.6739997
  15.5594181  49.8060068  98.5718972   2.8349992  53.8774990 107.4789997
   3.0519992  52.9454990 107.4479997   3.0819992  54.1524990 108.3629997
   2.8980543  53.7870877 107.5941412   8.6969992  52.3294990  94.6889997
   8.9359992  51.5804990  94.1409997   8.4279992  51.9414990  95.5209997
   8.6932804  52.1746524  94.7266352   7.6339992  51.8994990  97.1449997
   7.7809992  51.3794990  97.9349997   7.6309992  52.8064990  97.4509997
   7.6537300  51.9508975  97.2945877   4.0869992  49.1514990  97.6549997
   3.4009992  49.5044990  98.2219997   4.6099992  49.9144990  97.4089997
   4.0639033  49.3028757  97.6992644  11.9179992  41.8144990 107.9339997
  12.6169992  41.8884990 108.5839997  11.5379992  40.9494990 108.0889997
  11.9622095  41.7077402 108.0437982  12.7029992  41.4664990  99.0309997
  12.9229992  41.9374990  98.2279997  13.2609992  41.8604990  99.7019997
  12.8085851  41.5843272  99.0116134  10.3719992  53.5964990  97.8939997
   9.5549992  54.0934990  97.9469997  10.9009992  54.0724990  97.2539997
  10.3317898  53.7288123  97.8147274   9.9029992  43.1944990  99.8659997
  10.7149992  43.6984990  99.9119997   9.6579992  43.0494990 100.7799997
   9.9811091  43.2439366  99.9958552  10.4389992  44.1804990 109.0509997
  10.5579992  44.7544990 109.8079997  11.0939992  43.4924990 109.1659997
  10.5438684  44.1660205 109.1701656 128.9219992  18.1224990  82.5489997
 129.5739992  17.7744990  81.9409997 129.4329992  18.6104990  83.1949997
 129.0802872  18.1408248  82.5530964  10.7869992  40.2754990 100.8039997
  10.4399992  40.8924990 101.4489997  11.4449992  40.7764990 100.3229997
  10.8285290  40.4276384 100.8271635   7.7099992  54.6404990  97.8759997
   7.8709992  55.4404990  97.3749997   7.5129992  54.9474990  98.7609997
   7.7053919  54.7914140  97.9270988   6.4439992  41.3384990  97.4919997
   6.3609992  42.2264990  97.8379997   7.3339992  41.0734990  97.7229997
   6.5529751  41.4242482  97.5706066  16.6429992  42.0874990 109.8859997
  15.7269992  42.3494990 109.7979997  16.9789992  42.0844990 108.9889997
  16.5629789  42.1229637 109.7527829  15.2449992  45.8374990 103.9819997
  14.4479992  45.4224990 103.6529997  15.6899992  45.1474990 104.4729997
  15.1960317  45.6873197 104.0033556   4.7029992  51.7654990  96.5519997
   5.2949992  52.4654990  96.8279997   5.1619992  51.3324990  95.8329997
   4.8461172  51.8027371  96.4925163   3.0189992  44.4304990  95.6679997
   2.9739992  45.3694990  95.8469997   2.1309992  44.1944990  95.3979997
   2.8928472  44.5271946  95.6560282  16.3319992  55.0934990 105.6039997
  16.1759992  55.7724990 104.9469997  17.2639992  55.1654990 105.8069997
  16.4367328  55.1961586 105.5415529   3.8269992  39.2114990 104.3409997
   3.5979992  39.2704990 103.4139997   3.3839992  38.4204990 104.6479997
   3.7357387  39.1126412 104.2555223   2.7569992  53.1524990 100.5019997
   1.9249992  53.6244990 100.5289997   3.3029992  53.6624990  99.9029997
   2.7168710  53.2860317 100.4247570 114.1149992   1.8764990  88.9479997
 113.4499992   1.6304990  89.5909997 113.6719992   2.4984990  88.3709997
 113.9641168   1.9269225  88.9579830  10.7349992  54.1924990  94.8269997
  10.0909992  53.5614990  95.1489997  11.4969992  53.6614990  94.5949997
  10.7498260  54.0343035  94.8397298  15.3389992  54.0094990  95.0609997
  15.6219992  53.2144990  95.5139997  16.0789992  54.2424990  94.4999997
  15.4777295  53.9322349  95.0471469   6.2939992  49.9184990  94.9179997
   6.3579992  49.1244990  95.4489997   6.9469992  49.8004990  94.2289997
   6.3911168  49.7937748  94.8975119  11.6459992  50.9654990  94.6539997
  11.3779992  51.1464990  95.5549997  11.4399992  50.0404990  94.5229997
  11.5814251  50.8651528  94.7596809  14.3429992  49.4604990 109.6019997
  15.0879992  50.0494990 109.4819997  13.5849992  50.0424990 109.6649997
  14.3425185  49.6197000 109.5940940   7.4429992  47.8914990  97.2239997
   6.9839992  47.4074990  97.9099997   7.6979992  47.2224990  96.5879997
   7.4146178  47.7348511  97.2319785   6.7319992  45.7844990 109.5799997
   6.1139992  46.4584990 109.8609997   7.0759992  46.1054990 108.7469997
   6.6938181  45.9203233 109.5058266   8.5139992  46.1344990  95.4869997
   8.3339992  45.9794990  94.5589997   9.4639992  46.2424990  95.5309997
   8.6178016  46.1279264  95.3662123  17.9039992  48.4884990  94.9319997
  17.6309992  48.0644990  94.1189997  17.9439992  49.4204990  94.7149997
  17.8720201  48.5563523  94.7913548   7.4839992  41.5084990 108.1549997
   8.0199992  41.9604990 107.5029997   6.6319992  41.4004990 107.7329997
   7.4421648  41.5557883 108.0086395 116.3069992  15.0514990  93.0919997
 115.4859992  15.2264990  92.6319997 116.0549992  14.9784990  94.0129997
 116.1606173  15.0655806  93.1534954   9.0659992  46.9484990 108.3949997
   9.8169992  46.7924990 107.8219997   8.7269992  47.8004990 108.1189997
   9.1229052  47.0422745 108.2793469   8.2899992  38.9654990 108.5869997
   8.1919992  39.9114990 108.4809997   7.5469992  38.5924990 108.1109997
   8.1762363  39.0445987 108.5082029   8.4119992  56.8244990  96.4879997
   9.3449992  56.9824990  96.6319997   8.1469992  57.5004990  95.8629997
   8.5039846  56.9374567  96.4232930   1.9799992  51.4614990  95.9709997
   2.8939992  51.5404990  96.2439997   1.9869992  50.7744990  95.3039997
   2.1060769  51.3794735  95.9182366   0.6289992  56.8544990 101.0479997
  -0.0180008  56.3924990 100.5149997   0.9839992  56.1824990 101.6309997
   0.5883861  56.7004707 101.0537939   1.4989992  54.9344990 102.8529997
   1.1649992  54.0544990 103.0249997   1.7209992  55.2804990 103.7169997
   1.4832677  54.8607365 102.9934252  19.0479992  55.7444990 105.8329997
  19.0259992  55.9294990 106.7719997  19.7379992  56.3124990 105.4919997
  19.1383439  55.8466898 105.9154774  18.6109992  55.3114990 108.7549997
  18.1239992  54.5754990 108.3839997  19.1599992  54.9174990 109.4329997
  18.6186101  55.1576267 108.7959034  18.3629992  49.3574990  98.9069997
  19.2129992  49.7784990  99.0349997  18.3679992  48.6174990  99.5149997
  18.4799745  49.3151347  99.0066479  18.7569992  47.4114990 100.7309997
  18.0309992  46.9314990 101.1289997  19.3379992  47.6164990 101.4629997
  18.7362504  47.3735592 100.8844199 119.2609992  16.0254990  89.3509997
 118.8359992  16.8354990  89.0679997 120.1649992  16.1114990  89.0489997
 119.3251002  16.1478728  89.2714798  18.5159992  50.1964990 105.6789997
  19.3499992  49.8184990 105.3979997  18.6279992  51.1394990 105.5599997
  18.6451917  50.2722954 105.6244844  17.0019992  53.0744990 107.9859997
  16.3549992  53.3994990 108.6109997  16.4849992  52.6334990 107.3109997
  16.8434068  53.0594726 107.9804918  19.0249992  47.3124990  97.1219997
  18.5039992  47.6684990  96.4029997  18.9919992  47.9874990  97.7999997
  18.9491525  47.4525273  97.1151408  17.3739992  44.5514990  95.6729997
  17.4709992  45.2184990  94.9929997  17.2339992  43.7364990  95.1909997
  17.3683428  44.5325667  95.5148311  16.5439992  45.9324990 101.2939997
  16.3939992  44.9874990 101.2739997  16.1899992  46.2134990 102.1379997
  16.4756351  45.8411656 101.4053202   1.5789992  48.0104990 105.3039997
   1.7629992  47.9284990 104.3689997   2.4279992  47.8864990 105.7279997
   1.7190259  47.9824915 105.2331771  16.6219992  41.9594990  94.7899997
  17.2319992  41.5884990  95.4269997  15.7849992  41.5384990  94.9859997
  16.5923704  41.8517942  94.9037077  16.2539992  43.5144990  99.7559997
  16.5339992  42.6074990  99.8809997  17.0129992  43.9484990  99.3669997
  16.3949471  43.4490654  99.7205051  16.8659992  44.0964990 105.1919997
  17.7989992  44.3084990 105.1579997  16.6309992  44.1974990 106.1149997
  16.9618357  44.1391303 105.3120232  16.8949992  44.8334990 107.9679997
  16.0519992  45.1014990 108.3339997  17.3379992  45.6554990 107.7569997
  16.8394358  44.9813294 107.9895999 123.5719992  17.4244990  92.3099997
 123.7569992  17.0914990  93.1879997 124.4189992  17.7344990  91.9879997
 123.7117291  17.4208214  92.3866140  16.8679992  40.7774990  99.8049997
  17.0499992  40.3284990 100.6299997  16.2679992  40.1934990  99.3409997
  16.8118187  40.6370563  99.8552721   2.3979992  41.5934990 104.3359997
   2.8429992  40.8014990 104.6379997   2.8639992  42.3094990 104.7669997
   2.5219059  41.5819485 104.4356061   0.7019992  44.5924990 105.4049997
   1.1939992  44.3714990 104.6149997   1.0639992  45.4324990 105.6859997
   0.8183429  44.6758220 105.3347918  18.7339992  40.8454990  96.3329997
  19.1469992  40.1244990  95.8569997  19.4159992  41.5144990  96.3909997
  18.8825712  40.8374304  96.2758247   1.0149992  40.8504990  99.4599997
   0.0899992  41.0584990  99.3299997   1.4689992  41.3344990  98.7699997
   0.9497401  40.9443895  99.3489433  15.7859992  55.8344990 101.4049997
  16.4379992  55.4864990 100.7969997  16.2969992  56.3224990 102.0509997
  15.9442872  55.8528248 101.4090964   0.9789992  39.5884990 107.8039997
   0.3139992  39.3424990 108.4469997   0.5359992  40.2104990 107.2269997
   0.8281168  39.6389225 107.8139830   6.1249992  53.7374990 108.2069997
   5.6999992  54.5474990 107.9239997   7.0289992  53.8234990 107.9049997
   6.1891002  53.8598728 108.1274798  17.6989992  39.0124990 109.4899997
  16.8859992  39.3374990 109.1019997  17.9319992  38.2514990 108.9569997
  17.6192566  38.9541570 109.3649196   3.5269992  56.9944990 108.2539997
   2.8059992  57.4344990 107.8029997   3.1609992  56.7434990 109.1029997
   3.3789785  57.0207691 108.3069849 125.9169992  18.7104990  91.5539997
 126.5939992  18.0774990  91.3139997 126.2389992  19.1114990  92.3619997
 126.0531280  18.6780638  91.6303190   5.9939992  56.5944990 107.2839997
   5.1289992  56.6664990 107.6879997   5.9389992  57.1414990 106.4999997
   5.8682066  56.6782678 107.2333371  10.7049992  56.4824990 106.4599997
  10.2479992  57.0114990 105.8059997  10.8669992  57.0854990 107.1849997
  10.6643919  56.6363990 106.4685740  13.0319992  55.3604990 107.4049997
  12.1279992  55.5254990 107.1389997  13.4609992  56.2134990 107.3389997
  12.9662017  55.4984184 107.3596495  15.6359992  56.9304990 107.6999997
  15.4549992  57.8464990 107.4889997  15.8129992  56.5194990 106.8529997
  15.6351377  57.0003365 107.5567178   2.9419992  55.6174990 105.1649997
   2.9229992  55.1914990 106.0219997   3.7459992  55.2984990 104.7559997
   3.0481393  55.5160297 105.2270155   5.0829992  54.3274990 103.8199997
   4.8639992  53.4104990 103.9889997   5.9069992  54.4674990 104.2859997
   5.1644637  54.2209586 103.9061414   7.6199992  54.7974990 104.6679997
   7.8329992  53.9094990 104.3809997   7.6849992  54.7624990 105.6229997
   7.6579075  54.6713318 104.7577355  11.1289992  40.4614990 103.8129997
  10.4539992  39.8314990 104.0679997  11.6929992  39.9774990 103.2099997
  11.1129558  40.3099283 103.7663451  16.2709992  38.5684990 103.9249997
  16.8749992  39.1164990 103.4239997  15.4019992  38.8874990 103.6849997
  16.2361126  38.6867070 103.8239180  17.9979992  39.7074990 102.2589997
  18.6099992  39.1934990 101.7319997  18.3809992  40.5844990 102.2819997
  18.1333867  39.7557613 102.1900888 130.8349992   1.3004990  90.6339997
 130.0219992   1.6254990  90.2459997 131.0679992   0.5394990  90.1009997
 130.7552566   1.2421570  90.5089196   3.4549992  39.0954990 101.6349997
   2.6779992  38.8604990 101.1269997   3.9859992  38.2984990 101.6439997
   3.4204443  38.9556721 101.5667200   2.2919992  38.8934990  97.4379997
   2.7309992  39.5044990  96.8469997   1.6579992  39.4314990  97.9119997
   2.2664104  39.0499233  97.4211376   8.0349992  39.0214990 101.4479997
   8.9089992  39.4104990 101.4179997   7.8989992  38.8064990 102.3709997
   8.1363125  39.0457120 101.5686523  13.5909992  39.0514990 103.0969997
  13.6679992  39.1474990 102.1479997  13.3159992  38.1444990 103.2259997
  13.5643407  38.9419188 102.9843532  14.9449992  39.0774990  98.7899997
  14.2419992  39.6924990  98.5799997  14.4999992  38.2404990  98.9209997
  14.7886550  39.0484679  98.7789819   2.1929992  54.8414990  98.3359997
   1.5079992  54.8034990  97.6679997   2.1959992  55.7534990  98.6239997
   2.0997358  54.9596744  98.2836145   4.1529992  40.8094990  95.8809997
   4.6439992  40.1794990  95.3529997   4.7759992  41.1054990  96.5439997
   4.3045459  40.7632419  95.8983667   9.1789992  41.1024990  98.3379997
   9.3569992  40.4554990  99.0209997   9.1249992  41.9364990  98.8049997
   9.1960678  41.1266615  98.4946283  11.0569992  56.0504990  96.7329997
  11.9229992  56.4174990  96.5549997  10.8099992  55.6114990  95.9199997
  11.1422041  56.0413648  96.5985958  17.7659992  55.6134990  99.4129997
  17.5719992  54.8654990  98.8479997  17.7269992  56.3714990  98.8289997
  17.7341907  55.6135770  99.2568077 116.6629992  19.2824990  89.3979997
 115.9419992  19.7224990  88.9469997 116.2969992  19.0314990  90.2469997
 116.5149785  19.3087691  89.4509849   4.0109992  55.7614990  95.3609997
   3.7429992  56.0474990  96.2339997   4.7819992  55.2154990  95.5129997
   4.0785600  55.7268341  95.5011482  31.3899992  48.2514990 101.5929997
  31.4789992  49.1954990 101.4609997  30.7509992  47.9764990 100.9349997
  31.3158319  48.3434984 101.4860276  30.3229992  47.5064990 105.0119997
  30.2839992  46.8604990 105.7169997  29.9999992  47.0394990 104.2409997
  30.2740199  47.3550089 105.0042865  22.6909992  47.1204990 106.6049997
  22.7319992  46.4954990 107.3289997  23.3939992  47.7444990 106.7869997
  22.7916054  47.1193262 106.7286311  34.0289992  50.4454990 103.3139997
  33.5879992  49.7254990 103.7639997  34.0159992  51.1664990 103.9439997
  33.9668398  50.4443187 103.4607734  23.6149992  51.5704990 105.1399997
  23.2449992  50.7684990 104.7709997  24.5559992  51.4024990 105.1869997
  23.6915630  51.4378680 105.0957873  20.2249992  45.2304990 100.5329997
  19.7769992  46.0764990 100.5149997  19.6639992  44.6514990 100.0179997
  20.0878546  45.2679004 100.4608874  20.9349992  47.3924990 102.6589997
  21.1489992  46.6224990 103.1859997  21.6729992  47.4824990 102.0559997
  21.0640073  47.2993546 102.6495786  31.1399992  55.5494990 103.5259997
  31.7599992  54.8734990 103.2529997  30.9319992  55.3314990 104.4339997
  31.1967360  55.4274792 103.6114387  28.7119992  49.9384990 105.4179997
  29.0159992  49.2524990 104.8239997  29.4339992  50.0574990 106.0359997
  28.8511152  49.8607201 105.4202106 119.1299992  18.8824990  88.4279997
 118.2649992  18.9544990  88.8319997 119.0749992  19.4294990  87.6439997
 119.0042066  18.9662678  88.3773371  37.3749992  41.5404990 106.2789997
  37.4239992  42.1504990 107.0149997  37.8009992  42.0014990 105.5559997
  37.4392851  41.6863266 106.2820532  31.8529992  44.3324990 105.7459997
  31.9949992  43.3864990 105.7659997  31.7469992  44.5394990 104.8169997
  31.8581158  44.2309722 105.6232241  25.0079992  42.4344990 103.0179997
  25.0509992  43.2944990 102.5999997  24.5499992  41.8814990 102.3849997
  24.9519613  42.4775689 102.8751276  32.7299992  42.5654990 101.4189997
  33.3759992  42.2364990 102.0439997  33.2399992  43.0824990 100.7959997
  32.8874392  42.5903710 101.4203248  21.6279992  44.8314990 103.7799997
  22.2819992  44.2814990 104.2119997  21.6519992  44.5574990 102.8639997
  21.7207022  44.7192005 103.7151698  26.7839992  46.3814990 102.9959997
  27.3999992  45.8544990 103.5049997  26.1979992  45.7414990 102.5919997
  26.7890652  46.2228919 103.0110277  37.7669992  43.0184990 108.5149997
  37.0779992  43.6764990 108.4199997  37.7819992  42.8204990 109.4519997
  37.6747756  43.0817614 108.6285795  23.8179992  41.3524990 107.0919997
  23.5989992  41.8824990 106.3259997  23.1499992  41.5784990 107.7399997
  23.6977271  41.4556508 107.0746206  31.1869992  50.8524990 100.6359997
  30.8909992  50.5294990  99.7849997  30.8629992  51.7524990 100.6779997
  31.1026501  50.9299058 100.5250893  26.3869992  49.0274990 107.3799997
  25.6469992  49.6264990 107.4829997  27.1009992  49.5814990 107.0639997
  26.3823288  49.1842368 107.3513787 123.8409992  18.7704990  87.6039997
 123.3839992  19.2994990  86.9499997 124.0029992  19.3734990  88.3289997
 123.8003919  18.9243990  87.6125740  34.4939992  41.8564990 103.3999997
  34.2789992  41.0904990 103.9319997  35.1499992  42.3284990 103.9129997
  34.5532451  41.8154472 103.5421699  23.4119992  43.2444990 105.0449997
  24.0249992  43.8774990 105.4179997  23.9239992  42.7724990 104.3879997
  23.5651680  43.2674006 105.0072830  24.7939992  50.9924990 108.1669997
  24.7889992  51.8714990 107.7889997  23.9409992  50.9084990 108.5919997
  24.6779199  51.1015901 108.1726942  20.9159992  50.6634990  98.9489997
  20.6439992  50.8924990  98.0599997  20.9609992  51.5004990  99.4089997
  20.8848709  50.8081069  98.8896089  34.5409992  52.2844990 105.6619997
  33.5989992  52.3434990 105.8229997  34.8169992  53.1904990 105.5249997
  34.4495771  52.4150270 105.6654827  34.8409992  40.5714990 107.0789997
  34.1049992  41.1814990 107.0409997  35.5249992  40.9864990 106.5529997
  34.8325885  40.7111924 107.0026931  27.8439992  38.6574990 104.5449997
  27.7269992  37.7094990 104.4909997  26.9889992  38.9904990 104.8179997
  27.7123691  38.5725842 104.5745072  32.7929992  54.0654990 102.2869997
  33.2179992  53.3584990 101.8019997  33.1099992  54.8674990 101.8699997
  32.8940266  54.0770201 102.1642461  33.9519992  51.9664990 100.7959997
  33.6949992  51.2764990 100.1839997  34.0229992  51.5234990 101.6409997
  33.9264322  51.8121568 100.8265372  35.6379992  50.5334990 109.2729997
  35.7779992  49.9414990 108.5339997  35.8059992  51.4064990 108.9169997
  35.6798734  50.5704041 109.1236937 126.1679992  17.6484990  88.5489997
 125.2639992  17.8134990  88.2829997 126.5969992  18.5014990  88.4829997
 126.1022017  17.7864184  88.5036495  30.1109992  47.4954990  99.0449997
  29.3989992  48.0304990  98.6939997  30.8019992  47.5504990  98.3849997
  30.1068696  47.5762591  98.9076372  30.1649992  45.9524990  96.0839997
  30.8659992  45.9754990  96.7349997  30.4669992  45.3244990  95.4279997
  30.3018282  45.8707350  96.0844478  37.4799992  46.8734990 107.3389997
  36.8279992  47.5674990 107.4279997  37.9449992  47.0834990 106.5289997
  37.4535357  46.9969544 107.2417056  33.5169992  47.7044990  99.9969997
  32.7849992  47.9334990 100.5699997  33.9639992  46.9914990 100.4519997
  33.4772753  47.6393984 100.1369698  33.4139992  45.8794990 109.0649997
  33.4939992  46.6424990 109.6369997  32.8129992  46.1584990 108.3739997
  33.3437115  46.0217707 109.0499631  25.1619992  48.3354990 101.8799997
  24.8319992  47.9644990 101.0609997  25.7499992  47.6644990 102.2259997
  25.1964056  48.1941257 101.8149035  26.5289992  51.7634990 104.5609997
  26.4339992  51.1844990 103.8039997  27.2579992  51.3924990 105.0569997
  26.6146161  51.6340902 104.5245192  25.5289992  47.1034990 105.5129997
  26.0939992  47.2254990 104.7499997  25.8469992  47.7414990 106.1519997
  25.6493430  47.2064448 105.4949094  31.8379992  52.6074990 106.2469997
  31.5969992  53.2694990 106.8949997  31.6399992  51.7724990 106.6719997
  31.7782662  52.5852704 106.3931008  32.3879992  46.8674990  97.6819997
  32.9669992  47.0174990  98.4289997  32.8019992  47.3374990  96.9589997
  32.5233122  46.9516288  97.6865024 128.7719992  19.2184990  88.8439997
 128.5909992  20.1344990  88.6329997 128.9489992  18.8074990  87.9969997
 128.7711377  19.2883365  88.7007178  23.3289992  47.7014990 109.4589997
  23.3989992  48.3524990 110.1569997  22.4379992  47.8044990 109.1239997
  23.2181802  47.8044769 109.5092231  30.1139992  53.6034990 101.1179997
  30.5879992  53.8994990 101.8949997  29.5509992  54.3424990 100.8839997
  30.1028460  53.7438336 101.1927626  36.0859992  38.6174990  97.4949997
  35.1859992  38.7554990  97.7899997  36.3379992  39.4484990  97.0929997
  35.9967355  38.7488200  97.4810539  24.1519992  47.4044990  99.4689997
  23.8599992  48.1724990  98.9779997  23.4779992  46.7454990  99.3059997
  24.0208843  47.4204537  99.3797695  37.2759992  52.9834990  95.8719997
  37.3489992  53.9224990  96.0419997  38.1809992  52.6784990  95.8149997
  37.4084168  53.0708531  95.8875736  20.2449992  49.7674990 108.2839997
  19.7439992  49.7394990 107.4689997  20.2509992  48.8624990 108.5939997
  20.1771690  49.6412234 108.2142770  19.9959992  52.5484990 105.1679997
  20.9419992  52.4034990 105.1489997  19.8829992  53.3324990 105.7049997
  20.1103578  52.6346708 105.2380300  29.1719992  52.7884990 109.7259997
  29.2589992  53.6144990 110.2009997  28.3079992  52.4584990 109.9749997
  29.0671944  52.8569871 109.8246558  29.5859992  56.5604990  99.5319997
  29.5109992  56.4394990  98.5859997  29.6189992  57.5094990  99.6509997
  29.5801862  56.6722492  99.4184840  23.2399992  55.3494990 101.3129997
  23.3919992  55.0014990 102.1919997  22.3889992  54.9924990 101.0579997
  23.1457899  55.2536749 101.3987322 116.0779992  17.9054990  86.3089997
 116.0589992  17.4794990  87.1659997 116.8819992  17.5864990  85.8999997
 116.1841393  17.8040297  86.3710155  32.6879992  55.7144990  96.5349997
  33.0629992  54.9704990  96.0639997  32.6919992  55.4444990  97.4529997
  32.7398969  55.5760920  96.5946475  32.3569992  55.6404990  99.2839997
  31.4219992  55.7404990  99.4629997  32.6369992  54.9304990  99.8619997
  32.2669270  55.5582300  99.3865984  22.4939992  51.0914990 109.3269997
  22.7099992  50.7294990 110.1869997  21.6389992  50.7164990 109.1169997
  22.4079349  50.9912914 109.4162134  25.1129992  39.5614990 105.3229997
  24.2509992  39.4744990 104.9149997  25.0909992  40.4174990 105.7499997
  24.9920953  39.6653558 105.3249262  29.7759992  39.2834990 108.6969997
  30.1959992  38.8684990 109.4499997  28.8429992  39.1044990 108.8139997
  29.7073736  39.2024921 108.8158950  33.1019992  43.0384990 109.5509997
  32.5879992  42.9134990 110.3479997  32.9469992  43.9514990 109.3059997
  33.0106643  43.1447068 109.6270624  33.8649992  47.8994990  95.3119997
  33.9069992  47.6774990  94.3819997  34.7139992  48.2984990  95.5019997
  33.9855253  47.9230510  95.2103804  29.4379992  41.7754990  95.9819997
  29.1839992  41.7944990  96.9049997  29.1809992  40.9044990  95.6809997
  29.3685133  41.6603121  96.0675065  25.2039992  44.5264990 106.4179997
  24.5619992  44.4864990 107.1269997  25.2409992  45.4534990 106.1799997
  25.1211659  44.6462540 106.4828463  25.2009992  44.7474990 101.3299997
  24.3079992  44.4074990 101.2709997  25.6519992  44.3704990 100.5739997
  25.1397185  44.6500220 101.2197698 118.2189992  16.6154990  84.9639997
 117.9999992  15.6984990  85.1329997 119.0429992  16.7554990  85.4299997
 118.3004637  16.5089586  85.0501414  30.7369992  45.1634990 100.1469997
  30.3279992  45.9784990  99.8549997  31.4569992  45.0234990  99.5319997
  30.7783946  45.2559963 100.0239616  31.7409992  44.6094990 102.9609997
  31.5459992  45.2154990 102.2459997  31.9229992  43.7764990 102.5259997
  31.7389272  44.5797955 102.8044075  22.9539992  44.8474990 108.2849997
  22.9159992  45.2474990 109.1529997  22.4629992  44.0304990 108.3749997
  22.8824246  44.7918842 108.4161171  26.3199992  42.2214990  95.0829997
  25.8889992  41.7764990  95.8129997  25.6019992  42.5924990  94.5709997
  26.1639363  42.2107979  95.1136194  19.5619992  41.9634990 102.1349997
  20.1929992  41.9344990 102.8549997  20.0119992  41.5384990 101.4049997
  19.7090905  41.9020839 102.1347479  20.8359992  42.7094990  97.5589997
  21.3109992  43.3004990  96.9739997  20.1189992  43.2394990  97.9059997
  20.8040406  42.8621011  97.5258495  31.0049992  46.2474990 107.6319997
  31.3289992  45.6164990 106.9889997  30.5649992  45.7134990 108.2929997
  30.9898707  46.0888261 107.6333195  27.7829992  42.1754990 102.4159997
  26.8719992  42.2324990 102.7049997  28.2879992  42.1154990 103.2269997
  27.7266873  42.1751838 102.5651190  22.6109992  43.8044990 101.2429997
  21.7219992  43.9034990 100.9029997  22.9069992  42.9624990 100.8969997
  22.5294001  43.7042473 101.1497318  26.2639992  43.8044990  98.8989997
  27.1959992  43.9334990  99.0769997  26.0489992  44.4734990  98.2499997
  26.3624245  43.9126452  98.8355602 120.7559992  17.0854990  85.8119997
 120.9689992  16.1974990  85.5249997 120.8209992  17.0504990  86.7669997
 120.7939075  16.9593318  85.9017355  32.1879992  41.4104990 105.6799997
  31.5109992  41.5414990 106.3439997  31.7019992  41.2554990 104.8699997
  32.0297265  41.4074665 105.6613380  24.9379992  44.9984990  96.4659997
  24.3959992  44.6194990  95.7749997  25.7719992  45.1934990  96.0369997
  24.9764283  44.9729383  96.3134298  29.1029992  44.9624990 104.3029997
  29.6669992  44.4164990 103.7559997  28.9549992  44.4414990 105.0919997
  29.1603037  44.8171798 104.3347212  24.1049992  41.0994990 100.7209997
  23.7869992  40.1964990 100.6859997  24.8859992  41.1014990 100.1689997
  24.1671560  40.9761148 100.6414975  27.7289992  43.3514990 106.7169997
  26.8939992  43.8054990 106.8269997  28.2529992  43.6274990 107.4689997
  27.6855070  43.4509677 106.8337134  28.2729992  49.5644990  98.4019997
  27.5279992  49.0564990  98.0789997  28.1389992  49.6134990  99.3479997
  28.1528633  49.5015714  98.4857563  35.4229992  48.6974990 107.1879997
  36.0649992  49.1534990 106.6449997  34.5929992  48.8104990 106.7259997
  35.3987352  48.7753223 107.0510234  32.1709992  42.3784990  96.6009997
  31.2319992  42.4894990  96.4499997  32.4679992  43.2344990  96.9069997
  32.0826371  42.5095327  96.6217362  29.7929992  49.7484990 109.6389997
  29.4469992  49.3664990 110.4449997  29.5929992  50.6814990 109.7099997
  29.7185400  49.8223489 109.7590401  32.8889992  44.2454990  98.2619997
  33.7809992  44.1074990  98.5809997  32.9459992  45.0364990  97.7249997
  33.0187380  44.3334777  98.2330981 124.2649992   2.7494990  84.9569997
 123.5899992   2.1194990  85.2119997 124.8289992   2.2654990  84.3539997
 124.2489558   2.5979283  84.9103451  23.3979992  48.8594990 104.1709997
  24.1429992  48.8564990 103.5699997  23.4759992  48.0354990 104.6529997
  23.5104158  48.7477928 104.1539136  30.3989992  51.0224990  97.4269997
  30.1039992  51.8494990  97.8089997  29.6959992  50.4034990  97.6229997
  30.2635855  51.0519458  97.5057634  20.4059992  47.3194990 109.4859997
  20.6289992  46.9014990 110.3179997  19.8039992  46.7074990 109.0639997
  20.3550802  47.1795216 109.5427561  32.0429992  52.2104990 109.5889997
  31.1419992  52.3934990 109.3209997  32.0769992  52.4694990 110.5099997
  31.9243021  52.2705505 109.6768206  37.7739992  44.4544990  97.9559997
  37.2199992  44.0584990  97.2839997  37.8749992  45.3654990  97.6789997
  37.7117084  44.5233565  97.8264381  36.0689992  53.2404990  98.4209997
  35.6969992  52.4154990  98.7309997  36.3469992  53.0574990  97.5239997
  36.0555997  53.1026160  98.3421551  33.2299992  48.0484990 105.4429997
  32.3019992  47.8174990 105.4159997  33.6809992  47.2714990 105.1129997
  33.1638165  47.9117785 105.3946772  25.7729992  52.3774990 101.5759997
  26.2999992  53.1504990 101.3749997  24.8929992  52.6014990 101.2739997
  25.7261793  52.5136652 101.5076304  21.5279992  47.2394990  96.1629997
  22.1439992  47.8664990  96.5419997  20.6659992  47.5554990  96.4339997
  21.4958195  47.3680810  96.2515369  27.1999992  50.0404990 101.1519997
  26.9589992  50.9654990 101.1939997  26.4599992  49.5814990 101.5479997
  27.0668934  50.1050881 101.2113191 129.4069992   0.8564990  85.0689997
 130.0109992   1.4044990  84.5679997 128.5379992   1.1754990  84.8289997
 129.3721126   0.9747070  84.9679180  27.7149992  54.1894990 107.4669997
  28.0779992  55.0434990 107.2339997  28.2469992  53.8974990 108.2079997
  27.8365141  54.2668907 107.5352079  25.8829992  55.0614990 100.6969997
  24.9339992  55.1674990 100.7489997  26.2349992  55.8824990 101.0419997
  25.8006214  55.1869361 100.7507317  31.2589992  50.2884990 107.1679997
  30.8329992  50.0604990 107.9939997  31.8399992  49.5494990 106.9849997
  31.2791587  50.1574084 107.2564111  33.4619992  51.2174990  96.2419997
  33.8149992  50.8374990  97.0459997  32.5129992  51.1234990  96.3279997
  33.3820985  51.1527330  96.3637738  33.9179992  54.8404990 109.6369997
  33.3159992  54.2844990 109.1419997  34.1989992  55.5074990 109.0109997
  33.8735757  54.8545755 109.4845657  37.9649992  55.6964990  96.4429997
  38.7089992  56.2824990  96.3029997  37.2709992  56.2654990  96.7759997
  37.9729809  55.8535830  96.4688572  22.0399992  42.0734990 109.0439997
  21.1469992  42.4114990 108.9769997  21.9409992  41.2174990 109.4619997
  21.9045241  42.0040941 109.0912982  34.3279992  49.8894990  98.4679997
  34.0509992  49.1614990  99.0239997  35.2549992  50.0084990  98.6739997
  34.4154181  49.8060068  98.5718972  21.6909992  53.8774990 107.4789997
  21.9079992  52.9454990 107.4479997  21.9379992  54.1524990 108.3629997
  21.7540543  53.7870877 107.5941412  27.5529992  52.3294990  94.6889997
  27.7919992  51.5804990  94.1409997  27.2839992  51.9414990  95.5209997
  27.5492804  52.1746524  94.7266352 131.1339992   1.9954990  83.4029997
 131.7459992   1.4814990  82.8759997 131.5169992   2.8724990  83.4259997
 131.2693867   2.0437613  83.3340888  26.4899992  51.8994990  97.1449997
  26.6369992  51.3794990  97.9349997  26.4869992  52.8064990  97.4509997
  26.5097300  51.9508975  97.2945877  22.9429992  49.1514990  97.6549997
  22.2569992  49.5044990  98.2219997  23.4659992  49.9144990  97.4089997
  22.9199033  49.3028757  97.6992644  30.7739992  41.8144990 107.9339997
  31.4729992  41.8884990 108.5839997  30.3939992  40.9494990 108.0889997
  30.8182095  41.7077402 108.0437982  31.5589992  41.4664990  99.0309997
  31.7789992  41.9374990  98.2279997  32.1169992  41.8604990  99.7019997
  31.6645851  41.5843272  99.0116134  29.2279992  53.5964990  97.8939997
  28.4109992  54.0934990  97.9469997  29.7569992  54.0724990  97.2539997
  29.1877898  53.7288123  97.8147274  28.7589992  43.1944990  99.8659997
  29.5709992  43.6984990  99.9119997  28.5139992  43.0494990 100.7799997
  28.8371091  43.2439366  99.9958552  29.2949992  44.1804990 109.0509997
  29.4139992  44.7544990 109.8079997  29.9499992  43.4924990 109.1659997
  29.3998684  44.1660205 109.1701656  29.6429992  40.2754990 100.8039997
  29.2959992  40.8924990 101.4489997  30.3009992  40.7764990 100.3229997
  29.6845290  40.4276384 100.8271635  26.5659992  54.6404990  97.8759997
  26.7269992  55.4404990  97.3749997  26.3689992  54.9474990  98.7609997
  26.5613919  54.7914140  97.9270988  25.2999992  41.3384990  97.4919997
  25.2169992  42.2264990  97.8379997  26.1899992  41.0734990  97.7229997
  25.4089751  41.4242482  97.5706066 116.5909992   1.3834990  82.7789997
 115.8139992   1.1484990  82.2709997 117.1219992   0.5864990  82.7879997
 116.5564443   1.2436721  82.7107200  35.4989992  42.0874990 109.8859997
  34.5829992  42.3494990 109.7979997  35.8349992  42.0844990 108.9889997
  35.4189789  42.1229637 109.7527829  34.1009992  45.8374990 103.9819997
  33.3039992  45.4224990 103.6529997  34.5459992  45.1474990 104.4729997
  34.0520317  45.6873197 104.0033556  23.5589992  51.7654990  96.5519997
  24.1509992  52.4654990  96.8279997  24.0179992  51.3324990  95.8329997
  23.7021172  51.8027371  96.4925163  21.8749992  44.4304990  95.6679997
  21.8299992  45.3694990  95.8469997  20.9869992  44.1944990  95.3979997
  21.7488472  44.5271946  95.6560282  35.1879992  55.0934990 105.6039997
  35.0319992  55.7724990 104.9469997  36.1199992  55.1654990 105.8069997
  35.2927328  55.1961586 105.5415529  22.6829992  39.2114990 104.3409997
  22.4539992  39.2704990 103.4139997  22.2399992  38.4204990 104.6479997
  22.5917387  39.1126412 104.2555223  21.6129992  53.1524990 100.5019997
  20.7809992  53.6244990 100.5289997  22.1589992  53.6624990  99.9029997
  21.5728710  53.2860317 100.4247570  29.5909992  54.1924990  94.8269997
  28.9469992  53.5614990  95.1489997  30.3529992  53.6614990  94.5949997
  29.6058260  54.0343035  94.8397298  34.1949992  54.0094990  95.0609997
  34.4779992  53.2144990  95.5139997  34.9349992  54.2424990  94.4999997
  34.3337295  53.9322349  95.0471469  25.1499992  49.9184990  94.9179997
  25.2139992  49.1244990  95.4489997  25.8029992  49.8004990  94.2289997
  25.2471168  49.7937748  94.8975119 115.4279992   1.1814990  78.5819997
 115.8669992   1.7924990  77.9909997 114.7939992   1.7194990  79.0559997
 115.4024104   1.3379233  78.5651376  30.5019992  50.9654990  94.6539997
  30.2339992  51.1464990  95.5549997  30.2959992  50.0404990  94.5229997
  30.4374251  50.8651528  94.7596809  33.1989992  49.4604990 109.6019997
  33.9439992  50.0494990 109.4819997  32.4409992  50.0424990 109.6649997
  33.1985185  49.6197000 109.5940940  26.2989992  47.8914990  97.2239997
  25.8399992  47.4074990  97.9099997  26.5539992  47.2224990  96.5879997
  26.2706178  47.7348511  97.2319785  25.5879992  45.7844990 109.5799997
  24.9699992  46.4584990 109.8609997  25.9319992  46.1054990 108.7469997
  25.5498181  45.9203233 109.5058266  27.3699992  46.1344990  95.4869997
  27.1899992  45.9794990  94.5589997  28.3199992  46.2424990  95.5309997
  27.4738016  46.1279264  95.3662123  36.7599992  48.4884990  94.9319997
  36.4869992  48.0644990  94.1189997  36.7999992  49.4204990  94.7149997
  36.7280201  48.5563523  94.7913548  26.3399992  41.5084990 108.1549997
  26.8759992  41.9604990 107.5029997  25.4879992  41.4004990 107.7329997
  26.2981648  41.5557883 108.0086395  27.9219992  46.9484990 108.3949997
  28.6729992  46.7924990 107.8219997  27.5829992  47.8004990 108.1189997
  27.9789052  47.0422745 108.2793469  27.1459992  38.9654990 108.5869997
  27.0479992  39.9114990 108.4809997  26.4029992  38.5924990 108.1109997
  27.0322363  39.0445987 108.5082029  27.2679992  56.8244990  96.4879997
  28.2009992  56.9824990  96.6319997  27.0029992  57.5004990  95.8629997
  27.3599846  56.9374567  96.4232930 121.1709992   1.3094990  82.5919997
 122.0449992   1.6984990  82.5619997 121.0349992   1.0944990  83.5149997
 121.2723125   1.3337120  82.7126523  20.8359992  51.4614990  95.9709997
  21.7499992  51.5404990  96.2439997  20.8429992  50.7744990  95.3039997
  20.9620769  51.3794734  95.9182366  19.4849992  56.8544990 101.0479997
  18.8379992  56.3924990 100.5149997  19.8399992  56.1824990 101.6309997
  19.4443861  56.7004707 101.0537939  20.3549992  54.9344990 102.8529997
  20.0209992  54.0544990 103.0249997  20.5769992  55.2804990 103.7169997
  20.3392677  54.8607365 102.9934252  37.9039992  55.7444990 105.8329997
  37.8819992  55.9294990 106.7719997  38.5939992  56.3124990 105.4919997
  37.9943439  55.8466898 105.9154774  37.4669992  55.3114990 108.7549997
  36.9799992  54.5754990 108.3839997  38.0159992  54.9174990 109.4329997
  37.4746101  55.1576267 108.7959034  37.2189992  49.3574990  98.9069997
  38.0689992  49.7784990  99.0349997  37.2239992  48.6174990  99.5149997
  37.3359745  49.3151347  99.0066479  37.6129992  47.4114990 100.7309997
  36.8869992  46.9314990 101.1289997  38.1939992  47.6164990 101.4629997
  37.5922504  47.3735592 100.8844199  37.3719992  50.1964990 105.6789997
  38.2059992  49.8184990 105.3979997  37.4839992  51.1394990 105.5599997
  37.5011917  50.2722954 105.6244844  35.8579992  53.0744990 107.9859997
  35.2109992  53.3994990 108.6109997  35.3409992  52.6334990 107.3109997
  35.6994068  53.0594726 107.9804918  37.8809992  47.3124990  97.1219997
  37.3599992  47.6684990  96.4029997  37.8479992  47.9874990  97.7999997
  37.8051525  47.4525273  97.1151408 126.7269992   1.3394990  84.2409997
 126.8039992   1.4354990  83.2919997 126.4519992   0.4324990  84.3699997
 126.7003407   1.2299188  84.1283532  36.2299992  44.5514990  95.6729997
  36.3269992  45.2184990  94.9929997  36.0899992  43.7364990  95.1909997
  36.2243428  44.5325667  95.5148311  35.3999992  45.9324990 101.2939997
  35.2499992  44.9874990 101.2739997  35.0459992  46.2134990 102.1379997
  35.3316351  45.8411656 101.4053202  20.4349992  48.0104990 105.3039997
  20.6189992  47.9284990 104.3689997  21.2839992  47.8864990 105.7279997
  20.5750259  47.9824915 105.2331771  35.4779992  41.9594990  94.7899997
  36.0879992  41.5884990  95.4269997  34.6409992  41.5384990  94.9859997
  35.4483704  41.8517942  94.9037077  35.1099992  43.5144990  99.7559997
  35.3899992  42.6074990  99.8809997  35.8689992  43.9484990  99.3669997
  35.2509471  43.4490654  99.7205051  35.7219992  44.0964990 105.1919997
  36.6549992  44.3084990 105.1579997  35.4869992  44.1974990 106.1149997
  35.8178357  44.1391303 105.3120232  35.7509992  44.8334990 107.9679997
  34.9079992  45.1014990 108.3339997  36.1939992  45.6554990 107.7569997
  35.6954358  44.9813294 107.9895999  35.7239992  40.7774990  99.8049997
  35.9059992  40.3284990 100.6299997  35.1239992  40.1934990  99.3409997
  35.6678187  40.6370563  99.8552721  21.2539992  41.5934990 104.3359997
  21.6989992  40.8014990 104.6379997  21.7199992  42.3094990 104.7669997
  21.3779059  41.5819485 104.4356061  19.5579992  44.5924990 105.4049997
  20.0499992  44.3714990 104.6149997  19.9199992  45.4324990 105.6859997
  19.6743429  44.6758220 105.3347918 128.0809992   1.3654990  79.9339997
 127.3779992   1.9804990  79.7239997 127.6359992   0.5284990  80.0649997
 127.9246550   1.3364679  79.9229819  37.5899992  40.8454990  96.3329997
  38.0029992  40.1244990  95.8569997  38.2719992  41.5144990  96.3909997
  37.7385712  40.8374304  96.2758247  19.8709992  40.8504990  99.4599997
  18.9459992  41.0584990  99.3299997  20.3249992  41.3344990  98.7699997
  19.8057401  40.9443895  99.3489433  34.6419992  55.8344990 101.4049997
  35.2939992  55.4864990 100.7969997  35.1529992  56.3224990 102.0509997
  34.8002872  55.8528248 101.4090964  19.8349992  39.5884990 107.8039997
  19.1699992  39.3424990 108.4469997  19.3919992  40.2104990 107.2269997
  19.6841168  39.6389225 107.8139830  24.9809992  53.7374990 108.2069997
  24.5559992  54.5474990 107.9239997  25.8849992  53.8234990 107.9049997
  25.0451002  53.8598728 108.1274798  36.5549992  39.0124990 109.4899997
  35.7419992  39.3374990 109.1019997  36.7879992  38.2514990 108.9569997
  36.4752566  38.9541570 109.3649196  22.3829992  56.9944990 108.2539997
  21.6619992  57.4344990 107.8029997  22.0169992  56.7434990 109.1029997
  22.2349785  57.0207691 108.3069849  24.8499992  56.5944990 107.2839997
  23.9849992  56.6664990 107.6879997  24.7949992  57.1414990 106.4999997
  24.7242066  56.6782678 107.2333371  29.5609992  56.4824990 106.4599997
  29.1039992  57.0114990 105.8059997  29.7229992  57.0854990 107.1849997
  29.5203919  56.6363990 106.4685740  31.8879992  55.3604990 107.4049997
  30.9839992  55.5254990 107.1389997  32.3169992  56.2134990 107.3389997
  31.8222017  55.4984184 107.3596495 115.3289992  17.1294990  79.4799997
 114.6439992  17.0914990  78.8119997 115.3319992  18.0414990  79.7679997
 115.2357358  17.2476744  79.4276145  34.4919992  56.9304990 107.6999997
  34.3109992  57.8464990 107.4889997  34.6689992  56.5194990 106.8529997
  34.4911377  57.0003365 107.5567178  21.7979992  55.6174990 105.1649997
  21.7789992  55.1914990 106.0219997  22.6019992  55.2984990 104.7559997
  21.9041393  55.5160297 105.2270155  23.9389992  54.3274990 103.8199997
  23.7199992  53.4104990 103.9889997  24.7629992  54.4674990 104.2859997
  24.0204637  54.2209586 103.9061414  26.4759992  54.7974990 104.6679997
  26.6889992  53.9094990 104.3809997  26.5409992  54.7624990 105.6229997
  26.5139075  54.6713318 104.7577355  29.9849992  40.4614990 103.8129997
  29.3099992  39.8314990 104.0679997  30.5489992  39.9774990 103.2099997
  29.9689558  40.3099283 103.7663451  35.1269992  38.5684990 103.9249997
  35.7309992  39.1164990 103.4239997  34.2579992  38.8874990 103.6849997
  35.0921126  38.6867070 103.8239180  36.8539992  39.7074990 102.2589997
  37.4659992  39.1934990 101.7319997  37.2369992  40.5844990 102.2819997
  36.9893867  39.7557613 102.1900888  22.3109992  39.0954990 101.6349997
  21.5339992  38.8604990 101.1269997  22.8419992  38.2984990 101.6439997
  22.2764443  38.9556721 101.5667200  21.1479992  38.8934990  97.4379997
  21.5869992  39.5044990  96.8469997  20.5139992  39.4314990  97.9119997
  21.1224103  39.0499233  97.4211376  26.8909992  39.0214990 101.4479997
  27.7649992  39.4104990 101.4179997  26.7549992  38.8064990 102.3709997
  26.9923125  39.0457120 101.5686523 122.3149992   3.3904990  79.4819997
 122.4929992   2.7434990  80.1649997 122.2609992   4.2244990  79.9489997
 122.3320678   3.4146615  79.6386283  32.4469992  39.0514990 103.0969997
  32.5239992  39.1474990 102.1479997  32.1719992  38.1444990 103.2259997
  32.4203407  38.9419188 102.9843532  33.8009992  39.0774990  98.7899997
  33.0979992  39.6924990  98.5799997  33.3559992  38.2404990  98.9209997
  33.6446550  39.0484679  98.7789819  21.0489992  54.8414990  98.3359997
  20.3639992  54.8034990  97.6679997  21.0519992  55.7534990  98.6239997
  20.9557358  54.9596744  98.2836145  23.0089992  40.8094990  95.8809997
  23.4999992  40.1794990  95.3529997  23.6319992  41.1054990  96.5439997
  23.1605459  40.7632419  95.8983667  28.0349992  41.1024990  98.3379997
  28.2129992  40.4554990  99.0209997  27.9809992  41.9364990  98.8049997
  28.0520678  41.1266615  98.4946283  29.9129992  56.0504990  96.7329997
  30.7789992  56.4174990  96.5549997  29.6659992  55.6114990  95.9199997
  29.9982041  56.0413648  96.5985958  36.6219992  55.6134990  99.4129997
  36.4279992  54.8654990  98.8479997  36.5829992  56.3714990  98.8289997
  36.5901907  55.6135770  99.2568077  22.8669992  55.7614990  95.3609997
  22.5989992  56.0474990  96.2339997  23.6379992  55.2154990  95.5129997
  22.9345600  55.7268341  95.5011482  50.2459992  48.2514990 101.5929997
  50.3349992  49.1954990 101.4609997  49.6069992  47.9764990 100.9349997
  50.1718319  48.3434984 101.4860276  49.1789992  47.5064990 105.0119997
  49.1399992  46.8604990 105.7169997  48.8559992  47.0394990 104.2409997
  49.1300199  47.3550089 105.0042865 124.1929992  18.3384990  77.8769997
 125.0589992  18.7054990  77.6989997 123.9459992  17.8994990  77.0639997
 124.2782041  18.3293648  77.7425958  41.5469992  47.1204990 106.6049997
  41.5879992  46.4954990 107.3289997  42.2499992  47.7444990 106.7869997
  41.6476054  47.1193262 106.7286311  52.8849992  50.4454990 103.3139997
  52.4439992  49.7254990 103.7639997  52.8719992  51.1664990 103.9439997
  52.8228398  50.4443187 103.4607734  42.4709992  51.5704990 105.1399997
  42.1009992  50.7684990 104.7709997  43.4119992  51.4024990 105.1869997
  42.5475630  51.4378680 105.0957873  39.0809992  45.2304990 100.5329997
  38.6329992  46.0764990 100.5149997  38.5199992  44.6514990 100.0179997
  38.9438546  45.2679004 100.4608874  39.7909992  47.3924990 102.6589997
  40.0049992  46.6224990 103.1859997  40.5289992  47.4824990 102.0559997
  39.9200073  47.2993546 102.6495786  49.9959992  55.5494990 103.5259997
  50.6159992  54.8734990 103.2529997  49.7879992  55.3314990 104.4339997
  50.0527360  55.4274792 103.6114387  47.5679992  49.9384990 105.4179997
  47.8719992  49.2524990 104.8239997  48.2899992  50.0574990 106.0359997
  47.7071152  49.8607201 105.4202106  56.2309992  41.5404990 106.2789997
  56.2799992  42.1504990 107.0149997  56.6569992  42.0014990 105.5559997
  56.2952851  41.6863266 106.2820532  50.7089992  44.3324990 105.7459997
  50.8509992  43.3864990 105.7659997  50.6029992  44.5394990 104.8169997
  50.7141158  44.2309722 105.6232241  43.8639992  42.4344990 103.0179997
  43.9069992  43.2944990 102.5999997  43.4059992  41.8814990 102.3849997
  43.8079613  42.4775689 102.8751276 130.9019992  17.9014990  80.5569997
 130.7079992  17.1534990  79.9919997 130.8629992  18.6594990  79.9729997
 130.8701907  17.9015770  80.4008077  51.5859992  42.5654990 101.4189997
  52.2319992  42.2364990 102.0439997  52.0959992  43.0824990 100.7959997
  51.7434392  42.5903710 101.4203248  40.4839992  44.8314990 103.7799997
  41.1379992  44.2814990 104.2119997  40.5079992  44.5574990 102.8639997
  40.5767022  44.7192005 103.7151698  45.6399992  46.3814990 102.9959997
  46.2559992  45.8544990 103.5049997  45.0539992  45.7414990 102.5919997
  45.6450652  46.2228919 103.0110277  56.6229992  43.0184990 108.5149997
  55.9339992  43.6764990 108.4199997  56.6379992  42.8204990 109.4519997
  56.5307756  43.0817614 108.6285795  42.6739992  41.3524990 107.0919997
  42.4549992  41.8824990 106.3259997  42.0059992  41.5784990 107.7399997
  42.5537271  41.4556508 107.0746206  50.0429992  50.8524990 100.6359997
  49.7469992  50.5294990  99.7849997  49.7189992  51.7524990 100.6779997
  49.9586501  50.9299058 100.5250893  45.2429992  49.0274990 107.3799997
  44.5029992  49.6264990 107.4829997  45.9569992  49.5814990 107.0639997
  45.2383288  49.1842368 107.3513787  53.3499992  41.8564990 103.3999997
  53.1349992  41.0904990 103.9319997  54.0059992  42.3284990 103.9129997
  53.4092451  41.8154472 103.5421699  42.2679992  43.2444990 105.0449997
  42.8809992  43.8774990 105.4179997  42.7799992  42.7724990 104.3879997
  42.4211680  43.2674006 105.0072830  43.6499992  50.9924990 108.1669997
  43.6449992  51.8714990 107.7889997  42.7969992  50.9084990 108.5919997
  43.5339199  51.1015901 108.1726942 116.5489992   1.8974990  92.2959997
 116.1829992   1.1314990  92.7389997 117.4619992   1.9264990  92.5829997
 116.6223225   1.7966917  92.3953441  39.7719992  50.6634990  98.9489997
  39.4999992  50.8924990  98.0599997  39.8169992  51.5004990  99.4089997
  39.7408709  50.8081069  98.8896089  53.3969992  52.2844990 105.6619997
  52.4549992  52.3434990 105.8229997  53.6729992  53.1904990 105.5249997
  53.3055771  52.4150270 105.6654827  53.6969992  40.5714990 107.0789997
  52.9609992  41.1814990 107.0409997  54.3809992  40.9864990 106.5529997
  53.6885885  40.7111924 107.0026931  46.6999992  38.6574990 104.5449997
  46.5829992  37.7094990 104.4909997  45.8449992  38.9904990 104.8179997
  46.5683691  38.5725842 104.5745072  51.6489992  54.0654990 102.2869997
  52.0739992  53.3584990 101.8019997  51.9659992  54.8674990 101.8699997
  51.7500266  54.0770201 102.1642461  52.8079992  51.9664990 100.7959997
  52.5509992  51.2764990 100.1839997  52.8789992  51.5234990 101.6409997
  52.7824322  51.8121568 100.8265372  54.4939992  50.5334990 109.2729997
  54.6339992  49.9414990 108.5339997  54.6619992  51.4064990 108.9169997
  54.5358734  50.5704041 109.1236937  48.9669992  47.4954990  99.0449997
  48.2549992  48.0304990  98.6939997  49.6579992  47.5504990  98.3849997
  48.9628696  47.5762591  98.9076372  49.0209992  45.9524990  96.0839997
  49.7219992  45.9754990  96.7349997  49.3229992  45.3244990  95.4279997
  49.1578282  45.8707350  96.0844478  56.3359992  46.8734990 107.3389997
  55.6839992  47.5674990 107.4279997  56.8009992  47.0834990 106.5289997
  56.3095357  46.9969544 107.2417056 118.5219992   1.2474990  93.8319997
 119.4209992   0.9734990  93.6469997 118.1359992   0.5054990  94.2959997
 118.5927237   1.1096520  93.8694693  52.3729992  47.7044990  99.9969997
  51.6409992  47.9334990 100.5699997  52.8199992  46.9914990 100.4519997
  52.3332753  47.6393984 100.1369698  52.2699992  45.8794990 109.0649997
  52.3499992  46.6424990 109.6369997  51.6689992  46.1584990 108.3739997
  52.1997115  46.0217707 109.0499631  44.0179992  48.3354990 101.8799997
  43.6879992  47.9644990 101.0609997  44.6059992  47.6644990 102.2259997
  44.0524056  48.1941257 101.8149035  45.3849992  51.7634990 104.5609997
  45.2899992  51.1844990 103.8039997  46.1139992  51.3924990 105.0569997
  45.4706161  51.6340902 104.5245192  44.3849992  47.1034990 105.5129997
  44.9499992  47.2254990 104.7499997  44.7029992  47.7414990 106.1519997
  44.5053430  47.2064448 105.4949094  50.6939992  52.6074990 106.2469997
  50.4529992  53.2694990 106.8949997  50.4959992  51.7724990 106.6719997
  50.6342661  52.5852704 106.3931008  51.2439992  46.8674990  97.6819997
  51.8229992  47.0174990  98.4289997  51.6579992  47.3374990  96.9589997
  51.3793122  46.9516288  97.6865024  42.1849992  47.7014990 109.4589997
  42.2549992  48.3524990 110.1569997  41.2939992  47.8044990 109.1239997
  42.0741802  47.8044769 109.5092231  48.9699992  53.6034990 101.1179997
  49.4439992  53.8994990 101.8949997  48.4069992  54.3424990 100.8839997
  48.9588460  53.7438336 101.1927626  54.9419992  38.6174990  97.4949997
  54.0419992  38.7554990  97.7899997  55.1939992  39.4484990  97.0929997
  54.8527355  38.7488200  97.4810539 126.9429992   0.5804990  94.0139997
 127.0199992   0.1544990  94.8679997 127.8369992   0.5934990  93.6719997
 127.0743315   0.5240320  94.0845052  43.0079992  47.4044990  99.4689997
  42.7159992  48.1724990  98.9779997  42.3339992  46.7454990  99.3059997
  42.8768843  47.4204537  99.3797695  56.1319992  52.9834990  95.8719997
  56.2049992  53.9224990  96.0419997  57.0369992  52.6784990  95.8149997
  56.2644168  53.0708531  95.8875736  39.1009992  49.7674990 108.2839997
  38.5999992  49.7394990 107.4689997  39.1069992  48.8624990 108.5939997
  39.0331690  49.6412234 108.2142770  38.8519992  52.5484990 105.1679997
  39.7979992  52.4034990 105.1489997  38.7389992  53.3324990 105.7049997
  38.9663578  52.6346708 105.2380300  48.0279992  52.7884990 109.7259997
  48.1149992  53.6144990 110.2009997  47.1639992  52.4584990 109.9749997
  47.9231944  52.8569871 109.8246558  48.4419992  56.5604990  99.5319997
  48.3669992  56.4394990  98.5859997  48.4749992  57.5094990  99.6509997
  48.4361862  56.6722492  99.4184840  42.0959992  55.3494990 101.3129997
  42.2479992  55.0014990 102.1919997  41.2449992  54.9924990 101.0579997
  42.0017899  55.2536749 101.3987322  51.5439992  55.7144990  96.5349997
  51.9189992  54.9704990  96.0639997  51.5479992  55.4444990  97.4529997
  51.5958969  55.5760920  96.5946475  51.2129992  55.6404990  99.2839997
  50.2779992  55.7404990  99.4629997  51.4929992  54.9304990  99.8619997
  51.1229270  55.5582300  99.3865984  41.3499992  51.0914990 109.3269997
  41.5659992  50.7294990 110.1869997  40.4949992  50.7164990 109.1169997
  41.2639349  50.9912914 109.4162134 130.1199992  16.6524990  92.7069997
 129.3379992  16.4664990  92.1869997 130.0479992  17.5824990  92.9239997
 130.0032975  16.7526973  92.6651822  43.9689992  39.5614990 105.3229997
  43.1069992  39.4744990 104.9149997  43.9469992  40.4174990 105.7499997
  43.8480953  39.6653558 105.3249262  48.6319992  39.2834990 108.6969997
  49.0519992  38.8684990 109.4499997  47.6989992  39.1044990 108.8139997
  48.5633736  39.2024921 108.8158950  51.9579992  43.0384990 109.5509997
  51.4439992  42.9134990 110.3479997  51.8029992  43.9514990 109.3059997
  51.8666643  43.1447068 109.6270624  52.7209992  47.8994990  95.3119997
  52.7629992  47.6774990  94.3819997  53.5699992  48.2984990  95.5019997
  52.8415253  47.9230510  95.2103804  48.2939992  41.7754990  95.9819997
  48.0399992  41.7944990  96.9049997  48.0369992  40.9044990  95.6809997
  48.2245133  41.6603121  96.0675065  44.0599992  44.5264990 106.4179997
  43.4179992  44.4864990 107.1269997  44.0969992  45.4534990 106.1799997
  43.9771659  44.6462540 106.4828463  44.0569992  44.7474990 101.3299997
  43.1639992  44.4074990 101.2709997  44.5079992  44.3704990 100.5739997
  43.9957185  44.6500220 101.2197698  49.5929992  45.1634990 100.1469997
  49.1839992  45.9784990  99.8549997  50.3129992  45.0234990  99.5319997
  49.6343946  45.2559963 100.0239616  50.5969992  44.6094990 102.9609997
  50.4019992  45.2154990 102.2459997  50.7789992  43.7764990 102.5259997
  50.5949272  44.5797955 102.8044075  41.8099992  44.8474990 108.2849997
  41.7719992  45.2474990 109.1529997  41.3189992  44.0304990 108.3749997
  41.7384246  44.7918842 108.4161171 135.8269992   9.4084990  87.7489997
 135.8679992   8.7834990  88.4729997 136.5299992  10.0324990  87.9309997
 135.9276054   9.4073262  87.8726311  45.1759992  42.2214990  95.0829997
  44.7449992  41.7764990  95.8129997  44.4579992  42.5924990  94.5709997
  45.0199363  42.2107979  95.1136194  38.4179992  41.9634990 102.1349997
  39.0489992  41.9344990 102.8549997  38.8679992  41.5384990 101.4049997
  38.5650905  41.9020839 102.1347479  39.6919992  42.7094990  97.5589997
  40.1669992  43.3004990  96.9739997  38.9749992  43.2394990  97.9059997
  39.6600406  42.8621011  97.5258495  49.8609992  46.2474990 107.6319997
  50.1849992  45.6164990 106.9889997  49.4209992  45.7134990 108.2929997
  49.8458707  46.0888261 107.6333195  46.6389992  42.1754990 102.4159997
  45.7279992  42.2324990 102.7049997  47.1439992  42.1154990 103.2269997
  46.5826873  42.1751838 102.5651190  41.4669992  43.8044990 101.2429997
  40.5779992  43.9034990 100.9029997  41.7629992  42.9624990 100.8969997
  41.3854001  43.7042473 101.1497318  45.1199992  43.8044990  98.8989997
  46.0519992  43.9334990  99.0769997  44.9049992  44.4734990  98.2499997
  45.2184245  43.9126452  98.8355602  51.0439992  41.4104990 105.6799997
  50.3669992  41.5414990 106.3439997  50.5579992  41.2554990 104.8699997
  50.8857265  41.4074665 105.6613380  43.7939992  44.9984990  96.4659997
  43.2519992  44.6194990  95.7749997  44.6279992  45.1934990  96.0369997
  43.8324283  44.9729383  96.3134298  47.9589992  44.9624990 104.3029997
  48.5229992  44.4164990 103.7559997  47.8109992  44.4414990 105.0919997
  48.0163037  44.8171798 104.3347212 136.7509992  13.8584990  86.2839997
 136.3809992  13.0564990  85.9149997 137.6919992  13.6904990  86.3309997
 136.8275630  13.7258680  86.2397873  42.9609992  41.0994990 100.7209997
  42.6429992  40.1964990 100.6859997  43.7419992  41.1014990 100.1689997
  43.0231560  40.9761148 100.6414975  46.5849992  43.3514990 106.7169997
  45.7499992  43.8054990 106.8269997  47.1089992  43.6274990 107.4689997
  46.5415070  43.4509677 106.8337134  47.1289992  49.5644990  98.4019997
  46.3839992  49.0564990  98.0789997  46.9949992  49.6134990  99.3479997
  47.0088633  49.5015714  98.4857563  54.2789992  48.6974990 107.1879997
  54.9209992  49.1534990 106.6449997  53.4489992  48.8104990 106.7259997
  54.2547352  48.7753223 107.0510234  51.0269992  42.3784990  96.6009997
  50.0879992  42.4894990  96.4499997  51.3239992  43.2344990  96.9069997
  50.9386371  42.5095327  96.6217362  48.6489992  49.7484990 109.6389997
  48.3029992  49.3664990 110.4449997  48.4489992  50.6814990 109.7099997
  48.5745399  49.8223489 109.7590401  51.7449992  44.2454990  98.2619997
  52.6369992  44.1074990  98.5809997  51.8019992  45.0364990  97.7249997
  51.8747380  44.3334777  98.2330981  42.2539992  48.8594990 104.1709997
  42.9989992  48.8564990 103.5699997  42.3319992  48.0354990 104.6529997
  42.3664158  48.7477928 104.1539136  49.2549992  51.0224990  97.4269997
  48.9599992  51.8494990  97.8089997  48.5519992  50.4034990  97.6229997
  49.1195855  51.0519458  97.5057634  39.2619992  47.3194990 109.4859997
  39.4849992  46.9014990 110.3179997  38.6599992  46.7074990 109.0639997
  39.2110802  47.1795216 109.5427561 133.3609992   7.5184990  81.6769997
 132.9129992   8.3644990  81.6589997 132.7999992   6.9394990  81.1619997
 133.2238546   7.5559004  81.6048874  50.8989992  52.2104990 109.5889997
  49.9979992  52.3934990 109.3209997  50.9329992  52.4694990 110.5099997
  50.7803021  52.2705505 109.6768206  56.6299992  44.4544990  97.9559997
  56.0759992  44.0584990  97.2839997  56.7309992  45.3654990  97.6789997
  56.5677084  44.5233565  97.8264381  54.9249992  53.2404990  98.4209997
  54.5529992  52.4154990  98.7309997  55.2029992  53.0574990  97.5239997
  54.9115997  53.1026160  98.3421551  52.0859992  48.0484990 105.4429997
  51.1579992  47.8174990 105.4159997  52.5369992  47.2714990 105.1129997
  52.0198165  47.9117785 105.3946772  44.6289992  52.3774990 101.5759997
  45.1559992  53.1504990 101.3749997  43.7489992  52.6014990 101.2739997
  44.5821793  52.5136652 101.5076304  40.3839992  47.2394990  96.1629997
  40.9999992  47.8664990  96.5419997  39.5219992  47.5554990  96.4339997
  40.3518195  47.3680810  96.2515369  46.0559992  50.0404990 101.1519997
  45.8149992  50.9654990 101.1939997  45.3159992  49.5814990 101.5479997
  45.9228934  50.1050881 101.2113191  46.5709992  54.1894990 107.4669997
  46.9339992  55.0434990 107.2339997  47.1029992  53.8974990 108.2079997
  46.6925141  54.2668907 107.5352079  44.7389992  55.0614990 100.6969997
  43.7899992  55.1674990 100.7489997  45.0909992  55.8824990 101.0419997
  44.6566214  55.1869361 100.7507317  50.1149992  50.2884990 107.1679997
  49.6889992  50.0604990 107.9939997  50.6959992  49.5494990 106.9849997
  50.1351587  50.1574084 107.2564111 134.0709992   9.6804990  83.8029997
 134.2849992   8.9104990  84.3299997 134.8089992   9.7704990  83.1999997
 134.2000073   9.5873546  83.7935786  52.3179992  51.2174990  96.2419997
  52.6709992  50.8374990  97.0459997  51.3689992  51.1234990  96.3279997
  52.2380985  51.1527330  96.3637738  52.7739992  54.8404990 109.6369997
  52.1719992  54.2844990 109.1419997  53.0549992  55.5074990 109.0109997
  52.7295757  54.8545755 109.4845657  56.8209992  55.6964990  96.4429997
  57.5649992  56.2824990  96.3029997  56.1269992  56.2654990  96.7759997
  56.8289809  55.8535830  96.4688572  40.8959992  42.0734990 109.0439997
  40.0029992  42.4114990 108.9769997  40.7969992  41.2174990 109.4619997
  40.7605241  42.0040941 109.0912982  53.1839992  49.8894990  98.4679997
  52.9069992  49.1614990  99.0239997  54.1109992  50.0084990  98.6739997
  53.2714181  49.8060068  98.5718972  40.5469992  53.8774990 107.4789997
  40.7639992  52.9454990 107.4479997  40.7939992  54.1524990 108.3629997
  40.6100543  53.7870877 107.5941412  46.4089992  52.3294990  94.6889997
  46.6479992  51.5804990  94.1409997  46.1399992  51.9414990  95.5209997
  46.4052804  52.1746524  94.7266352  45.3459992  51.8994990  97.1449997
  45.4929992  51.3794990  97.9349997  45.3429992  52.8064990  97.4509997
  45.3657300  51.9508975  97.2945877  41.7989992  49.1514990  97.6549997
  41.1129992  49.5044990  98.2219997  42.3219992  49.9144990  97.4089997
  41.7759033  49.3028757  97.6992644  49.6299992  41.8144990 107.9339997
  50.3289992  41.8884990 108.5839997  49.2499992  40.9494990 108.0889997
  49.6742095  41.7077402 108.0437982 138.1439992   4.7224990  84.1619997
 138.1869992   5.5824990  83.7439997 137.6859992   4.1694990  83.5289997
 138.0879613   4.7655689  84.0191276  50.4149992  41.4664990  99.0309997
  50.6349992  41.9374990  98.2279997  50.9729992  41.8604990  99.7019997
  50.5205851  41.5843272  99.0116134  48.0839992  53.5964990  97.8939997
  47.2669992  54.0934990  97.9469997  48.6129992  54.0724990  97.2539997
  48.0437898  53.7288123  97.8147274  47.6149992  43.1944990  99.8659997
  48.4269992  43.6984990  99.9119997  47.3699992  43.0494990 100.7799997
  47.6931091  43.2439366  99.9958552  48.1509992  44.1804990 109.0509997
  48.2699992  44.7544990 109.8079997  48.8059992  43.4924990 109.1659997
  48.2558684  44.1660205 109.1701656  48.4989992  40.2754990 100.8039997
  48.1519992  40.8924990 101.4489997  49.1569992  40.7764990 100.3229997
  48.5405290  40.4276384 100.8271635  45.4219992  54.6404990  97.8759997
  45.5829992  55.4404990  97.3749997  45.2249992  54.9474990  98.7609997
  45.4173919  54.7914140  97.9270988  44.1559992  41.3384990  97.4919997
  44.0729992  42.2264990  97.8379997  45.0459992  41.0734990  97.7229997
  44.2649751  41.4242482  97.5706066  54.3549992  42.0874990 109.8859997
  53.4389992  42.3494990 109.7979997  54.6909992  42.0844990 108.9889997
  54.2749789  42.1229637 109.7527829  52.9569992  45.8374990 103.9819997
  52.1599992  45.4224990 103.6529997  53.4019992  45.1474990 104.4729997
  52.9080317  45.6873197 104.0033556  42.4149992  51.7654990  96.5519997
  43.0069992  52.4654990  96.8279997  42.8739992  51.3324990  95.8329997
  42.5581172  51.8027371  96.4925163 134.7639992   7.1194990  84.9239997
 135.4179992   6.5694990  85.3559997 134.7879992   6.8454990  84.0079997
 134.8567022   7.0072005  84.8591698  40.7309992  44.4304990  95.6679997
  40.6859992  45.3694990  95.8469997  39.8429992  44.1944990  95.3979997
  40.6048472  44.5271946  95.6560282  54.0439992  55.0934990 105.6039997
  53.8879992  55.7724990 104.9469997  54.9759992  55.1654990 105.8069997
  54.1487328  55.1961586 105.5415529  41.5389992  39.2114990 104.3409997
  41.3099992  39.2704990 103.4139997  41.0959992  38.4204990 104.6479997
  41.4477387  39.1126412 104.2555223  40.4689992  53.1524990 100.5019997
  39.6369992  53.6244990 100.5289997  41.0149992  53.6624990  99.9029997
  40.4288710  53.2860317 100.4247570  48.4469992  54.1924990  94.8269997
  47.8029992  53.5614990  95.1489997  49.2089992  53.6614990  94.5949997
  48.4618260  54.0343035  94.8397298  53.0509992  54.0094990  95.0609997
  53.3339992  53.2144990  95.5139997  53.7909992  54.2424990  94.4999997
  53.1897295  53.9322349  95.0471469  44.0059992  49.9184990  94.9179997
  44.0699992  49.1244990  95.4489997  44.6589992  49.8004990  94.2289997
  44.1031168  49.7937747  94.8975119  49.3579992  50.9654990  94.6539997
  49.0899992  51.1464990  95.5549997  49.1519992  50.0404990  94.5229997
  49.2934251  50.8651528  94.7596809  52.0549992  49.4604990 109.6019997
  52.7999992  50.0494990 109.4819997  51.2969992  50.0424990 109.6649997
  52.0545185  49.6197000 109.5940940  45.1549992  47.8914990  97.2239997
  44.6959992  47.4074990  97.9099997  45.4099992  47.2224990  96.5879997
  45.1266178  47.7348511  97.2319785 136.9539992   3.6404990  88.2359997
 136.7349992   4.1704990  87.4699997 136.2859992   3.8664990  88.8839997
 136.8337271   3.7436508  88.2186206  44.4439992  45.7844990 109.5799997
  43.8259992  46.4584990 109.8609997  44.7879992  46.1054990 108.7469997
  44.4058181  45.9203233 109.5058266  46.2259992  46.1344990  95.4869997
  46.0459992  45.9794990  94.5589997  47.1759992  46.2424990  95.5309997
  46.3298016  46.1279264  95.3662123  55.6159992  48.4884990  94.9319997
  55.3429992  48.0644990  94.1189997  55.6559992  49.4204990  94.7149997
  55.5840201  48.5563523  94.7913548  45.1959992  41.5084990 108.1549997
  45.7319992  41.9604990 107.5029997  44.3439992  41.4004990 107.7329997
  45.1541648  41.5557883 108.0086395  46.7779992  46.9484990 108.3949997
  47.5289992  46.7924990 107.8219997  46.4389992  47.8004990 108.1189997
  46.8349052  47.0422745 108.2793469  46.0019992  38.9654990 108.5869997
  45.9039992  39.9114990 108.4809997  45.2589992  38.5924990 108.1109997
  45.8882363  39.0445987 108.5082029  46.1239992  56.8244990  96.4879997
  47.0569992  56.9824990  96.6319997  45.8589992  57.5004990  95.8629997
  46.2159846  56.9374567  96.4232930  39.6919992  51.4614990  95.9709997
  40.6059992  51.5404990  96.2439997  39.6989992  50.7744990  95.3039997
  39.8180769  51.3794735  95.9182366  38.3409992  56.8544990 101.0479997
  37.6939992  56.3924990 100.5149997  38.6959992  56.1824990 101.6309997
  38.3003861  56.7004707 101.0537939  39.2109992  54.9344990 102.8529997
  38.8769992  54.0544990 103.0249997  39.4329992  55.2804990 103.7169997
  39.1952677  54.8607366 102.9934252 139.5229992  11.3154990  88.5239997
 138.7829992  11.9144990  88.6269997 140.2369992  11.8694990  88.2079997
 139.5183288  11.4722368  88.4953787  56.7599992  55.7444990 105.8329997
  56.7379992  55.9294990 106.7719997  57.4499992  56.3124990 105.4919997
  56.8503439  55.8466898 105.9154774  56.3229992  55.3114990 108.7549997
  55.8359992  54.5754990 108.3839997  56.8719992  54.9174990 109.4329997
  56.3306101  55.1576267 108.7959034  56.0749992  49.3574990  98.9069997
  56.9249992  49.7784990  99.0349997  56.0799992  48.6174990  99.5149997
  56.1919745  49.3151347  99.0066479  56.4689992  47.4114990 100.7309997
  55.7429992  46.9314990 101.1289997  57.0499992  47.6164990 101.4629997
  56.4482504  47.3735592 100.8844199  56.2279992  50.1964990 105.6789997
  57.0619992  49.8184990 105.3979997  56.3399992  51.1394990 105.5599997
  56.3571917  50.2722954 105.6244844  54.7139992  53.0744990 107.9859997
  54.0669992  53.3994990 108.6109997  54.1969992  52.6334990 107.3109997
  54.5554068  53.0594726 107.9804918  56.7369992  47.3124990  97.1219997
  56.2159992  47.6684990  96.4029997  56.7039992  47.9874990  97.7999997
  56.6611525  47.4525273  97.1151408  55.0859992  44.5514990  95.6729997
  55.1829992  45.2184990  94.9929997  54.9459992  43.7364990  95.1909997
  55.0803428  44.5325667  95.5148311  54.2559992  45.9324990 101.2939997
  54.1059992  44.9874990 101.2739997  53.9019992  46.2134990 102.1379997
  54.1876351  45.8411656 101.4053202  39.2909992  48.0104990 105.3039997
  39.4749992  47.9284990 104.3689997  40.1399992  47.8864990 105.7279997
  39.4310259  47.9824915 105.2331771 136.5479992   5.5324990  86.1889997
 137.1609992   6.1654990  86.5619997 137.0599992   5.0604990  85.5319997
 136.7011680   5.5554006  86.1512830  54.3339992  41.9594990  94.7899997
  54.9439992  41.5884990  95.4269997  53.4969992  41.5384990  94.9859997
  54.3043704  41.8517942  94.9037077  53.9659992  43.5144990  99.7559997
  54.2459992  42.6074990  99.8809997  54.7249992  43.9484990  99.3669997
  54.1069471  43.4490654  99.7205052  54.5779992  44.0964990 105.1919997
  55.5109992  44.3084990 105.1579997  54.3429992  44.1974990 106.1149997
  54.6738357  44.1391303 105.3120232  54.6069992  44.8334990 107.9679997
  53.7639992  45.1014990 108.3339997  55.0499992  45.6554990 107.7569997
  54.5514358  44.9813294 107.9895999  54.5799992  40.7774990  99.8049997
  54.7619992  40.3284990 100.6299997  53.9799992  40.1934990  99.3409997
  54.5238187  40.6370563  99.8552721  40.1099992  41.5934990 104.3359997
  40.5549992  40.8014990 104.6379997  40.5759992  42.3094990 104.7669997
  40.2339059  41.5819485 104.4356061  38.4139992  44.5924990 105.4049997
  38.9059992  44.3714990 104.6149997  38.7759992  45.4324990 105.6859997
  38.5303429  44.6758220 105.3347918  56.4459992  40.8454990  96.3329997
  56.8589992  40.1244990  95.8569997  57.1279992  41.5144990  96.3909997
  56.5945712  40.8374304  96.2758247  38.7269992  40.8504990  99.4599997
  37.8019992  41.0584990  99.3299997  39.1809992  41.3344990  98.7699997
  38.6617401  40.9443895  99.3489433  53.4979992  55.8344990 101.4049997
  54.1499992  55.4864990 100.7969997  54.0089992  56.3224990 102.0509997
  53.6562872  55.8528248 101.4090964 137.9299992  13.2804990  89.3109997
 137.9249992  14.1594990  88.9329997 137.0769992  13.1964990  89.7359997
 137.8139199  13.3895901  89.3166942  38.6909992  39.5884990 107.8039997
  38.0259992  39.3424990 108.4469997  38.2479992  40.2104990 107.2269997
  38.5401168  39.6389225 107.8139830  43.8369992  53.7374990 108.2069997
  43.4119992  54.5474990 107.9239997  44.7409992  53.8234990 107.9049997
  43.9011002  53.8598728 108.1274798  55.4109992  39.0124990 109.4899997
  54.5979992  39.3374990 109.1019997  55.6439992  38.2514990 108.9569997
  55.3312566  38.9541570 109.3649196  41.2389992  56.9944990 108.2539997
  40.5179992  57.4344990 107.8029997  40.8729992  56.7434990 109.1029997
  41.0909785  57.0207691 108.3069849  43.7059992  56.5944990 107.2839997
  42.8409992  56.6664990 107.6879997  43.6509992  57.1414990 106.4999997
  43.5802066  56.6782678 107.2333371  48.4169992  56.4824990 106.4599997
  47.9599992  57.0114990 105.8059997  48.5789992  57.0854990 107.1849997
  48.3763919  56.6363990 106.4685740  50.7439992  55.3604990 107.4049997
  49.8399992  55.5254990 107.1389997  51.1729992  56.2134990 107.3389997
  50.6782017  55.4984184 107.3596495  53.3479992  56.9304990 107.6999997
  53.1669992  57.8464990 107.4889997  53.5249992  56.5194990 106.8529997
  53.3471377  57.0003365 107.5567178  40.6539992  55.6174990 105.1649997
  40.6349992  55.1914990 106.0219997  41.4579992  55.2984990 104.7559997
  40.7601393  55.5160297 105.2270155  42.7949992  54.3274990 103.8199997
  42.5759992  53.4104990 103.9889997  43.6189992  54.4674990 104.2859997
  42.8764637  54.2209586 103.9061414 134.0519992  12.9514990  80.0929997
 133.7799992  13.1804990  79.2039997 134.0969992  13.7884990  80.5529997
 134.0208709  13.0961069  80.0336089  45.3319992  54.7974990 104.6679997
  45.5449992  53.9094990 104.3809997  45.3969992  54.7624990 105.6229997
  45.3699075  54.6713318 104.7577355  48.8409992  40.4614990 103.8129997
  48.1659992  39.8314990 104.0679997  49.4049992  39.9774990 103.2099997
  48.8249558  40.3099283 103.7663451  53.9829992  38.5684990 103.9249997
  54.5869992  39.1164990 103.4239997  53.1139992  38.8874990 103.6849997
  53.9481126  38.6867070 103.8239180  55.7099992  39.7074990 102.2589997
  56.3219992  39.1934990 101.7319997  56.0929992  40.5844990 102.2819997
  55.8453867  39.7557613 102.1900888  41.1669992  39.0954990 101.6349997
  40.3899992  38.8604990 101.1269997  41.6979992  38.2984990 101.6439997
  41.1324443  38.9556721 101.5667200  40.0039992  38.8934990  97.4379997
  40.4429992  39.5044990  96.8469997  39.3699992  39.4314990  97.9119997
  39.9784103  39.0499233  97.4211376  45.7469992  39.0214990 101.4479997
  46.6209992  39.4104990 101.4179997  45.6109992  38.8064990 102.3709997
  45.8483125  39.0457120 101.5686523  51.3029992  39.0514990 103.0969997
  51.3799992  39.1474990 102.1479997  51.0279992  38.1444990 103.2259997
  51.2763407  38.9419188 102.9843532  52.6569992  39.0774990  98.7899997
  51.9539992  39.6924990  98.5799997  52.2119992  38.2404990  98.9209997
  52.5006550  39.0484679  98.7789819  39.9049992  54.8414990  98.3359997
  39.2199992  54.8034990  97.6679997  39.9079992  55.7534990  98.6239997
  39.8117358  54.9596744  98.2836145 138.2979992  10.6234990  83.0239997
 137.9679992  10.2524990  82.2049997 138.8859992   9.9524990  83.3699997
 138.3324056  10.4821257  82.9589035  41.8649992  40.8094990  95.8809997
  42.3559992  40.1794990  95.3529997  42.4879992  41.1054990  96.5439997
  42.0165459  40.7632419  95.8983667  46.8909992  41.1024990  98.3379997
  47.0689992  40.4554990  99.0209997  46.8369992  41.9364990  98.8049997
  46.9080678  41.1266615  98.4946283  48.7689992  56.0504990  96.7329997
  49.6349992  56.4174990  96.5549997  48.5219992  55.6114990  95.9199997
  48.8542041  56.0413648  96.5985958  55.4779992  55.6134990  99.4129997
  55.2839992  54.8654990  98.8479997  55.4389992  56.3714990  98.8289997
  55.4461907  55.6135770  99.2568077  41.7229992  55.7614990  95.3609997
  41.4549992  56.0474990  96.2339997  42.4939992  55.2154990  95.5129997
  41.7905600  55.7268341  95.5011482  69.1019992  48.2514990 101.5929997
  69.1909992  49.1954990 101.4609997  68.4629992  47.9764990 100.9349997
  69.0278319  48.3434984 101.4860276  68.0349992  47.5064990 105.0119997
  67.9959992  46.8604990 105.7169997  67.7119992  47.0394990 104.2409997
  67.9860199  47.3550089 105.0042865  60.4029992  47.1204990 106.6049997
  60.4439992  46.4954990 107.3289997  61.1059992  47.7444990 106.7869997
  60.5036054  47.1193262 106.7286311  71.7409992  50.4454990 103.3139997
  71.2999992  49.7254990 103.7639997  71.7279992  51.1664990 103.9439997
  71.6788398  50.4443187 103.4607734  61.3269992  51.5704990 105.1399997
  60.9569992  50.7684990 104.7709997  62.2679992  51.4024990 105.1869997
  61.4035630  51.4378680 105.0957873 138.6649992   9.3914990  86.6569997
 139.2299992   9.5134990  85.8939997 138.9829992  10.0294990  87.2959997
 138.7853430   9.4944448  86.6389094  57.9369992  45.2304990 100.5329997
  57.4889992  46.0764990 100.5149997  57.3759992  44.6514990 100.0179997
  57.7998546  45.2679004 100.4608874  58.6469992  47.3924990 102.6589997
  58.8609992  46.6224990 103.1859997  59.3849992  47.4824990 102.0559997
  58.7760073  47.2993546 102.6495786  68.8519992  55.5494990 103.5259997
  69.4719992  54.8734990 103.2529997  68.6439992  55.3314990 104.4339997
  68.9087360  55.4274792 103.6114387  66.4239992  49.9384990 105.4179997
  66.7279992  49.2524990 104.8239997  67.1459992  50.0574990 106.0359997
  66.5631152  49.8607201 105.4202106  75.0869992  41.5404990 106.2789997
  75.1359992  42.1504990 107.0149997  75.5129992  42.0014990 105.5559997
  75.1512851  41.6863266 106.2820532  69.5649992  44.3324990 105.7459997
  69.7069992  43.3864990 105.7659997  69.4589992  44.5394990 104.8169997
  69.5701158  44.2309722 105.6232241  62.7199992  42.4344990 103.0179997
  62.7629992  43.2944990 102.5999997  62.2619992  41.8814990 102.3849997
  62.6639613  42.4775689 102.8751276  70.4419992  42.5654990 101.4189997
  71.0879992  42.2364990 102.0439997  70.9519992  43.0824990 100.7959997
  70.5994392  42.5903710 101.4203248  59.3399992  44.8314990 103.7799997
  59.9939992  44.2814990 104.2119997  59.3639992  44.5574990 102.8639997
  59.4327022  44.7192005 103.7151698  64.4959992  46.3814990 102.9959997
  65.1119992  45.8544990 103.5049997  63.9099992  45.7414990 102.5919997
  64.5010652  46.2228919 103.0110277 139.5449992  13.7914990  91.3739997
 139.2329992  14.5734990  91.8299997 138.8949992  13.6384990  90.6879997
 139.4144643  13.8778019  91.3436657  75.4789992  43.0184990 108.5149997
  74.7899992  43.6764990 108.4199997  75.4939992  42.8204990 109.4519997
  75.3867756  43.0817614 108.6285795  61.5299992  41.3524990 107.0919997
  61.3109992  41.8824990 106.3259997  60.8619992  41.5784990 107.7399997
  61.4097271  41.4556508 107.0746206  68.8989992  50.8524990 100.6359997
  68.6029992  50.5294990  99.7849997  68.5749992  51.7524990 100.6779997
  68.8146501  50.9299058 100.5250893  64.0989992  49.0274990 107.3799997
  63.3589992  49.6264990 107.4829997  64.8129992  49.5814990 107.0639997
  64.0943288  49.1842368 107.3513787  72.2059992  41.8564990 103.3999997
  71.9909992  41.0904990 103.9319997  72.8619992  42.3284990 103.9129997
  72.2652451  41.8154472 103.5421699  61.1239992  43.2444990 105.0449997
  61.7369992  43.8774990 105.4179997  61.6359992  42.7724990 104.3879997
  61.2771680  43.2674006 105.0072830  62.5059992  50.9924990 108.1669997
  62.5009992  51.8714990 107.7889997  61.6529992  50.9084990 108.5919997
  62.3899199  51.1015901 108.1726942  58.6279992  50.6634990  98.9489997
  58.3559992  50.8924990  98.0599997  58.6729992  51.5004990  99.4089997
  58.5968709  50.8081069  98.8896089  72.2529992  52.2844990 105.6619997
  71.3109992  52.3434990 105.8229997  72.5289992  53.1904990 105.5249997
  72.1615771  52.4150270 105.6654827  72.5529992  40.5714990 107.0789997
  71.8169992  41.1814990 107.0409997  73.2369992  40.9864990 106.5529997
  72.5445885  40.7111924 107.0026931 136.4649992   9.9894990  90.6029997
 136.5349992  10.6404990  91.3009997 135.5739992  10.0924990  90.2679997
 136.3541802  10.0924769  90.6532231  65.5559992  38.6574990 104.5449997
  65.4389992  37.7094990 104.4909997  64.7009992  38.9904990 104.8179997
  65.4243691  38.5725842 104.5745072  70.5049992  54.0654990 102.2869997
  70.9299992  53.3584990 101.8019997  70.8219992  54.8674990 101.8699997
  70.6060266  54.0770201 102.1642461  71.6639992  51.9664990 100.7959997
  71.4069992  51.2764990 100.1839997  71.7349992  51.5234990 101.6409997
  71.6384322  51.8121568 100.8265372  73.3499992  50.5334990 109.2729997
  73.4899992  49.9414990 108.5339997  73.5179992  51.4064990 108.9169997
  73.3918734  50.5704041 109.1236937  67.8229992  47.4954990  99.0449997
  67.1109992  48.0304990  98.6939997  68.5139992  47.5504990  98.3849997
  67.8188696  47.5762591  98.9076372  67.8769992  45.9524990  96.0839997
  68.5779992  45.9754990  96.7349997  68.1789992  45.3244990  95.4279997
  68.0138282  45.8707350  96.0844478  75.1919992  46.8734990 107.3389997
  74.5399992  47.5674990 107.4279997  75.6569992  47.0834990 106.5289997
  75.1655357  46.9969544 107.2417056  71.2289992  47.7044990  99.9969997
  70.4969992  47.9334990 100.5699997  71.6759992  46.9914990 100.4519997
  71.1892753  47.6393984 100.1369698  71.1259992  45.8794990 109.0649997
  71.2059992  46.6424990 109.6369997  70.5249992  46.1584990 108.3739997
  71.0557115  46.0217707 109.0499631  62.8739992  48.3354990 101.8799997
  62.5439992  47.9644990 101.0609997  63.4619992  47.6644990 102.2259997
  62.9084056  48.1941257 101.8149035 137.7839992  15.8624990  92.1379997
 137.7919992  15.7264990  91.1899997 136.8679992  15.7454990  92.3899997
 137.6612512  15.8280663  92.0423179  64.2409992  51.7634990 104.5609997
  64.1459992  51.1844990 103.8039997  64.9699992  51.3924990 105.0569997
  64.3266161  51.6340902 104.5245192  63.2409992  47.1034990 105.5129997
  63.8059992  47.2254990 104.7499997  63.5589992  47.7414990 106.1519997
  63.3613430  47.2064448 105.4949094  69.5499992  52.6074990 106.2469997
  69.3089992  53.2694990 106.8949997  69.3519992  51.7724990 106.6719997
  69.4902662  52.5852704 106.3931008  70.0999992  46.8674990  97.6819997
  70.6789992  47.0174990  98.4289997  70.5139992  47.3374990  96.9589997
  70.2353122  46.9516288  97.6865024  61.0409992  47.7014990 109.4589997
  61.1109992  48.3524990 110.1569997  60.1499992  47.8044990 109.1239997
  60.9301802  47.8044769 109.5092231  67.8259992  53.6034990 101.1179997
  68.2999992  53.8994990 101.8949997  67.2629992  54.3424990 100.8839997
  67.8148460  53.7438336 101.1927626  73.7979992  38.6174990  97.4949997
  72.8979992  38.7554990  97.7899997  74.0499992  39.4484990  97.0929997
  73.7087355  38.7488200  97.4810539  61.8639992  47.4044990  99.4689997
  61.5719992  48.1724990  98.9779997  61.1899992  46.7454990  99.3059997
  61.7328843  47.4204537  99.3797695  74.9879992  52.9834990  95.8719997
  75.0609992  53.9224990  96.0419997  75.8929992  52.6784990  95.8149997
  75.1204168  53.0708531  95.8875736  57.9569992  49.7674990 108.2839997
  57.4559992  49.7394990 107.4689997  57.9629992  48.8624990 108.5939997
  57.8891690  49.6412234 108.2142770 137.2879992   9.6924990  80.6129997
 136.9959992  10.4604990  80.1219997 136.6139992   9.0334990  80.4499997
 137.1568843   9.7084537  80.5237695  57.7079992  52.5484990 105.1679997
  58.6539992  52.4034990 105.1489997  57.5949992  53.3324990 105.7049997
  57.8223578  52.6346708 105.2380300  66.8839992  52.7884990 109.7259997
  66.9709992  53.6144990 110.2009997  66.0199992  52.4584990 109.9749997
  66.7791944  52.8569871 109.8246558  67.2979992  56.5604990  99.5319997
  67.2229992  56.4394990  98.5859997  67.3309992  57.5094990  99.6509997
  67.2921862  56.6722492  99.4184840  60.9519992  55.3494990 101.3129997
  61.1039992  55.0014990 102.1919997  60.1009992  54.9924990 101.0579997
  60.8577899  55.2536749 101.3987322  70.3999992  55.7144990  96.5349997
  70.7749992  54.9704990  96.0639997  70.4039992  55.4444990  97.4529997
  70.4518969  55.5760920  96.5946475  70.0689992  55.6404990  99.2839997
  69.1339992  55.7404990  99.4629997  70.3489992  54.9304990  99.8619997
  69.9789270  55.5582300  99.3865984  60.2059992  51.0914990 109.3269997
  60.4219992  50.7294990 110.1869997  59.3509992  50.7164990 109.1169997
  60.1199349  50.9912914 109.4162134  62.8249992  39.5614990 105.3229997
  61.9629992  39.4744990 104.9149997  62.8029992  40.4174990 105.7499997
  62.7040953  39.6653558 105.3249262  67.4879992  39.2834990 108.6969997
  67.9079992  38.8684990 109.4499997  66.5549992  39.1044990 108.8139997
  67.4193736  39.2024921 108.8158950  70.8139992  43.0384990 109.5509997
  70.2999992  42.9134990 110.3479997  70.6589992  43.9514990 109.3059997
  70.7226643  43.1447068 109.6270624 133.3809992  12.0554990  89.4279997
 132.8799992  12.0274990  88.6129997 133.3869992  11.1504990  89.7379997
 133.3131690  11.9292234  89.3582770  71.5769992  47.8994990  95.3119997
  71.6189992  47.6774990  94.3819997  72.4259992  48.2984990  95.5019997
  71.6975253  47.9230510  95.2103804  67.1499992  41.7754990  95.9819997
  66.8959992  41.7944990  96.9049997  66.8929992  40.9044990  95.6809997
  67.0805133  41.6603121  96.0675065  62.9159992  44.5264990 106.4179997
  62.2739992  44.4864990 107.1269997  62.9529992  45.4534990 106.1799997
  62.8331659  44.6462540 106.4828463  62.9129992  44.7474990 101.3299997
  62.0199992  44.4074990 101.2709997  63.3639992  44.3704990 100.5739997
  62.8517185  44.6500220 101.2197698  68.4489992  45.1634990 100.1469997
  68.0399992  45.9784990  99.8549997  69.1689992  45.0234990  99.5319997
  68.4903946  45.2559963 100.0239616  69.4529992  44.6094990 102.9609997
  69.2579992  45.2154990 102.2459997  69.6349992  43.7764990 102.5259997
  69.4509272  44.5797955 102.8044075  60.6659992  44.8474990 108.2849997
  60.6279992  45.2474990 109.1529997  60.1749992  44.0304990 108.3749997
  60.5944246  44.7918842 108.4161171  64.0319992  42.2214990  95.0829997
  63.6009992  41.7764990  95.8129997  63.3139992  42.5924990  94.5709997
  63.8759363  42.2107979  95.1136194  57.2739992  41.9634990 102.1349997
  57.9049992  41.9344990 102.8549997  57.7239992  41.5384990 101.4049997
  57.4210905  41.9020839 102.1347479  58.5479992  42.7094990  97.5589997
  59.0229992  43.3004990  96.9739997  57.8309992  43.2394990  97.9059997
  58.5160406  42.8621011  97.5258495 133.1319992  14.8364990  86.3119997
 134.0779992  14.6914990  86.2929997 133.0189992  15.6204990  86.8489997
 133.2463578  14.9226708  86.3820300  68.7169992  46.2474990 107.6319997
  69.0409992  45.6164990 106.9889997  68.2769992  45.7134990 108.2929997
  68.7018707  46.0888261 107.6333195  65.4949992  42.1754990 102.4159997
  64.5839992  42.2324990 102.7049997  65.9999992  42.1154990 103.2269997
  65.4386873  42.1751838 102.5651190  60.3229992  43.8044990 101.2429997
  59.4339992  43.9034990 100.9029997  60.6189992  42.9624990 100.8969997
  60.2414001  43.7042473 101.1497318  63.9759992  43.8044990  98.8989997
  64.9079992  43.9334990  99.0769997  63.7609992  44.4734990  98.2499997
  64.0744245  43.9126452  98.8355602  69.8999992  41.4104990 105.6799997
  69.2229992  41.5414990 106.3439997  69.4139992  41.2554990 104.8699997
  69.7417265  41.4074665 105.6613380  62.6499992  44.9984990  96.4659997
  62.1079992  44.6194990  95.7749997  63.4839992  45.1934990  96.0369997
  62.6884283  44.9729383  96.3134298  66.8149992  44.9624990 104.3029997
  67.3789992  44.4164990 103.7559997  66.6669992  44.4414990 105.0919997
  66.8723037  44.8171798 104.3347212  61.8169992  41.0994990 100.7209997
  61.4989992  40.1964990 100.6859997  62.5979992  41.1014990 100.1689997
  61.8791560  40.9761148 100.6414975  65.4409992  43.3514990 106.7169997
  64.6059992  43.8054990 106.8269997  65.9649992  43.6274990 107.4689997
  65.3975070  43.4509677 106.8337134  65.9849992  49.5644990  98.4019997
  65.2399992  49.0564990  98.0789997  65.8509992  49.6134990  99.3479997
  65.8648633  49.5015714  98.4857563 136.3759992  17.6374990  82.4569997
 136.5279992  17.2894990  83.3359997 135.5249992  17.2804990  82.2019997
 136.2817899  17.5416749  82.5427322  73.1349992  48.6974990 107.1879997
  73.7769992  49.1534990 106.6449997  72.3049992  48.8104990 106.7259997
  73.1107352  48.7753223 107.0510234  69.8829992  42.3784990  96.6009997
  68.9439992  42.4894990  96.4499997  70.1799992  43.2344990  96.9069997
  69.7946371  42.5095327  96.6217362  67.5049992  49.7484990 109.6389997
  67.1589992  49.3664990 110.4449997  67.3049992  50.6814990 109.7099997
  67.4305399  49.8223489 109.7590401  70.6009992  44.2454990  98.2619997
  71.4929992  44.1074990  98.5809997  70.6579992  45.0364990  97.7249997
  70.7307380  44.3334777  98.2330981  61.1099992  48.8594990 104.1709997
  61.8549992  48.8564990 103.5699997  61.1879992  48.0354990 104.6529997
  61.2224158  48.7477928 104.1539136  68.1109992  51.0224990  97.4269997
  67.8159992  51.8494990  97.8089997  67.4079992  50.4034990  97.6229997
  67.9755855  51.0519458  97.5057634  58.1179992  47.3194990 109.4859997
  58.3409992  46.9014990 110.3179997  57.5159992  46.7074990 109.0639997
  58.0670802  47.1795216 109.5427561  69.7549992  52.2104990 109.5889997
  68.8539992  52.3934990 109.3209997  69.7889992  52.4694990 110.5099997
  69.6363021  52.2705505 109.6768206  75.4859992  44.4544990  97.9559997
  74.9319992  44.0584990  97.2839997  75.5869992  45.3654990  97.6789997
  75.4237084  44.5233565  97.8264381  73.7809992  53.2404990  98.4209997
  73.4089992  52.4154990  98.7309997  74.0589992  53.0574990  97.5239997
  73.7675997  53.1026160  98.3421551 135.6299992  13.3794990  90.4709997
 135.8459992  13.0174990  91.3309997 134.7749992  13.0044990  90.2609997
 135.5439349  13.2792914  90.5602134  70.9419992  48.0484990 105.4429997
  70.0139992  47.8174990 105.4159997  71.3929992  47.2714990 105.1129997
  70.8758165  47.9117785 105.3946772  63.4849992  52.3774990 101.5759997
  64.0119992  53.1504990 101.3749997  62.6049992  52.6014990 101.2739997
  63.4381793  52.5136652 101.5076304  59.2399992  47.2394990  96.1629997
  59.8559992  47.8664990  96.5419997  58.3779992  47.5554990  96.4339997
  59.2078195  47.3680810  96.2515369  64.9119992  50.0404990 101.1519997
  64.6709992  50.9654990 101.1939997  64.1719992  49.5814990 101.5479997
  64.7788934  50.1050881 101.2113191  65.4269992  54.1894990 107.4669997
  65.7899992  55.0434990 107.2339997  65.9589992  53.8974990 108.2079997
  65.5485141  54.2668907 107.5352079  63.5949992  55.0614990 100.6969997
  62.6459992  55.1674990 100.7489997  63.9469992  55.8824990 101.0419997
  63.5126214  55.1869361 100.7507317  68.9709992  50.2884990 107.1679997
  68.5449992  50.0604990 107.9939997  69.5519992  49.5494990 106.9849997
  68.9911587  50.1574084 107.2564111  71.1739992  51.2174990  96.2419997
  71.5269992  50.8374990  97.0459997  70.2249992  51.1234990  96.3279997
  71.0940985  51.1527330  96.3637738  71.6299992  54.8404990 109.6369997
  71.0279992  54.2844990 109.1419997  71.9109992  55.5074990 109.0109997
  71.5855757  54.8545755 109.4845657  75.6769992  55.6964990  96.4429997
  76.4209992  56.2824990  96.3029997  74.9829992  56.2654990  96.7759997
  75.6849809  55.8535830  96.4688572 138.2489992   1.8494990  86.4669997
 137.3869992   1.7624990  86.0589997 138.2269992   2.7054990  86.8939997
 138.1280953   1.9533558  86.4689262  59.7519992  42.0734990 109.0439997
  58.8589992  42.4114990 108.9769997  59.6529992  41.2174990 109.4619997
  59.6165241  42.0040941 109.0912982  72.0399992  49.8894990  98.4679997
  71.7629992  49.1614990  99.0239997  72.9669992  50.0084990  98.6739997
  72.1274181  49.8060068  98.5718972  59.4029992  53.8774990 107.4789997
  59.6199992  52.9454990 107.4479997  59.6499992  54.1524990 108.3629997
  59.4660543  53.7870877 107.5941412  65.2649992  52.3294990  94.6889997
  65.5039992  51.5804990  94.1409997  64.9959992  51.9414990  95.5209997
  65.2612804  52.1746524  94.7266352  64.2019992  51.8994990  97.1449997
  64.3489992  51.3794990  97.9349997  64.1989992  52.8064990  97.4509997
  64.2217300  51.9508975  97.2945877  60.6549992  49.1514990  97.6549997
  59.9689992  49.5044990  98.2219997  61.1779992  49.9144990  97.4089997
  60.6319033  49.3028757  97.6992644  68.4859992  41.8144990 107.9339997
  69.1849992  41.8884990 108.5839997  68.1059992  40.9494990 108.0889997
  68.5302095  41.7077402 108.0437982  69.2709992  41.4664990  99.0309997
  69.4909992  41.9374990  98.2279997  69.8289992  41.8604990  99.7019997
  69.3765851  41.5843272  99.0116134  66.9399992  53.5964990  97.8939997
  66.1229992  54.0934990  97.9469997  67.4689992  54.0724990  97.2539997
  66.8997898  53.7288123  97.8147274  66.4709992  43.1944990  99.8659997
  67.2829992  43.6984990  99.9119997  66.2259992  43.0494990 100.7799997
  66.5491091  43.2439366  99.9958552 138.3399992   6.8144990  87.5619997
 137.6979992   6.7744990  88.2709997 138.3769992   7.7414990  87.3239997
 138.2571659   6.9342540  87.6268463  67.0069992  44.1804990 109.0509997
  67.1259992  44.7544990 109.8079997  67.6619992  43.4924990 109.1659997
  67.1118684  44.1660205 109.1701656  67.3549992  40.2754990 100.8039997
  67.0079992  40.8924990 101.4489997  68.0129992  40.7764990 100.3229997
  67.3965290  40.4276384 100.8271635  64.2779992  54.6404990  97.8759997
  64.4389992  55.4404990  97.3749997  64.0809992  54.9474990  98.7609997
  64.2733919  54.7914140  97.9270988  63.0119992  41.3384990  97.4919997
  62.9289992  42.2264990  97.8379997  63.9019992  41.0734990  97.7229997
  63.1209751  41.4242482  97.5706066  73.2109992  42.0874990 109.8859997
  72.2949992  42.3494990 109.7979997  73.5469992  42.0844990 108.9889997
  73.1309789  42.1229637 109.7527829  71.8129992  45.8374990 103.9819997
  71.0159992  45.4224990 103.6529997  72.2579992  45.1474990 104.4729997
  71.7640317  45.6873197 104.0033557  61.2709992  51.7654990  96.5519997
  61.8629992  52.4654990  96.8279997  61.7299992  51.3324990  95.8329997
  61.4141172  51.8027371  96.4925163  59.5869992  44.4304990  95.6679997
  59.5419992  45.3694990  95.8469997  58.6989992  44.1944990  95.3979997
  59.4608472  44.5271946  95.6560282  72.8999992  55.0934990 105.6039997
  72.7439992  55.7724990 104.9469997  73.8319992  55.1654990 105.8069997
  73.0047328  55.1961586 105.5415529  60.3949992  39.2114990 104.3409997
  60.1659992  39.2704990 103.4139997  59.9519992  38.4204990 104.6479997
  60.3037387  39.1126413 104.2555223 138.3369992   7.0354990  82.4739997
 137.4439992   6.6954990  82.4149997 138.7879992   6.6584990  81.7179997
 138.2757185   6.9380220  82.3637698  59.3249992  53.1524990 100.5019997
  58.4929992  53.6244990 100.5289997  59.8709992  53.6624990  99.9029997
  59.2848710  53.2860317 100.4247570  67.3029992  54.1924990  94.8269997
  66.6589992  53.5614990  95.1489997  68.0649992  53.6614990  94.5949997
  67.3178260  54.0343035  94.8397298  71.9069992  54.0094990  95.0609997
  72.1899992  53.2144990  95.5139997  72.6469992  54.2424990  94.4999997
  72.0457295  53.9322349  95.0471469  62.8619992  49.9184990  94.9179997
  62.9259992  49.1244990  95.4489997  63.5149992  49.8004990  94.2289997
  62.9591168  49.7937747  94.8975119  68.2139992  50.9654990  94.6539997
  67.9459992  51.1464990  95.5549997  68.0079992  50.0404990  94.5229997
  68.1494251  50.8651528  94.7596809  70.9109992  49.4604990 109.6019997
  71.6559992  50.0494990 109.4819997  70.1529992  50.0424990 109.6649997
  70.9105185  49.6197000 109.5940940  64.0109992  47.8914990  97.2239997
  63.5519992  47.4074990  97.9099997  64.2659992  47.2224990  96.5879997
  63.9826178  47.7348511  97.2319785  63.2999992  45.7844990 109.5799997
  62.6819992  46.4584990 109.8609997  63.6439992  46.1054990 108.7469997
  63.2618181  45.9203233 109.5058266  65.0819992  46.1344990  95.4869997
  64.9019992  45.9794990  94.5589997  66.0319992  46.2424990  95.5309997
  65.1858016  46.1279264  95.3662123  74.4719992  48.4884990  94.9319997
  74.1989992  48.0644990  94.1189997  74.5119992  49.4204990  94.7149997
  74.4400201  48.5563523  94.7913548 136.0899992   7.1354990  89.4289997
 136.0519992   7.5354990  90.2969997 135.5989992   6.3184990  89.5189997
 136.0184246   7.0798842  89.5601171  64.0519992  41.5084990 108.1549997
  64.5879992  41.9604990 107.5029997  63.1999992  41.4004990 107.7329997
  64.0101648  41.5557883 108.0086395  65.6339992  46.9484990 108.3949997
  66.3849992  46.7924990 107.8219997  65.2949992  47.8004990 108.1189997
  65.6909052  47.0422745 108.2793469  64.8579992  38.9654990 108.5869997
  64.7599992  39.9114990 108.4809997  64.1149992  38.5924990 108.1109997
  64.7442363  39.0445987 108.5082029  64.9799992  56.8244990  96.4879997
  65.9129992  56.9824990  96.6319997  64.7149992  57.5004990  95.8629997
  65.0719846  56.9374567  96.4232930  58.5479992  51.4614990  95.9709997
  59.4619992  51.5404990  96.2439997  58.5549992  50.7744990  95.3039997
  58.6740769  51.3794735  95.9182366  57.1969992  56.8544990 101.0479997
  56.5499992  56.3924990 100.5149997  57.5519992  56.1824990 101.6309997
  57.1563861  56.7004707 101.0537939  58.0669992  54.9344990 102.8529997
  57.7329992  54.0544990 103.0249997  58.2889992  55.2804990 103.7169997
  58.0512677  54.8607366 102.9934252  75.6159992  55.7444990 105.8329997
  75.5939992  55.9294990 106.7719997  76.3059992  56.3124990 105.4919997
  75.7063439  55.8466898 105.9154774  75.1789992  55.3114990 108.7549997
  74.6919992  54.5754990 108.3839997  75.7279992  54.9174990 109.4329997
  75.1866101  55.1576267 108.7959034  74.9309992  49.3574990  98.9069997
  75.7809992  49.7784990  99.0349997  74.9359992  48.6174990  99.5149997
  75.0479745  49.3151347  99.0066479 139.4559992   4.5094990  76.2269997
 139.0249992   4.0644990  76.9569997 138.7379992   4.8804990  75.7149997
 139.2999363   4.4987979  76.2576194  75.3249992  47.4114990 100.7309997
  74.5989992  46.9314990 101.1289997  75.9059992  47.6164990 101.4629997
  75.3042504  47.3735592 100.8844199  75.0839992  50.1964990 105.6789997
  75.9179992  49.8184990 105.3979997  75.1959992  51.1394990 105.5599997
  75.2131917  50.2722954 105.6244844  73.5699992  53.0744990 107.9859997
  72.9229992  53.3994990 108.6109997  73.0529992  52.6334990 107.3109997
  73.4114068  53.0594726 107.9804918  75.5929992  47.3124990  97.1219997
  75.0719992  47.6684990  96.4029997  75.5599992  47.9874990  97.7999997
  75.5171525  47.4525273  97.1151408  73.9419992  44.5514990  95.6729997
  74.0389992  45.2184990  94.9929997  73.8019992  43.7364990  95.1909997
  73.9363428  44.5325667  95.5148311  73.1119992  45.9324990 101.2939997
  72.9619992  44.9874990 101.2739997  72.7579992  46.2134990 102.1379997
  73.0436351  45.8411656 101.4053202  58.1469992  48.0104990 105.3039997
  58.3309992  47.9284990 104.3689997  58.9959992  47.8864990 105.7279997
  58.2870259  47.9824915 105.2331771  73.1899992  41.9594990  94.7899997
  73.7999992  41.5884990  95.4269997  72.3529992  41.5384990  94.9859997
  73.1603704  41.8517942  94.9037077  72.8219992  43.5144990  99.7559997
  73.1019992  42.6074990  99.8809997  73.5809992  43.9484990  99.3669997
  72.9629471  43.4490654  99.7205052  73.4339992  44.0964990 105.1919997
  74.3669992  44.3084990 105.1579997  73.1989992  44.1974990 106.1149997
  73.5298357  44.1391303 105.3120232 132.6979992   4.2514990  83.2789997
 133.3289992   4.2224990  83.9989997 133.1479992   3.8264990  82.5489997
 132.8450905   4.1900839  83.2787479  73.4629992  44.8334990 107.9679997
  72.6199992  45.1014990 108.3339997  73.9059992  45.6554990 107.7569997
  73.4074358  44.9813294 107.9895999  73.4359992  40.7774990  99.8049997
  73.6179992  40.3284990 100.6299997  72.8359992  40.1934990  99.3409997
  73.3798187  40.6370563  99.8552721  58.9659992  41.5934990 104.3359997
  59.4109992  40.8014990 104.6379997  59.4319992  42.3094990 104.7669997
  59.0899059  41.5819485 104.4356061  57.2699992  44.5924990 105.4049997
  57.7619992  44.3714990 104.6149997  57.6319992  45.4324990 105.6859997
  57.3863429  44.6758220 105.3347918  75.3019992  40.8454990  96.3329997
  75.7149992  40.1244990  95.8569997  75.9839992  41.5144990  96.3909997
  75.4505712  40.8374304  96.2758247  57.5829992  40.8504990  99.4599997
  56.6579992  41.0584990  99.3299997  58.0369992  41.3344990  98.7699997
  57.5177401  40.9443895  99.3489433  72.3539992  55.8344990 101.4049997
  73.0059992  55.4864990 100.7969997  72.8649992  56.3224990 102.0509997
  72.5122872  55.8528248 101.4090964  57.5469992  39.5884990 107.8039997
  56.8819992  39.3424990 108.4469997  57.1039992  40.2104990 107.2269997
  57.3961168  39.6389225 107.8139830  62.6929992  53.7374990 108.2069997
  62.2679992  54.5474990 107.9239997  63.5969992  53.8234990 107.9049997
  62.7571002  53.8598728 108.1274798  74.2669992  39.0124990 109.4899997
  73.4539992  39.3374990 109.1019997  74.4999992  38.2514990 108.9569997
  74.1872566  38.9541570 109.3649196 133.9719992   4.9974990  78.7029997
 134.4469992   5.5884990  78.1179997 133.2549992   5.5274990  79.0499997
 133.9400406   5.1501011  78.6698495  60.0949992  56.9944990 108.2539997
  59.3739992  57.4344990 107.8029997  59.7289992  56.7434990 109.1029997
  59.9469785  57.0207691 108.3069849  62.5619992  56.5944990 107.2839997
  61.6969992  56.6664990 107.6879997  62.5069992  57.1414990 106.4999997
  62.4362066  56.6782678 107.2333371  67.2729992  56.4824990 106.4599997
  66.8159992  57.0114990 105.8059997  67.4349992  57.0854990 107.1849997
  67.2323919  56.6363990 106.4685740  69.5999992  55.3604990 107.4049997
  68.6959992  55.5254990 107.1389997  70.0289992  56.2134990 107.3389997
  69.5342017  55.4984184 107.3596495  72.2039992  56.9304990 107.6999997
  72.0229992  57.8464990 107.4889997  72.3809992  56.5194990 106.8529997
  72.2031377  57.0003365 107.5567178  59.5099992  55.6174990 105.1649997
  59.4909992  55.1914990 106.0219997  60.3139992  55.2984990 104.7559997
  59.6161393  55.5160297 105.2270155  61.6509992  54.3274990 103.8199997
  61.4319992  53.4104990 103.9889997  62.4749992  54.4674990 104.2859997
  61.7324637  54.2209586 103.9061414  64.1879992  54.7974990 104.6679997
  64.4009992  53.9094990 104.3809997  64.2529992  54.7624990 105.6229997
  64.2259075  54.6713318 104.7577355  67.6969992  40.4614990 103.8129997
  67.0219992  39.8314990 104.0679997  68.2609992  39.9774990 103.2099997
  67.6809558  40.3099283 103.7663451  72.8389992  38.5684990 103.9249997
  73.4429992  39.1164990 103.4239997  71.9699992  38.8874990 103.6849997
  72.8041126  38.6867070 103.8239180 135.7469992   6.0924990  82.3869997
 134.8579992   6.1914990  82.0469997 136.0429992   5.2504990  82.0409997
 135.6654001   5.9922473  82.2937318  74.5659992  39.7074990 102.2589997
  75.1779992  39.1934990 101.7319997  74.9489992  40.5844990 102.2819997
  74.7013867  39.7557613 102.1900888  60.0229992  39.0954990 101.6349997
  59.2459992  38.8604990 101.1269997  60.5539992  38.2984990 101.6439997
  59.9884443  38.9556721 101.5667200  58.8599992  38.8934990  97.4379997
  59.2989992  39.5044990  96.8469997  58.2259992  39.4314990  97.9119997
  58.8344103  39.0499233  97.4211376  64.6029992  39.0214990 101.4479997
  65.4769992  39.4104990 101.4179997  64.4669992  38.8064990 102.3709997
  64.7043125  39.0457120 101.5686523  70.1589992  39.0514990 103.0969997
  70.2359992  39.1474990 102.1479997  69.8839992  38.1444990 103.2259997
  70.1323407  38.9419188 102.9843532  71.5129992  39.0774990  98.7899997
  70.8099992  39.6924990  98.5799997  71.0679992  38.2404990  98.9209997
  71.3566550  39.0484679  98.7789819  58.7609992  54.8414990  98.3359997
  58.0759992  54.8034990  97.6679997  58.7639992  55.7534990  98.6239997
  58.6677358  54.9596744  98.2836145  60.7209992  40.8094990  95.8809997
  61.2119992  40.1794990  95.3529997  61.3439992  41.1054990  96.5439997
  60.8725459  40.7632419  95.8983667  65.7469992  41.1024990  98.3379997
  65.9249992  40.4554990  99.0209997  65.6929992  41.9364990  98.8049997
  65.7640678  41.1266615  98.4946283  67.6249992  56.0504990  96.7329997
  68.4909992  56.4174990  96.5549997  67.3779992  55.6114990  95.9199997
  67.7102041  56.0413648  96.5985958 139.3999992   6.0924990  80.0429997
 140.3319992   6.2214990  80.2209997 139.1849992   6.7614990  79.3939997
 139.4984245   6.2006452  79.9795602  74.3339992  55.6134990  99.4129997
  74.1399992  54.8654990  98.8479997  74.2949992  56.3714990  98.8289997
  74.3021907  55.6135770  99.2568077  60.5789992  55.7614990  95.3609997
  60.3109992  56.0474990  96.2339997  61.3499992  55.2154990  95.5129997
  60.6465600  55.7268341  95.5011482  87.9579992  48.2514990 101.5929997
  88.0469992  49.1954990 101.4609997  87.3189992  47.9764990 100.9349997
  87.8838319  48.3434984 101.4860276  86.8909992  47.5064990 105.0119997
  86.8519992  46.8604990 105.7169997  86.5679992  47.0394990 104.2409997
  86.8420199  47.3550089 105.0042865  79.2589992  47.1204990 106.6049997
  79.2999992  46.4954990 107.3289997  79.9619992  47.7444990 106.7869997
  79.3596054  47.1193262 106.7286311  90.5969992  50.4454990 103.3139997
  90.1559992  49.7254990 103.7639997  90.5839992  51.1664990 103.9439997
  90.5348398  50.4443187 103.4607734  80.1829992  51.5704990 105.1399997
  79.8129992  50.7684990 104.7709997  81.1239992  51.4024990 105.1869997
  80.2595630  51.4378680 105.0957873  76.7929992  45.2304990 100.5329997
  76.3449992  46.0764990 100.5149997  76.2319992  44.6514990 100.0179997
  76.6558546  45.2679004 100.4608874  77.5029992  47.3924990 102.6589997
  77.7169992  46.6224990 103.1859997  78.2409992  47.4824990 102.0559997
  77.6320073  47.2993546 102.6495786  87.7079992  55.5494990 103.5259997
  88.3279992  54.8734990 103.2529997  87.4999992  55.3314990 104.4339997
  87.7647360  55.4274792 103.6114387 138.0739992   7.2864990  77.6099997
 137.5319992   6.9074990  76.9189997 138.9079992   7.4814990  77.1809997
 138.1124283   7.2609383  77.4574298  85.2799992  49.9384990 105.4179997
  85.5839992  49.2524990 104.8239997  86.0019992  50.0574990 106.0359997
  85.4191152  49.8607201 105.4202106  93.9429992  41.5404990 106.2789997
  93.9919992  42.1504990 107.0149997  94.3689992  42.0014990 105.5559997
  94.0072851  41.6863266 106.2820532  88.4209992  44.3324990 105.7459997
  88.5629992  43.3864990 105.7659997  88.3149992  44.5394990 104.8169997
  88.4261158  44.2309722 105.6232241  81.5759992  42.4344990 103.0179997
  81.6189992  43.2944990 102.5999997  81.1179992  41.8814990 102.3849997
  81.5199613  42.4775689 102.8751276  89.2979992  42.5654990 101.4189997
  89.9439992  42.2364990 102.0439997  89.8079992  43.0824990 100.7959997
  89.4554392  42.5903710 101.4203248  78.1959992  44.8314990 103.7799997
  78.8499992  44.2814990 104.2119997  78.2199992  44.5574990 102.8639997
  78.2887022  44.7192005 103.7151698  83.3519992  46.3814990 102.9959997
  83.9679992  45.8544990 103.5049997  82.7659992  45.7414990 102.5919997
  83.3570652  46.2228919 103.0110277  94.3349992  43.0184990 108.5149997
  93.6459992  43.6764990 108.4199997  94.3499992  42.8204990 109.4519997
  94.2427756  43.0817614 108.6285795  80.3859992  41.3524990 107.0919997
  80.1669992  41.8824990 106.3259997  79.7179992  41.5784990 107.7399997
  80.2657271  41.4556508 107.0746206  87.7549992  50.8524990 100.6359997
  87.4589992  50.5294990  99.7849997  87.4309992  51.7524990 100.6779997
  87.6706501  50.9299058 100.5250893 136.2089992  11.8434990  92.7089997
 136.9409992  12.0984990  93.2699997 135.4289992  12.0484990  93.2239997
 136.2037684  11.9061457  92.8554774  82.9549992  49.0274990 107.3799997
  82.2149992  49.6264990 107.4829997  83.6689992  49.5814990 107.0639997
  82.9503288  49.1842368 107.3513787  91.0619992  41.8564990 103.3999997
  90.8469992  41.0904990 103.9319997  91.7179992  42.3284990 103.9129997
  91.1212451  41.8154472 103.5421699  79.9799992  43.2444990 105.0449997
  80.5929992  43.8774990 105.4179997  80.4919992  42.7724990 104.3879997
  80.1331680  43.2674006 105.0072830  81.3619992  50.9924990 108.1669997
  81.3569992  51.8714990 107.7889997  80.5089992  50.9084990 108.5919997
  81.2459199  51.1015901 108.1726942  77.4839992  50.6634990  98.9489997
  77.2119992  50.8924990  98.0599997  77.5289992  51.5004990  99.4089997
  77.4528709  50.8081069  98.8896089  91.1089992  52.2844990 105.6619997
  90.1669992  52.3434990 105.8229997  91.3849992  53.1904990 105.5249997
  91.0175771  52.4150270 105.6654827  91.4089992  40.5714990 107.0789997
  90.6729992  41.1814990 107.0409997  92.0929992  40.9864990 106.5529997
  91.4005885  40.7111924 107.0026931  84.4119992  38.6574990 104.5449997
  84.2949992  37.7094990 104.4909997  83.5569992  38.9904990 104.8179997
  84.2803691  38.5725842 104.5745072  89.3609992  54.0654990 102.2869997
  89.7859992  53.3584990 101.8019997  89.6779992  54.8674990 101.8699997
  89.4620266  54.0770201 102.1642461  90.5199992  51.9664990 100.7959997
  90.2629992  51.2764990 100.1839997  90.5909992  51.5234990 101.6409997
  90.4944322  51.8121568 100.8265372 137.2409992   3.3874990  81.8649997
 136.9229992   2.4844990  81.8299997 138.0219992   3.3894990  81.3129997
 137.3031560   3.2641148  81.7854975  92.2059992  50.5334990 109.2729997
  92.3459992  49.9414990 108.5339997  92.3739992  51.4064990 108.9169997
  92.2478734  50.5704041 109.1236937  86.6789992  47.4954990  99.0449997
  85.9669992  48.0304990  98.6939997  87.3699992  47.5504990  98.3849997
  86.6748696  47.5762591  98.9076372  86.7329992  45.9524990  96.0839997
  87.4339992  45.9754990  96.7349997  87.0349992  45.3244990  95.4279997
  86.8698282  45.8707350  96.0844478  94.0479992  46.8734990 107.3389997
  93.3959992  47.5674990 107.4279997  94.5129992  47.0834990 106.5289997
  94.0215357  46.9969544 107.2417056  90.0849992  47.7044990  99.9969997
  89.3529992  47.9334990 100.5699997  90.5319992  46.9914990 100.4519997
  90.0452753  47.6393984 100.1369698  89.9819992  45.8794990 109.0649997
  90.0619992  46.6424990 109.6369997  89.3809992  46.1584990 108.3739997
  89.9117115  46.0217707 109.0499631  81.7299992  48.3354990 101.8799997
  81.3999992  47.9644990 101.0609997  82.3179992  47.6644990 102.2259997
  81.7644056  48.1941257 101.8149035  83.0969992  51.7634990 104.5609997
  83.0019992  51.1844990 103.8039997  83.8259992  51.3924990 105.0569997
  83.1826161  51.6340902 104.5245192  82.0969992  47.1034990 105.5129997
  82.6619992  47.2254990 104.7499997  82.4149992  47.7414990 106.1519997
  82.2173430  47.2064448 105.4949094  88.4059992  52.6074990 106.2469997
  88.1649992  53.2694990 106.8949997  88.2079992  51.7724990 106.6719997
  88.3462662  52.5852704 106.3931008 136.5339992  11.1474990  85.3149997
 137.2789992  11.1444990  84.7139997 136.6119992  10.3234990  85.7969997
 136.6464158  11.0357928  85.2979136  88.9559992  46.8674990  97.6819997
  89.5349992  47.0174990  98.4289997  89.3699992  47.3374990  96.9589997
  89.0913122  46.9516288  97.6865024  79.8969992  47.7014990 109.4589997
  79.9669992  48.3524990 110.1569997  79.0059992  47.8044990 109.1239997
  79.7861802  47.8044769 109.5092231  86.6819992  53.6034990 101.1179997
  87.1559992  53.8994990 101.8949997  86.1189992  54.3424990 100.8839997
  86.6708460  53.7438336 101.1927626  92.6539992  38.6174990  97.4949997
  91.7539992  38.7554990  97.7899997  92.9059992  39.4484990  97.0929997
  92.5647355  38.7488200  97.4810539  80.7199992  47.4044990  99.4689997
  80.4279992  48.1724990  98.9779997  80.0459992  46.7454990  99.3059997
  80.5888843  47.4204537  99.3797695  93.8439992  52.9834990  95.8719997
  93.9169992  53.9224990  96.0419997  94.7489992  52.6784990  95.8149997
  93.9764168  53.0708531  95.8875736  76.8129992  49.7674990 108.2839997
  76.3119992  49.7394990 107.4689997  76.8189992  48.8624990 108.5939997
  76.7451690  49.6412234 108.2142770  76.5639992  52.5484990 105.1679997
  77.5099992  52.4034990 105.1489997  76.4509992  53.3324990 105.7049997
  76.6783578  52.6346708 105.2380300  85.7399992  52.7884990 109.7259997
  85.8269992  53.6144990 110.2009997  84.8759992  52.4584990 109.9749997
  85.6351944  52.8569871 109.8246558  86.1539992  56.5604990  99.5319997
  86.0789992  56.4394990  98.5859997  86.1869992  57.5094990  99.6509997
  86.1481862  56.6722492  99.4184840 133.5419992   9.6074990  90.6299997
 133.7649992   9.1894990  91.4619997 132.9399992   8.9954990  90.2079997
 133.4910802   9.4675216  90.6867561  79.8079992  55.3494990 101.3129997
  79.9599992  55.0014990 102.1919997  78.9569992  54.9924990 101.0579997
  79.7137899  55.2536749 101.3987322  89.2559992  55.7144990  96.5349997
  89.6309992  54.9704990  96.0639997  89.2599992  55.4444990  97.4529997
  89.3078969  55.5760920  96.5946475  88.9249992  55.6404990  99.2839997
  87.9899992  55.7404990  99.4629997  89.2049992  54.9304990  99.8619997
  88.8349270  55.5582300  99.3865984  79.0619992  51.0914990 109.3269997
  79.2779992  50.7294990 110.1869997  78.2069992  50.7164990 109.1169997
  78.9759349  50.9912914 109.4162134  81.6809992  39.5614990 105.3229997
  80.8189992  39.4744990 104.9149997  81.6589992  40.4174990 105.7499997
  81.5600953  39.6653558 105.3249262  86.3439992  39.2834990 108.6969997
  86.7639992  38.8684990 109.4499997  85.4109992  39.1044990 108.8139997
  86.2753736  39.2024921 108.8158950  89.6699992  43.0384990 109.5509997
  89.1559992  42.9134990 110.3479997  89.5149992  43.9514990 109.3059997
  89.5786643  43.1447068 109.6270624  90.4329992  47.8994990  95.3119997
  90.4749992  47.6774990  94.3819997  91.2819992  48.2984990  95.5019997
  90.5535253  47.9230510  95.2103804  86.0059992  41.7754990  95.9819997
  85.7519992  41.7944990  96.9049997  85.7489992  40.9044990  95.6809997
  85.9365133  41.6603121  96.0675065  81.7719992  44.5264990 106.4179997
  81.1299992  44.4864990 107.1269997  81.8089992  45.4534990 106.1799997
  81.6891659  44.6462540 106.4828463 138.9089992  14.6654990  82.7199997
 139.4359992  15.4384990  82.5189997 138.0289992  14.8894990  82.4179997
 138.8621793  14.8016652  82.6516304  81.7689992  44.7474990 101.3299997
  80.8759992  44.4074990 101.2709997  82.2199992  44.3704990 100.5739997
  81.7077185  44.6500220 101.2197698  87.3049992  45.1634990 100.1469997
  86.8959992  45.9784990  99.8549997  88.0249992  45.0234990  99.5319997
  87.3463946  45.2559963 100.0239616  88.3089992  44.6094990 102.9609997
  88.1139992  45.2154990 102.2459997  88.4909992  43.7764990 102.5259997
  88.3069272  44.5797955 102.8044075  79.5219992  44.8474990 108.2849997
  79.4839992  45.2474990 109.1529997  79.0309992  44.0304990 108.3749997
  79.4504246  44.7918842 108.4161171  82.8879992  42.2214990  95.0829997
  82.4569992  41.7764990  95.8129997  82.1699992  42.5924990  94.5709997
  82.7319363  42.2107979  95.1136194  76.1299992  41.9634990 102.1349997
  76.7609992  41.9344990 102.8549997  76.5799992  41.5384990 101.4049997
  76.2770905  41.9020839 102.1347479  77.4039992  42.7094990  97.5589997
  77.8789992  43.3004990  96.9739997  76.6869992  43.2394990  97.9059997
  77.3720406  42.8621011  97.5258495  87.5729992  46.2474990 107.6319997
  87.8969992  45.6164990 106.9889997  87.1329992  45.7134990 108.2929997
  87.5578707  46.0888261 107.6333195  84.3509992  42.1754990 102.4159997
  83.4399992  42.2324990 102.7049997  84.8559992  42.1154990 103.2269997
  84.2946873  42.1751838 102.5651190  79.1789992  43.8044990 101.2429997
  78.2899992  43.9034990 100.9029997  79.4749992  42.9624990 100.8969997
  79.0974001  43.7042473 101.1497318 139.0189992  17.3494990  81.8409997
 138.0699992  17.4554990  81.8929997 139.3709992  18.1704990  82.1859997
 138.9366214  17.4749361  81.8947317  82.8319992  43.8044990  98.8989997
  83.7639992  43.9334990  99.0769997  82.6169992  44.4734990  98.2499997
  82.9304245  43.9126452  98.8355602  88.7559992  41.4104990 105.6799997
  88.0789992  41.5414990 106.3439997  88.2699992  41.2554990 104.8699997
  88.5977265  41.4074665 105.6613380  81.5059992  44.9984990  96.4659997
  80.9639992  44.6194990  95.7749997  82.3399992  45.1934990  96.0369997
  81.5444283  44.9729383  96.3134298  85.6709992  44.9624990 104.3029997
  86.2349992  44.4164990 103.7559997  85.5229992  44.4414990 105.0919997
  85.7283037  44.8171798 104.3347212  80.6729992  41.0994990 100.7209997
  80.3549992  40.1964990 100.6859997  81.4539992  41.1014990 100.1689997
  80.7351560  40.9761148 100.6414975  84.2969992  43.3514990 106.7169997
  83.4619992  43.8054990 106.8269997  84.8209992  43.6274990 107.4689997
  84.2535070  43.4509677 106.8337134  84.8409992  49.5644990  98.4019997
  84.0959992  49.0564990  98.0789997  84.7069992  49.6134990  99.3479997
  84.7208633  49.5015714  98.4857563  91.9909992  48.6974990 107.1879997
  92.6329992  49.1534990 106.6449997  91.1609992  48.8104990 106.7259997
  91.9667352  48.7753223 107.0510234  88.7389992  42.3784990  96.6009997
  87.7999992  42.4894990  96.4499997  89.0359992  43.2344990  96.9069997
  88.6506371  42.5095327  96.6217362  86.3609992  49.7484990 109.6389997
  86.0149992  49.3664990 110.4449997  86.1609992  50.6814990 109.7099997
  86.2865399  49.8223489 109.7590401 135.1759992   4.3614990  90.1879997
 134.2829992   4.6994990  90.1209997 135.0769992   3.5054990  90.6059997
 135.0405241   4.2920941  90.2352982  89.4569992  44.2454990  98.2619997
  90.3489992  44.1074990  98.5809997  89.5139992  45.0364990  97.7249997
  89.5867380  44.3334777  98.2330981  79.9659992  48.8594990 104.1709997
  80.7109992  48.8564990 103.5699997  80.0439992  48.0354990 104.6529997
  80.0784158  48.7477928 104.1539136  86.9669992  51.0224990  97.4269997
  86.6719992  51.8494990  97.8089997  86.2639992  50.4034990  97.6229997
  86.8315855  51.0519458  97.5057634  76.9739992  47.3194990 109.4859997
  77.1969992  46.9014990 110.3179997  76.3719992  46.7074990 109.0639997
  76.9230802  47.1795216 109.5427561  88.6109992  52.2104990 109.5889997
  87.7099992  52.3934990 109.3209997  88.6449992  52.4694990 110.5099997
  88.4923021  52.2705505 109.6768206  94.3419992  44.4544990  97.9559997
  93.7879992  44.0584990  97.2839997  94.4429992  45.3654990  97.6789997
  94.2797084  44.5233565  97.8264381  92.6369992  53.2404990  98.4209997
  92.2649992  52.4154990  98.7309997  92.9149992  53.0574990  97.5239997
  92.6235997  53.1026160  98.3421551  89.7979992  48.0484990 105.4429997
  88.8699992  47.8174990 105.4159997  90.2489992  47.2714990 105.1129997
  89.7318165  47.9117785 105.3946772  82.3409992  52.3774990 101.5759997
  82.8679992  53.1504990 101.3749997  81.4609992  52.6014990 101.2739997
  82.2941793  52.5136652 101.5076304  78.0959992  47.2394990  96.1629997
  78.7119992  47.8664990  96.5419997  77.2339992  47.5554990  96.4339997
  78.0638195  47.3680810  96.2515369 134.8269992  16.1654990  88.6229997
 135.0439992  15.2334990  88.5919997 135.0739992  16.4404990  89.5069997
 134.8900543  16.0750877  88.7381412  83.7679992  50.0404990 101.1519997
  83.5269992  50.9654990 101.1939997  83.0279992  49.5814990 101.5479997
  83.6348934  50.1050881 101.2113191  84.2829992  54.1894990 107.4669997
  84.6459992  55.0434990 107.2339997  84.8149992  53.8974990 108.2079997
  84.4045141  54.2668907 107.5352079  82.4509992  55.0614990 100.6969997
  81.5019992  55.1674990 100.7489997  82.8029992  55.8824990 101.0419997
  82.3686214  55.1869361 100.7507317  87.8269992  50.2884990 107.1679997
  87.4009992  50.0604990 107.9939997  88.4079992  49.5494990 106.9849997
  87.8471587  50.1574084 107.2564111  90.0299992  51.2174990  96.2419997
  90.3829992  50.8374990  97.0459997  89.0809992  51.1234990  96.3279997
  89.9500985  51.1527330  96.3637738  90.4859992  54.8404990 109.6369997
  89.8839992  54.2844990 109.1419997  90.7669992  55.5074990 109.0109997
  90.4415757  54.8545755 109.4845657  94.5329992  55.6964990  96.4429997
  95.2769992  56.2824990  96.3029997  93.8389992  56.2654990  96.7759997
  94.5409809  55.8535830  96.4688572  78.6079992  42.0734990 109.0439997
  77.7149992  42.4114990 108.9769997  78.5089992  41.2174990 109.4619997
  78.4725241  42.0040941 109.0912982  90.8959992  49.8894990  98.4679997
  90.6189992  49.1614990  99.0239997  91.8229992  50.0084990  98.6739997
  90.9834181  49.8060068  98.5718972  78.2589992  53.8774990 107.4789997
  78.4759992  52.9454990 107.4479997  78.5059992  54.1524990 108.3629997
  78.3220543  53.7870877 107.5941412 138.4359992   3.6264990  78.6359997
 138.3529992   4.5144990  78.9819997 139.3259992   3.3614990  78.8669997
 138.5449751   3.7122482  78.7146066  84.1209992  52.3294990  94.6889997
  84.3599992  51.5804990  94.1409997  83.8519992  51.9414990  95.5209997
  84.1172804  52.1746524  94.7266352  83.0579992  51.8994990  97.1449997
  83.2049992  51.3794990  97.9349997  83.0549992  52.8064990  97.4509997
  83.0777300  51.9508975  97.2945877  79.5109992  49.1514990  97.6549997
  78.8249992  49.5044990  98.2219997  80.0339992  49.9144990  97.4089997
  79.4879033  49.3028757  97.6992644  87.3419992  41.8144990 107.9339997
  88.0409992  41.8884990 108.5839997  86.9619992  40.9494990 108.0889997
  87.3862095  41.7077402 108.0437982  88.1269992  41.4664990  99.0309997
  88.3469992  41.9374990  98.2279997  88.6849992  41.8604990  99.7019997
  88.2325851  41.5843272  99.0116134  85.7959992  53.5964990  97.8939997
  84.9789992  54.0934990  97.9469997  86.3249992  54.0724990  97.2539997
  85.7557898  53.7288123  97.8147274  85.3269992  43.1944990  99.8659997
  86.1389992  43.6984990  99.9119997  85.0819992  43.0494990 100.7799997
  85.4051091  43.2439366  99.9958552  85.8629992  44.1804990 109.0509997
  85.9819992  44.7544990 109.8079997  86.5179992  43.4924990 109.1659997
  85.9678684  44.1660205 109.1701656  86.2109992  40.2754990 100.8039997
  85.8639992  40.8924990 101.4489997  86.8689992  40.7764990 100.3229997
  86.2525290  40.4276384 100.8271635  83.1339992  54.6404990  97.8759997
  83.2949992  55.4404990  97.3749997  82.9369992  54.9474990  98.7609997
  83.1293919  54.7914140  97.9270988 136.6949992  14.0534990  77.6959997
 137.2869992  14.7534990  77.9719997 137.1539992  13.6204990  76.9769997
 136.8381172  14.0907371  77.6365163  81.8679992  41.3384990  97.4919997
  81.7849992  42.2264990  97.8379997  82.7579992  41.0734990  97.7229997
  81.9769751  41.4242482  97.5706066  92.0669992  42.0874990 109.8859997
  91.1509992  42.3494990 109.7979997  92.4029992  42.0844990 108.9889997
  91.9869789  42.1229637 109.7527829  90.6689992  45.8374990 103.9819997
  89.8719992  45.4224990 103.6529997  91.1139992  45.1474990 104.4729997
  90.6200317  45.6873197 104.0033556  80.1269992  51.7654990  96.5519997
  80.7189992  52.4654990  96.8279997  80.5859992  51.3324990  95.8329997
  80.2701172  51.8027371  96.4925163  78.4429992  44.4304990  95.6679997
  78.3979992  45.3694990  95.8469997  77.5549992  44.1944990  95.3979997
  78.3168472  44.5271946  95.6560282  91.7559992  55.0934990 105.6039997
  91.5999992  55.7724990 104.9469997  92.6879992  55.1654990 105.8069997
  91.8607328  55.1961586 105.5415529  79.2509992  39.2114990 104.3409997
  79.0219992  39.2704990 103.4139997  78.8079992  38.4204990 104.6479997
  79.1597387  39.1126413 104.2555223  78.1809992  53.1524990 100.5019997
  77.3489992  53.6244990 100.5289997  78.7269992  53.6624990  99.9029997
  78.1408710  53.2860317 100.4247570  86.1589992  54.1924990  94.8269997
  85.5149992  53.5614990  95.1489997  86.9209992  53.6614990  94.5949997
  86.1738260  54.0343035  94.8397298  90.7629992  54.0094990  95.0609997
  91.0459992  53.2144990  95.5139997  91.5029992  54.2424990  94.4999997
  90.9017295  53.9322349  95.0471469 135.8189992   1.4994990  85.4849997
 135.5899992   1.5584990  84.5579997 135.3759992   0.7084990  85.7919997
 135.7277387   1.4006412  85.3995223  81.7179992  49.9184990  94.9179997
  81.7819992  49.1244990  95.4489997  82.3709992  49.8004990  94.2289997
  81.8151168  49.7937748  94.8975119  87.0699992  50.9654990  94.6539997
  86.8019992  51.1464990  95.5549997  86.8639992  50.0404990  94.5229997
  87.0054251  50.8651528  94.7596809  89.7669992  49.4604990 109.6019997
  90.5119992  50.0494990 109.4819997  89.0089992  50.0424990 109.6649997
  89.7665185  49.6197000 109.5940940  82.8669992  47.8914990  97.2239997
  82.4079992  47.4074990  97.9099997  83.1219992  47.2224990  96.5879997
  82.8386178  47.7348511  97.2319785  82.1559992  45.7844990 109.5799997
  81.5379992  46.4584990 109.8609997  82.4999992  46.1054990 108.7469997
  82.1178181  45.9203233 109.5058266  83.9379992  46.1344990  95.4869997
  83.7579992  45.9794990  94.5589997  84.8879992  46.2424990  95.5309997
  84.0418016  46.1279264  95.3662123  93.3279992  48.4884990  94.9319997
  93.0549992  48.0644990  94.1189997  93.3679992  49.4204990  94.7149997
  93.2960201  48.5563523  94.7913548  82.9079992  41.5084990 108.1549997
  83.4439992  41.9604990 107.5029997  82.0559992  41.4004990 107.7329997
  82.8661648  41.5557883 108.0086395  84.4899992  46.9484990 108.3949997
  85.2409992  46.7924990 107.8219997  84.1509992  47.8004990 108.1189997
  84.5469052  47.0422745 108.2793469  83.7139992  38.9654990 108.5869997
  83.6159992  39.9114990 108.4809997  82.9709992  38.5924990 108.1109997
  83.6002363  39.0445987 108.5082029 134.7489992  15.4404990  81.6459997
 133.9169992  15.9124990  81.6729997 135.2949992  15.9504990  81.0469997
 134.7088710  15.5740317  81.5687570  83.8359992  56.8244990  96.4879997
  84.7689992  56.9824990  96.6319997  83.5709992  57.5004990  95.8629997
  83.9279846  56.9374567  96.4232930  77.4039992  51.4614990  95.9709997
  78.3179992  51.5404990  96.2439997  77.4109992  50.7744990  95.3039997
  77.5300769  51.3794735  95.9182366  76.0529992  56.8544990 101.0479997
  75.4059992  56.3924990 100.5149997  76.4079992  56.1824990 101.6309997
  76.0123861  56.7004707 101.0537939  76.9229992  54.9344990 102.8529997
  76.5889992  54.0544990 103.0249997  77.1449992  55.2804990 103.7169997
  76.9072677  54.8607366 102.9934252  94.4719992  55.7444990 105.8329997
  94.4499992  55.9294990 106.7719997  95.1619992  56.3124990 105.4919997
  94.5623439  55.8466898 105.9154774  94.0349992  55.3114990 108.7549997
  93.5479992  54.5754990 108.3839997  94.5839992  54.9174990 109.4329997
  94.0426101  55.1576267 108.7959034  93.7869992  49.3574990  98.9069997
  94.6369992  49.7784990  99.0349997  93.7919992  48.6174990  99.5149997
  93.9039745  49.3151347  99.0066479  94.1809992  47.4114990 100.7309997
  93.4549992  46.9314990 101.1289997  94.7619992  47.6164990 101.4629997
  94.1602504  47.3735592 100.8844199  93.9399992  50.1964990 105.6789997
  94.7739992  49.8184990 105.3979997  94.0519992  51.1394990 105.5599997
  94.0691917  50.2722954 105.6244844  92.4259992  53.0744990 107.9859997
  91.7789992  53.3994990 108.6109997  91.9089992  52.6334990 107.3109997
  92.2674068  53.0594726 107.9804918 134.0379992  18.0524990  92.9759997
 134.5779992  17.8364990  93.7349997 133.5559992  17.2474990  92.7859997
 134.0469101  17.9140216  93.0544364  94.4489992  47.3124990  97.1219997
  93.9279992  47.6684990  96.4029997  94.4159992  47.9874990  97.7999997
  94.3731525  47.4525273  97.1151408  92.7979992  44.5514990  95.6729997
  92.8949992  45.2184990  94.9929997  92.6579992  43.7364990  95.1909997
  92.7923428  44.5325667  95.5148311  91.9679992  45.9324990 101.2939997
  91.8179992  44.9874990 101.2739997  91.6139992  46.2134990 102.1379997
  91.8996351  45.8411656 101.4053202  77.0029992  48.0104990 105.3039997
  77.1869992  47.9284990 104.3689997  77.8519992  47.8864990 105.7279997
  77.1430259  47.9824915 105.2331771  92.0459992  41.9594990  94.7899997
  92.6559992  41.5884990  95.4269997  91.2089992  41.5384990  94.9859997
  92.0163704  41.8517942  94.9037077  91.6779992  43.5144990  99.7559997
  91.9579992  42.6074990  99.8809997  92.4369992  43.9484990  99.3669997
  91.8189471  43.4490654  99.7205051  92.2899992  44.0964990 105.1919997
  93.2229992  44.3084990 105.1579997  92.0549992  44.1974990 106.1149997
  92.3858357  44.1391303 105.3120232  92.3189992  44.8334990 107.9679997
  91.4759992  45.1014990 108.3339997  92.7619992  45.6554990 107.7569997
  92.2634358  44.9813294 107.9895999  92.2919992  40.7774990  99.8049997
  92.4739992  40.3284990 100.6299997  91.6919992  40.1934990  99.3409997
  92.2358187  40.6370563  99.8552721  77.8219992  41.5934990 104.3359997
  78.2669992  40.8014990 104.6379997  78.2879992  42.3094990 104.7669997
  77.9459059  41.5819485 104.4356061 138.6349992  16.9724990  94.5959997
 139.4029992  16.5134990  94.9369997 138.6139992  16.7464990  93.6659997
 138.7372135  16.8791680  94.5169473  76.1259992  44.5924990 105.4049997
  76.6179992  44.3714990 104.6149997  76.4879992  45.4324990 105.6859997
  76.2423429  44.6758220 105.3347918  94.1579992  40.8454990  96.3329997
  94.5709992  40.1244990  95.8569997  94.8399992  41.5144990  96.3909997
  94.3065712  40.8374304  96.2758247  76.4389992  40.8504990  99.4599997
  75.5139992  41.0584990  99.3299997  76.8929992  41.3344990  98.7699997
  76.3737401  40.9443895  99.3489433  91.2099992  55.8344990 101.4049997
  91.8619992  55.4864990 100.7969997  91.7209992  56.3224990 102.0509997
  91.3682872  55.8528248 101.4090964  76.4029992  39.5884990 107.8039997
  75.7379992  39.3424990 108.4469997  75.9599992  40.2104990 107.2269997
  76.2521168  39.6389225 107.8139830  81.5489992  53.7374990 108.2069997
  81.1239992  54.5474990 107.9239997  82.4529992  53.8234990 107.9049997
  81.6131002  53.8598728 108.1274798  93.1229992  39.0124990 109.4899997
  92.3099992  39.3374990 109.1019997  93.3559992  38.2514990 108.9569997
  93.0432566  38.9541570 109.3649196  78.9509992  56.9944990 108.2539997
  78.2299992  57.4344990 107.8029997  78.5849992  56.7434990 109.1029997
  78.8029785  57.0207691 108.3069849  81.4179992  56.5944990 107.2839997
  80.5529992  56.6664990 107.6879997  81.3629992  57.1414990 106.4999997
  81.2922066  56.6782678 107.2333371  86.1289992  56.4824990 106.4599997
  85.6719992  57.0114990 105.8059997  86.2909992  57.0854990 107.1849997
  86.0883919  56.6363990 106.4685740 133.9449992  11.8634990  93.9299997
 134.0889992  10.9614990  93.6439997 133.1719992  12.1494990  93.4419997
 133.8602854  11.7786876  93.8249363  88.4559992  55.3604990 107.4049997
  87.5519992  55.5254990 107.1389997  88.8849992  56.2134990 107.3389997
  88.3902017  55.4984184 107.3596495  91.0599992  56.9304990 107.6999997
  90.8789992  57.8464990 107.4889997  91.2369992  56.5194990 106.8529997
  91.0591377  57.0003365 107.5567178  78.3659992  55.6174990 105.1649997
  78.3469992  55.1914990 106.0219997  79.1699992  55.2984990 104.7559997
  78.4721393  55.5160297 105.2270155  80.5069992  54.3274990 103.8199997
  80.2879992  53.4104990 103.9889997  81.3309992  54.4674990 104.2859997
  80.5884637  54.2209586 103.9061414  83.0439992  54.7974990 104.6679997
  83.2569992  53.9094990 104.3809997  83.1089992  54.7624990 105.6229997
  83.0819075  54.6713318 104.7577355  86.5529992  40.4614990 103.8129997
  85.8779992  39.8314990 104.0679997  87.1169992  39.9774990 103.2099997
  86.5369558  40.3099283 103.7663451  91.6949992  38.5684990 103.9249997
  92.2989992  39.1164990 103.4239997  90.8259992  38.8874990 103.6849997
  91.6601126  38.6867070 103.8239180  93.4219992  39.7074990 102.2589997
  94.0339992  39.1934990 101.7319997  93.8049992  40.5844990 102.2819997
  93.5573867  39.7557613 102.1900888  78.8789992  39.0954990 101.6349997
  78.1019992  38.8604990 101.1269997  79.4099992  38.2984990 101.6439997
  78.8444443  38.9556721 101.5667200  77.7159992  38.8934990  97.4379997
  78.1549992  39.5044990  96.8469997  77.0819992  39.4314990  97.9119997
  77.6904103  39.0499233  97.4211376 134.7769992   9.0634990  93.3499997
 135.1849992   8.2064990  93.2289997 134.5169992   9.0774990  94.2709997
 134.7977082   8.9480596  93.4579469  83.4589992  39.0214990 101.4479997
  84.3329992  39.4104990 101.4179997  83.3229992  38.8064990 102.3709997
  83.5603125  39.0457120 101.5686523  89.0149992  39.0514990 103.0969997
  89.0919992  39.1474990 102.1479997  88.7399992  38.1444990 103.2259997
  88.9883407  38.9419188 102.9843532  90.3689992  39.0774990  98.7899997
  89.6659992  39.6924990  98.5799997  89.9239992  38.2404990  98.9209997
  90.2126550  39.0484679  98.7789819  77.6169992  54.8414990  98.3359997
  76.9319992  54.8034990  97.6679997  77.6199992  55.7534990  98.6239997
  77.5237358  54.9596744  98.2836145  79.5769992  40.8094990  95.8809997
  80.0679992  40.1794990  95.3529997  80.1999992  41.1054990  96.5439997
  79.7285459  40.7632419  95.8983667  84.6029992  41.1024990  98.3379997
  84.7809992  40.4554990  99.0209997  84.5489992  41.9364990  98.8049997
  84.6200678  41.1266615  98.4946283  86.4809992  56.0504990  96.7329997
  87.3469992  56.4174990  96.5549997  86.2339992  55.6114990  95.9199997
  86.5662041  56.0413648  96.5985958  93.1899992  55.6134990  99.4129997
  92.9959992  54.8654990  98.8479997  93.1509992  56.3714990  98.8289997
  93.1581907  55.6135770  99.2568077  79.4349992  55.7614990  95.3609997
  79.1669992  56.0474990  96.2339997  80.2059992  55.2154990  95.5129997
  79.5025600  55.7268341  95.5011482 106.8139992  48.2514990 101.5929997
 106.9029992  49.1954990 101.4609997 106.1749992  47.9764990 100.9349997
 106.7398319  48.3434984 101.4860276 139.4349992  10.1794990  78.3679997
 138.9759992   9.6954990  79.0539997 139.6899992   9.5104990  77.7319997
 139.4066178  10.0228511  78.3759785 105.7469992  47.5064990 105.0119997
 105.7079992  46.8604990 105.7169997 105.4239992  47.0394990 104.2409997
 105.6980199  47.3550089 105.0042865  98.1149992  47.1204990 106.6049997
  98.1559992  46.4954990 107.3289997  98.8179992  47.7444990 106.7869997
  98.2156054  47.1193262 106.7286311 109.4529992  50.4454990 103.3139997
 109.0119992  49.7254990 103.7639997 109.4399992  51.1664990 103.9439997
 109.3908398  50.4443187 103.4607734  99.0389992  51.5704990 105.1399997
  98.6689992  50.7684990 104.7709997  99.9799992  51.4024990 105.1869997
  99.1155630  51.4378680 105.0957873  95.6489992  45.2304990 100.5329997
  95.2009992  46.0764990 100.5149997  95.0879992  44.6514990 100.0179997
  95.5118546  45.2679004 100.4608874  96.3589992  47.3924990 102.6589997
  96.5729992  46.6224990 103.1859997  97.0969992  47.4824990 102.0559997
  96.4880073  47.2993546 102.6495786 106.5639992  55.5494990 103.5259997
 107.1839992  54.8734990 103.2529997 106.3559992  55.3314990 104.4339997
 106.6207360  55.4274792 103.6114387 104.1359992  49.9384990 105.4179997
 104.4399992  49.2524990 104.8239997 104.8579992  50.0574990 106.0359997
 104.2751152  49.8607201 105.4202106 112.7989992  41.5404990 106.2789997
 112.8479992  42.1504990 107.0149997 113.2249992  42.0014990 105.5559997
 112.8632851  41.6863266 106.2820532 107.2769992  44.3324990 105.7459997
 107.4189992  43.3864990 105.7659997 107.1709992  44.5394990 104.8169997
 107.2821158  44.2309722 105.6232241 138.7239992   8.0724990  90.7239997
 138.1059992   8.7464990  91.0049997 139.0679992   8.3934990  89.8909997
 138.6858181   8.2083233  90.6498266 100.4319992  42.4344990 103.0179997
 100.4749992  43.2944990 102.5999997  99.9739992  41.8814990 102.3849997
 100.3759613  42.4775689 102.8751276 108.1539992  42.5654990 101.4189997
 108.7999992  42.2364990 102.0439997 108.6639992  43.0824990 100.7959997
 108.3114392  42.5903710 101.4203248  97.0519992  44.8314990 103.7799997
  97.7059992  44.2814990 104.2119997  97.0759992  44.5574990 102.8639997
  97.1447022  44.7192005 103.7151698 102.2079992  46.3814990 102.9959997
 102.8239992  45.8544990 103.5049997 101.6219992  45.7414990 102.5919997
 102.2130652  46.2228919 103.0110277 113.1909992  43.0184990 108.5149997
 112.5019992  43.6764990 108.4199997 113.2059992  42.8204990 109.4519997
 113.0987756  43.0817614 108.6285795  99.2419992  41.3524990 107.0919997
  99.0229992  41.8824990 106.3259997  98.5739992  41.5784990 107.7399997
  99.1217271  41.4556508 107.0746206 106.6109992  50.8524990 100.6359997
 106.3149992  50.5294990  99.7849997 106.2869992  51.7524990 100.6779997
 106.5266501  50.9299058 100.5250893 101.8109992  49.0274990 107.3799997
 101.0709992  49.6264990 107.4829997 102.5249992  49.5814990 107.0639997
 101.8063288  49.1842368 107.3513787 109.9179992  41.8564990 103.3999997
 109.7029992  41.0904990 103.9319997 110.5739992  42.3284990 103.9129997
 109.9772451  41.8154472 103.5421699  98.8359992  43.2444990 105.0449997
  99.4489992  43.8774990 105.4179997  99.3479992  42.7724990 104.3879997
  98.9891680  43.2674006 105.0072830 139.0639992   5.4274990  91.8069997
 139.2139992   4.6984990  91.2039997 139.0659992   6.2044990  91.2479997
 139.0847664   5.4328971  91.6490525 100.2179992  50.9924990 108.1669997
 100.2129992  51.8714990 107.7889997  99.3649992  50.9084990 108.5919997
 100.1019199  51.1015901 108.1726942  96.3399992  50.6634990  98.9489997
  96.0679992  50.8924990  98.0599997  96.3849992  51.5004990  99.4089997
  96.3088709  50.8081069  98.8896089 109.9649992  52.2844990 105.6619997
 109.0229992  52.3434990 105.8229997 110.2409992  53.1904990 105.5249997
 109.8735771  52.4150270 105.6654827 110.2649992  40.5714990 107.0789997
 109.5289992  41.1814990 107.0409997 110.9489992  40.9864990 106.5529997
 110.2565885  40.7111924 107.0026931 103.2679992  38.6574990 104.5449997
 103.1509992  37.7094990 104.4909997 102.4129992  38.9904990 104.8179997
 103.1363691  38.5725842 104.5745072 108.2169992  54.0654990 102.2869997
 108.6419992  53.3584990 101.8019997 108.5339992  54.8674990 101.8699997
 108.3180266  54.0770201 102.1642461 109.3759992  51.9664990 100.7959997
 109.1189992  51.2764990 100.1839997 109.4469992  51.5234990 101.6409997
 109.3504322  51.8121568 100.8265372 111.0619992  50.5334990 109.2729997
 111.2019992  49.9414990 108.5339997 111.2299992  51.4064990 108.9169997
 111.1038734  50.5704041 109.1236937 105.5349992  47.4954990  99.0449997
 104.8229992  48.0304990  98.6939997 106.2259992  47.5504990  98.3849997
 105.5308696  47.5762591  98.9076372 105.5889992  45.9524990  96.0839997
 106.2899992  45.9754990  96.7349997 105.8909992  45.3244990  95.4279997
 105.7258282  45.8707350  96.0844478 139.4759992   3.7964990  89.2989997
 140.0119992   4.2484990  88.6469997 138.6239992   3.6884990  88.8769997
 139.4341648   3.8437883  89.1526395 112.9039992  46.8734990 107.3389997
 112.2519992  47.5674990 107.4279997 113.3689992  47.0834990 106.5289997
 112.8775357  46.9969544 107.2417056 108.9409992  47.7044990  99.9969997
 108.2089992  47.9334990 100.5699997 109.3879992  46.9914990 100.4519997
 108.9012753  47.6393984 100.1369698 108.8379992  45.8794990 109.0649997
 108.9179992  46.6424990 109.6369997 108.2369992  46.1584990 108.3739997
 108.7677115  46.0217707 109.0499631 100.5859992  48.3354990 101.8799997
 100.2559992  47.9644990 101.0609997 101.1739992  47.6644990 102.2259997
 100.6204056  48.1941257 101.8149035 101.9529992  51.7634990 104.5609997
 101.8579992  51.1844990 103.8039997 102.6819992  51.3924990 105.0569997
 102.0386161  51.6340902 104.5245192 100.9529992  47.1034990 105.5129997
 101.5179992  47.2254990 104.7499997 101.2709992  47.7414990 106.1519997
 101.0733430  47.2064448 105.4949094 107.2619992  52.6074990 106.2469997
 107.0209992  53.2694990 106.8949997 107.0639992  51.7724990 106.6719997
 107.2022662  52.5852704 106.3931008 107.8119992  46.8674990  97.6819997
 108.3909992  47.0174990  98.4289997 108.2259992  47.3374990  96.9589997
 107.9473122  46.9516288  97.6865024  98.7529992  47.7014990 109.4589997
  98.8229992  48.3524990 110.1569997  97.8619992  47.8044990 109.1239997
  98.6421802  47.8044769 109.5092231 105.5379992  53.6034990 101.1179997
 106.0119992  53.8994990 101.8949997 104.9749992  54.3424990 100.8839997
 105.5268460  53.7438336 101.1927626 137.5419992   6.6254990  93.7179997
 136.7749992   6.0924990  93.5079997 138.2209992   6.3154990  93.1189997
 137.5288292   6.5106360  93.6082693 111.5099992  38.6174990  97.4949997
 110.6099992  38.7554990  97.7899997 111.7619992  39.4484990  97.0929997
 111.4207355  38.7488200  97.4810539  99.5759992  47.4044990  99.4689997
  99.2839992  48.1724990  98.9779997  98.9019992  46.7454990  99.3059997
  99.4448843  47.4204537  99.3797695 112.6999992  52.9834990  95.8719997
 112.7729992  53.9224990  96.0419997 113.6049992  52.6784990  95.8149997
 112.8324168  53.0708531  95.8875736  95.6689992  49.7674990 108.2839997
  95.1679992  49.7394990 107.4689997  95.6749992  48.8624990 108.5939997
  95.6011690  49.6412234 108.2142770  95.4199992  52.5484990 105.1679997
  96.3659992  52.4034990 105.1489997  95.3069992  53.3324990 105.7049997
  95.5343578  52.6346708 105.2380300 104.5959992  52.7884990 109.7259997
 104.6829992  53.6144990 110.2009997 103.7319992  52.4584990 109.9749997
 104.4911944  52.8569871 109.8246558 105.0099992  56.5604990  99.5319997
 104.9349992  56.4394990  98.5859997 105.0429992  57.5094990  99.6509997
 105.0041862  56.6722492  99.4184840  98.6639992  55.3494990 101.3129997
  98.8159992  55.0014990 102.1919997  97.8129992  54.9924990 101.0579997
  98.5697899  55.2536749 101.3987322 108.1119992  55.7144990  96.5349997
 108.4869992  54.9704990  96.0639997 108.1159992  55.4444990  97.4529997
 108.1638969  55.5760920  96.5946475 107.7809992  55.6404990  99.2839997
 106.8459992  55.7404990  99.4629997 108.0609992  54.9304990  99.8619997
 107.6909270  55.5582300  99.3865984 135.7229992   4.5454990  93.4229997
 135.9339992   3.8394990  92.8119997 135.6109992   4.1084990  94.2669997
 135.7367674   4.3896376  93.4534199  97.9179992  51.0914990 109.3269997
  98.1339992  50.7294990 110.1869997  97.0629992  50.7164990 109.1169997
  97.8319349  50.9912914 109.4162134 100.5369992  39.5614990 105.3229997
  99.6749992  39.4744990 104.9149997 100.5149992  40.4174990 105.7499997
 100.4160953  39.6653558 105.3249262 105.1999992  39.2834990 108.6969997
 105.6199992  38.8684990 109.4499997 104.2669992  39.1044990 108.8139997
 105.1313736  39.2024921 108.8158950 108.5259992  43.0384990 109.5509997
 108.0119992  42.9134990 110.3479997 108.3709992  43.9514990 109.3059997
 108.4346643  43.1447068 109.6270624 109.2889992  47.8994990  95.3119997
 109.3309992  47.6774990  94.3819997 110.1379992  48.2984990  95.5019997
 109.4095253  47.9230510  95.2103804 104.8619992  41.7754990  95.9819997
 104.6079992  41.7944990  96.9049997 104.6049992  40.9044990  95.6809997
 104.7925133  41.6603121  96.0675065 100.6279992  44.5264990 106.4179997
  99.9859992  44.4864990 107.1269997 100.6649992  45.4534990 106.1799997
 100.5451659  44.6462540 106.4828463 100.6249992  44.7474990 101.3299997
  99.7319992  44.4074990 101.2709997 101.0759992  44.3704990 100.5739997
 100.5637185  44.6500220 101.2197698 106.1609992  45.1634990 100.1469997
 105.7519992  45.9784990  99.8549997 106.8809992  45.0234990  99.5319997
 106.2023946  45.2559963 100.0239616 107.1649992  44.6094990 102.9609997
 106.9699992  45.2154990 102.2459997 107.3469992  43.7764990 102.5259997
 107.1629272  44.5797955 102.8044075 133.9719992  13.7494990  77.1149997
 134.8859992  13.8284990  77.3879997 133.9789992  13.0624990  76.4479997
 134.0980769  13.6674734  77.0622366  98.3779992  44.8474990 108.2849997
  98.3399992  45.2474990 109.1529997  97.8869992  44.0304990 108.3749997
  98.3064246  44.7918842 108.4161171 101.7439992  42.2214990  95.0829997
 101.3129992  41.7764990  95.8129997 101.0259992  42.5924990  94.5709997
 101.5879363  42.2107979  95.1136194  94.9859992  41.9634990 102.1349997
  95.6169992  41.9344990 102.8549997  95.4359992  41.5384990 101.4049997
  95.1330905  41.9020839 102.1347479  96.2599992  42.7094990  97.5589997
  96.7349992  43.3004990  96.9739997  95.5429992  43.2394990  97.9059997
  96.2280406  42.8621011  97.5258495 106.4289992  46.2474990 107.6319997
 106.7529992  45.6164990 106.9889997 105.9889992  45.7134990 108.2929997
 106.4138707  46.0888261 107.6333195 103.2069992  42.1754990 102.4159997
 102.2959992  42.2324990 102.7049997 103.7119992  42.1154990 103.2269997
 103.1506873  42.1751838 102.5651190  98.0349992  43.8044990 101.2429997
  97.1459992  43.9034990 100.9029997  98.3309992  42.9624990 100.8969997
  97.9534001  43.7042473 101.1497318 101.6879992  43.8044990  98.8989997
 102.6199992  43.9334990  99.0769997 101.4729992  44.4734990  98.2499997
 101.7864245  43.9126452  98.8355602 107.6119992  41.4104990 105.6799997
 106.9349992  41.5414990 106.3439997 107.1259992  41.2554990 104.8699997
 107.4537265  41.4074665 105.6613380 100.3619992  44.9984990  96.4659997
  99.8199992  44.6194990  95.7749997 101.1959992  45.1934990  96.0369997
 100.4004283  44.9729383  96.3134298 132.6209992  19.1424990  82.1919997
 131.9739992  18.6804990  81.6589997 132.9759992  18.4704990  82.7749997
 132.5803861  18.9884707  82.1977939 104.5269992  44.9624990 104.3029997
 105.0909992  44.4164990 103.7559997 104.3789992  44.4414990 105.0919997
 104.5843037  44.8171798 104.3347212  99.5289992  41.0994990 100.7209997
  99.2109992  40.1964990 100.6859997 100.3099992  41.1014990 100.1689997
  99.5911560  40.9761148 100.6414975 103.1529992  43.3514990 106.7169997
 102.3179992  43.8054990 106.8269997 103.6769992  43.6274990 107.4689997
 103.1095070  43.4509677 106.8337134 103.6969992  49.5644990  98.4019997
 102.9519992  49.0564990  98.0789997 103.5629992  49.6134990  99.3479997
 103.5768633  49.5015714  98.4857563 110.8469992  48.6974990 107.1879997
 111.4889992  49.1534990 106.6449997 110.0169992  48.8104990 106.7259997
 110.8227352  48.7753223 107.0510234 107.5949992  42.3784990  96.6009997
 106.6559992  42.4894990  96.4499997 107.8919992  43.2344990  96.9069997
 107.5066371  42.5095327  96.6217362 105.2169992  49.7484990 109.6389997
 104.8709992  49.3664990 110.4449997 105.0169992  50.6814990 109.7099997
 105.1425400  49.8223489 109.7590401 108.3129992  44.2454990  98.2619997
 109.2049992  44.1074990  98.5809997 108.3699992  45.0364990  97.7249997
 108.4427380  44.3334777  98.2330981  98.8219992  48.8594990 104.1709997
  99.5669992  48.8564990 103.5699997  98.8999992  48.0354990 104.6529997
  98.9344158  48.7477928 104.1539136 105.8229992  51.0224990  97.4269997
 105.5279992  51.8494990  97.8089997 105.1199992  50.4034990  97.6229997
 105.6875855  51.0519458  97.5057634 133.4909992  17.2224990  83.9969997
 133.1569992  16.3424990  84.1689997 133.7129992  17.5684990  84.8609997
 133.4752677  17.1487366  84.1374252  95.8299992  47.3194990 109.4859997
  96.0529992  46.9014990 110.3179997  95.2279992  46.7074990 109.0639997
  95.7790802  47.1795216 109.5427561 107.4669992  52.2104990 109.5889997
 106.5659992  52.3934990 109.3209997 107.5009992  52.4694990 110.5099997
 107.3483021  52.2705505 109.6768206 113.1979992  44.4544990  97.9559997
 112.6439992  44.0584990  97.2839997 113.2989992  45.3654990  97.6789997
 113.1357084  44.5233565  97.8264381 111.4929992  53.2404990  98.4209997
 111.1209992  52.4154990  98.7309997 111.7709992  53.0574990  97.5239997
 111.4795997  53.1026160  98.3421551 108.6539992  48.0484990 105.4429997
 107.7259992  47.8174990 105.4159997 109.1049992  47.2714990 105.1129997
 108.5878165  47.9117785 105.3946772 101.1969992  52.3774990 101.5759997
 101.7239992  53.1504990 101.3749997 100.3169992  52.6014990 101.2739997
 101.1501793  52.5136652 101.5076304  96.9519992  47.2394990  96.1629997
  97.5679992  47.8664990  96.5419997  96.0899992  47.5554990  96.4339997
  96.9198195  47.3680810  96.2515369 102.6239992  50.0404990 101.1519997
 102.3829992  50.9654990 101.1939997 101.8839992  49.5814990 101.5479997
 102.4908934  50.1050881 101.2113191 103.1389992  54.1894990 107.4669997
 103.5019992  55.0434990 107.2339997 103.6709992  53.8974990 108.2079997
 103.2605141  54.2668907 107.5352079 101.3069992  55.0614990 100.6969997
 100.3579992  55.1674990 100.7489997 101.6589992  55.8824990 101.0419997
 101.2246214  55.1869361 100.7507317 133.5709992  10.2984990  86.4479997
 133.7549992  10.2164990  85.5129997 134.4199992  10.1744990  86.8719997
 133.7110259  10.2704915  86.3771771 106.6829992  50.2884990 107.1679997
 106.2569992  50.0604990 107.9939997 107.2639992  49.5494990 106.9849997
 106.7031587  50.1574084 107.2564111 108.8859992  51.2174990  96.2419997
 109.2389992  50.8374990  97.0459997 107.9369992  51.1234990  96.3279997
 108.8060985  51.1527330  96.3637738 109.3419992  54.8404990 109.6369997
 108.7399992  54.2844990 109.1419997 109.6229992  55.5074990 109.0109997
 109.2975757  54.8545755 109.4845657 113.3889992  55.6964990  96.4429997
 114.1329992  56.2824990  96.3029997 112.6949992  56.2654990  96.7759997
 113.3969809  55.8535830  96.4688572  97.4639992  42.0734990 109.0439997
  96.5709992  42.4114990 108.9769997  97.3649992  41.2174990 109.4619997
  97.3285241  42.0040941 109.0912982 109.7519992  49.8894990  98.4679997
 109.4749992  49.1614990  99.0239997 110.6789992  50.0084990  98.6739997
 109.8394181  49.8060068  98.5718972  97.1149992  53.8774990 107.4789997
  97.3319992  52.9454990 107.4479997  97.3619992  54.1524990 108.3629997
  97.1780543  53.7870877 107.5941412 102.9769992  52.3294990  94.6889997
 103.2159992  51.5804990  94.1409997 102.7079992  51.9414990  95.5209997
 102.9732804  52.1746524  94.7266352 101.9139992  51.8994990  97.1449997
 102.0609992  51.3794990  97.9349997 101.9109992  52.8064990  97.4509997
 101.9337300  51.9508975  97.2945877  98.3669992  49.1514990  97.6549997
  97.6809992  49.5044990  98.2219997  98.8899992  49.9144990  97.4089997
  98.3439033  49.3028757  97.6992644 133.1679992   5.5684990  92.5889997
 134.0879992   5.4464990  92.8249997 132.7189992   4.8184990  92.9779997
 133.2331561   5.4503720  92.6739015 106.1979992  41.8144990 107.9339997
 106.8969992  41.8884990 108.5839997 105.8179992  40.9494990 108.0889997
 106.2422095  41.7077402 108.0437982 106.9829992  41.4664990  99.0309997
 107.2029992  41.9374990  98.2279997 107.5409992  41.8604990  99.7019997
 107.0885851  41.5843272  99.0116134 104.6519992  53.5964990  97.8939997
 103.8349992  54.0934990  97.9469997 105.1809992  54.0724990  97.2539997
 104.6117898  53.7288123  97.8147274 104.1829992  43.1944990  99.8659997
 104.9949992  43.6984990  99.9119997 103.9379992  43.0494990 100.7799997
 104.2611091  43.2439366  99.9958552 104.7189992  44.1804990 109.0509997
 104.8379992  44.7544990 109.8079997 105.3739992  43.4924990 109.1659997
 104.8238684  44.1660205 109.1701656 105.0669992  40.2754990 100.8039997
 104.7199992  40.8924990 101.4489997 105.7249992  40.7764990 100.3229997
 105.1085290  40.4276384 100.8271635 101.9899992  54.6404990  97.8759997
 102.1509992  55.4404990  97.3749997 101.7929992  54.9474990  98.7609997
 101.9853919  54.7914140  97.9270988 100.7239992  41.3384990  97.4919997
 100.6409992  42.2264990  97.8379997 101.6139992  41.0734990  97.7229997
 100.8329751  41.4242482  97.5706066 110.9229992  42.0874990 109.8859997
 110.0069992  42.3494990 109.7979997 111.2589992  42.0844990 108.9889997
 110.8429789  42.1229637 109.7527829 109.5249992  45.8374990 103.9819997
 108.7279992  45.4224990 103.6529997 109.9699992  45.1474990 104.4729997
 109.4760317  45.6873197 104.0033556 134.3899992   3.8814990  85.4799997
 134.8349992   3.0894990  85.7819997 134.8559992   4.5974990  85.9109997
 134.5139059   3.8699485  85.5796061  98.9829992  51.7654990  96.5519997
  99.5749992  52.4654990  96.8279997  99.4419992  51.3324990  95.8329997
  99.1261172  51.8027371  96.4925163  97.2989992  44.4304990  95.6679997
  97.2539992  45.3694990  95.8469997  96.4109992  44.1944990  95.3979997
  97.1728472  44.5271946  95.6560282 110.6119992  55.0934990 105.6039997
 110.4559992  55.7724990 104.9469997 111.5439992  55.1654990 105.8069997
 110.7167328  55.1961586 105.5415529  98.1069992  39.2114990 104.3409997
  97.8779992  39.2704990 103.4139997  97.6639992  38.4204990 104.6479997
  98.0157387  39.1126412 104.2555223  97.0369992  53.1524990 100.5019997
  96.2049992  53.6244990 100.5289997  97.5829992  53.6624990  99.9029997
  96.9968710  53.2860317 100.4247570 105.0149992  54.1924990  94.8269997
 104.3709992  53.5614990  95.1489997 105.7769992  53.6614990  94.5949997
 105.0298260  54.0343035  94.8397298 109.6189992  54.0094990  95.0609997
 109.9019992  53.2144990  95.5139997 110.3589992  54.2424990  94.4999997
 109.7577295  53.9322349  95.0471469 100.5739992  49.9184990  94.9179997
 100.6379992  49.1244990  95.4489997 101.2269992  49.8004990  94.2289997
 100.6711168  49.7937748  94.8975119 105.9259992  50.9654990  94.6539997
 105.6579992  51.1464990  95.5549997 105.7199992  50.0404990  94.5229997
 105.8614251  50.8651528  94.7596809 108.6229992  49.4604990 109.6019997
 109.3679992  50.0494990 109.4819997 107.8649992  50.0424990 109.6649997
 108.6225185  49.6197000 109.5940940 132.6939992   6.8804990  86.5489997
 133.1859992   6.6594990  85.7589997 133.0559992   7.7204990  86.8299997
 132.8103429   6.9638220  86.4787918 101.7229992  47.8914990  97.2239997
 101.2639992  47.4074990  97.9099997 101.9779992  47.2224990  96.5879997
 101.6946178  47.7348511  97.2319785 101.0119992  45.7844990 109.5799997
 100.3939992  46.4584990 109.8609997 101.3559992  46.1054990 108.7469997
 100.9738181  45.9203233 109.5058266 102.7939992  46.1344990  95.4869997
 102.6139992  45.9794990  94.5589997 103.7439992  46.2424990  95.5309997
 102.8978016  46.1279264  95.3662123 112.1839992  48.4884990  94.9319997
 111.9109992  48.0644990  94.1189997 112.2239992  49.4204990  94.7149997
 112.1520201  48.5563523  94.7913548 101.7639992  41.5084990 108.1549997
 102.2999992  41.9604990 107.5029997 100.9119992  41.4004990 107.7329997
 101.7221648  41.5557883 108.0086395 103.3459992  46.9484990 108.3949997
 104.0969992  46.7924990 107.8219997 103.0069992  47.8004990 108.1189997
 103.4029052  47.0422745 108.2793469 102.5699992  38.9654990 108.5869997
 102.4719992  39.9114990 108.4809997 101.8269992  38.5924990 108.1109997
 102.4562363  39.0445987 108.5082029 102.6919992  56.8244990  96.4879997
 103.6249992  56.9824990  96.6319997 102.4269992  57.5004990  95.8629997
 102.7839846  56.9374567  96.4232930  96.2599992  51.4614990  95.9709997
  97.1739992  51.5404990  96.2439997  96.2669992  50.7744990  95.3039997
  96.3860769  51.3794735  95.9182366  94.9089992  56.8544990 101.0479997
  94.2619992  56.3924990 100.5149997  95.2639992  56.1824990 101.6309997
  94.8683861  56.7004707 101.0537939 133.0069992   3.1384990  80.6039997
 132.0819992   3.3464990  80.4739997 133.4609992   3.6224990  79.9139997
 132.9417401   3.2323895  80.4929433  95.7789992  54.9344990 102.8529997
  95.4449992  54.0544990 103.0249997  96.0009992  55.2804990 103.7169997
  95.7632677  54.8607366 102.9934252 113.3279992  55.7444990 105.8329997
 113.3059992  55.9294990 106.7719997 114.0179992  56.3124990 105.4919997
 113.4183439  55.8466898 105.9154774 112.8909992  55.3114990 108.7549997
 112.4039992  54.5754990 108.3839997 113.4399992  54.9174990 109.4329997
 112.8986101  55.1576267 108.7959034 112.6429992  49.3574990  98.9069997
 113.4929992  49.7784990  99.0349997 112.6479992  48.6174990  99.5149997
 112.7599745  49.3151347  99.0066479 113.0369992  47.4114990 100.7309997
 112.3109992  46.9314990 101.1289997 113.6179992  47.6164990 101.4629997
 113.0162504  47.3735592 100.8844199 112.7959992  50.1964990 105.6789997
 113.6299992  49.8184990 105.3979997 112.9079992  51.1394990 105.5599997
 112.9251917  50.2722954 105.6244844 111.2819992  53.0744990 107.9859997
 110.6349992  53.3994990 108.6109997 110.7649992  52.6334990 107.3109997
 111.1234068  53.0594726 107.9804918 113.3049992  47.3124990  97.1219997
 112.7839992  47.6684990  96.4029997 113.2719992  47.9874990  97.7999997
 113.2291525  47.4525273  97.1151408 111.6539992  44.5514990  95.6729997
 111.7509992  45.2184990  94.9929997 111.5139992  43.7364990  95.1909997
 111.6483428  44.5325667  95.5148311 110.8239992  45.9324990 101.2939997
 110.6739992  44.9874990 101.2739997 110.4699992  46.2134990 102.1379997
 110.7556351  45.8411656 101.4053202 132.9709992   1.8764990  88.9479997
 132.3059992   1.6304990  89.5909997 132.5279992   2.4984990  88.3709997
 132.8201168   1.9269225  88.9579830  95.8589992  48.0104990 105.3039997
  96.0429992  47.9284990 104.3689997  96.7079992  47.8864990 105.7279997
  95.9990259  47.9824915 105.2331771 110.9019992  41.9594990  94.7899997
 111.5119992  41.5884990  95.4269997 110.0649992  41.5384990  94.9859997
 110.8723704  41.8517942  94.9037077 110.5339992  43.5144990  99.7559997
 110.8139992  42.6074990  99.8809997 111.2929992  43.9484990  99.3669997
 110.6749471  43.4490654  99.7205051 111.1459992  44.0964990 105.1919997
 112.0789992  44.3084990 105.1579997 110.9109992  44.1974990 106.1149997
 111.2418357  44.1391303 105.3120232 111.1749992  44.8334990 107.9679997
 110.3319992  45.1014990 108.3339997 111.6179992  45.6554990 107.7569997
 111.1194358  44.9813294 107.9895999 111.1479992  40.7774990  99.8049997
 111.3299992  40.3284990 100.6299997 110.5479992  40.1934990  99.3409997
 111.0918187  40.6370563  99.8552721  96.6779992  41.5934990 104.3359997
  97.1229992  40.8014990 104.6379997  97.1439992  42.3094990 104.7669997
  96.8019059  41.5819485 104.4356061  94.9819992  44.5924990 105.4049997
  95.4739992  44.3714990 104.6149997  95.3439992  45.4324990 105.6859997
  95.0983429  44.6758220 105.3347918 113.0139992  40.8454990  96.3329997
 113.4269992  40.1244990  95.8569997 113.6959992  41.5144990  96.3909997
 113.1625712  40.8374304  96.2758247  95.2949992  40.8504990  99.4599997
  94.3699992  41.0584990  99.3299997  95.7489992  41.3344990  98.7699997
  95.2297401  40.9443895  99.3489433 135.1629992  15.0514990  93.0919997
 134.3419992  15.2264990  92.6319997 134.9109992  14.9784990  94.0129997
 135.0166173  15.0655806  93.1534954 110.0659992  55.8344990 101.4049997
 110.7179992  55.4864990 100.7969997 110.5769992  56.3224990 102.0509997
 110.2242872  55.8528248 101.4090964  95.2589992  39.5884990 107.8039997
  94.5939992  39.3424990 108.4469997  94.8159992  40.2104990 107.2269997
  95.1081168  39.6389225 107.8139830 100.4049992  53.7374990 108.2069997
  99.9799992  54.5474990 107.9239997 101.3089992  53.8234990 107.9049997
 100.4691002  53.8598728 108.1274798 111.9789992  39.0124990 109.4899997
 111.1659992  39.3374990 109.1019997 112.2119992  38.2514990 108.9569997
 111.8992566  38.9541570 109.3649196  97.8069992  56.9944990 108.2539997
  97.0859992  57.4344990 107.8029997  97.4409992  56.7434990 109.1029997
  97.6589785  57.0207691 108.3069849 100.2739992  56.5944990 107.2839997
  99.4089992  56.6664990 107.6879997 100.2189992  57.1414990 106.4999997
 100.1482066  56.6782678 107.2333371 104.9849992  56.4824990 106.4599997
 104.5279992  57.0114990 105.8059997 105.1469992  57.0854990 107.1849997
 104.9443919  56.6363990 106.4685740 107.3119992  55.3604990 107.4049997
 106.4079992  55.5254990 107.1389997 107.7409992  56.2134990 107.3389997
 107.2462017  55.4984184 107.3596495 109.9159992  56.9304990 107.6999997
 109.7349992  57.8464990 107.4889997 110.0929992  56.5194990 106.8529997
 109.9151377  57.0003365 107.5567178  97.2219992  55.6174990 105.1649997
  97.2029992  55.1914990 106.0219997  98.0259992  55.2984990 104.7559997
  97.3281393  55.5160297 105.2270155 138.1169992  16.0254990  89.3509997
 137.6919992  16.8354990  89.0679997 139.0209992  16.1114990  89.0489997
 138.1811002  16.1478728  89.2714798  99.3629992  54.3274990 103.8199997
  99.1439992  53.4104990 103.9889997 100.1869992  54.4674990 104.2859997
  99.4444637  54.2209586 103.9061414 101.8999992  54.7974990 104.6679997
 102.1129992  53.9094990 104.3809997 101.9649992  54.7624990 105.6229997
 101.9379075  54.6713318 104.7577355 105.4089992  40.4614990 103.8129997
 104.7339992  39.8314990 104.0679997 105.9729992  39.9774990 103.2099997
 105.3929558  40.3099283 103.7663451 110.5509992  38.5684990 103.9249997
 111.1549992  39.1164990 103.4239997 109.6819992  38.8874990 103.6849997
 110.5161126  38.6867070 103.8239180 112.2779992  39.7074990 102.2589997
 112.8899992  39.1934990 101.7319997 112.6609992  40.5844990 102.2819997
 112.4133867  39.7557613 102.1900888  97.7349992  39.0954990 101.6349997
  96.9579992  38.8604990 101.1269997  98.2659992  38.2984990 101.6439997
  97.7004443  38.9556721 101.5667200  96.5719992  38.8934990  97.4379997
  97.0109992  39.5044990  96.8469997  95.9379992  39.4314990  97.9119997
  96.5464103  39.0499233  97.4211376 102.3149992  39.0214990 101.4479997
 103.1889992  39.4104990 101.4179997 102.1789992  38.8064990 102.3709997
 102.4163125  39.0457120 101.5686523 107.8709992  39.0514990 103.0969997
 107.9479992  39.1474990 102.1479997 107.5959992  38.1444990 103.2259997
 107.8443407  38.9419188 102.9843532 109.2249992  39.0774990  98.7899997
 108.5219992  39.6924990  98.5799997 108.7799992  38.2404990  98.9209997
 109.0686550  39.0484679  98.7789819 135.5189992  19.2824990  89.3979997
 134.7979992  19.7224990  88.9469997 135.1529992  19.0314990  90.2469997
 135.3709785  19.3087691  89.4509849  96.4729992  54.8414990  98.3359997
  95.7879992  54.8034990  97.6679997  96.4759992  55.7534990  98.6239997
  96.3797358  54.9596744  98.2836145  98.4329992  40.8094990  95.8809997
  98.9239992  40.1794990  95.3529997  99.0559992  41.1054990  96.5439997
  98.5845459  40.7632419  95.8983667 103.4589992  41.1024990  98.3379997
 103.6369992  40.4554990  99.0209997 103.4049992  41.9364990  98.8049997
 103.4760678  41.1266615  98.4946283 105.3369992  56.0504990  96.7329997
 106.2029992  56.4174990  96.5549997 105.0899992  55.6114990  95.9199997
 105.4222041  56.0413648  96.5985958 112.0459992  55.6134990  99.4129997
 111.8519992  54.8654990  98.8479997 112.0069992  56.3714990  98.8289997
 112.0141907  55.6135770  99.2568077  98.2909992  55.7614990  95.3609997
  98.0229992  56.0474990  96.2339997  99.0619992  55.2154990  95.5129997
  98.3585600  55.7268341  95.5011482 125.6699992  48.2514990 101.5929997
 125.7589992  49.1954990 101.4609997 125.0309992  47.9764990 100.9349997
 125.5958319  48.3434984 101.4860276 124.6029992  47.5064990 105.0119997
 124.5639992  46.8604990 105.7169997 124.2799992  47.0394990 104.2409997
 124.5540199  47.3550089 105.0042865 116.9709992  47.1204990 106.6049997
 117.0119992  46.4954990 107.3289997 117.6739992  47.7444990 106.7869997
 117.0716054  47.1193262 106.7286311 128.3089992  50.4454990 103.3139997
 127.8679992  49.7254990 103.7639997 128.2959992  51.1664990 103.9439997
 128.2468398  50.4443187 103.4607734 137.9859992  18.8824990  88.4279997
 137.1209992  18.9544990  88.8319997 137.9309992  19.4294990  87.6439997
 137.8602066  18.9662678  88.3773371 117.8949992  51.5704990 105.1399997
 117.5249992  50.7684990 104.7709997 118.8359992  51.4024990 105.1869997
 117.9715630  51.4378680 105.0957873 114.5049992  45.2304990 100.5329997
 114.0569992  46.0764990 100.5149997 113.9439992  44.6514990 100.0179997
 114.3678546  45.2679004 100.4608874 115.2149992  47.3924990 102.6589997
 115.4289992  46.6224990 103.1859997 115.9529992  47.4824990 102.0559997
 115.3440073  47.2993546 102.6495786 125.4199992  55.5494990 103.5259997
 126.0399992  54.8734990 103.2529997 125.2119992  55.3314990 104.4339997
 125.4767360  55.4274792 103.6114387 122.9919992  49.9384990 105.4179997
 123.2959992  49.2524990 104.8239997 123.7139992  50.0574990 106.0359997
 123.1311152  49.8607201 105.4202106 131.6549992  41.5404990 106.2789997
 131.7039992  42.1504990 107.0149997 132.0809992  42.0014990 105.5559997
 131.7192851  41.6863266 106.2820532 126.1329992  44.3324990 105.7459997
 126.2749992  43.3864990 105.7659997 126.0269992  44.5394990 104.8169997
 126.1381158  44.2309722 105.6232241 119.2879992  42.4344990 103.0179997
 119.3309992  43.2944990 102.5999997 118.8299992  41.8814990 102.3849997
 119.2319613  42.4775689 102.8751276 127.0099992  42.5654990 101.4189997
 127.6559992  42.2364990 102.0439997 127.5199992  43.0824990 100.7959997
 127.1674392  42.5903710 101.4203248 115.9079992  44.8314990 103.7799997
 116.5619992  44.2814990 104.2119997 115.9319992  44.5574990 102.8639997
 116.0007022  44.7192005 103.7151698 134.9339992  17.9054990  86.3089997
 134.9149992  17.4794990  87.1659997 135.7379992  17.5864990  85.8999997
 135.0401393  17.8040297  86.3710155 121.0639992  46.3814990 102.9959997
 121.6799992  45.8544990 103.5049997 120.4779992  45.7414990 102.5919997
 121.0690652  46.2228919 103.0110277 132.0469992  43.0184990 108.5149997
 131.3579992  43.6764990 108.4199997 132.0619992  42.8204990 109.4519997
 131.9547756  43.0817614 108.6285795 118.0979992  41.3524990 107.0919997
 117.8789992  41.8824990 106.3259997 117.4299992  41.5784990 107.7399997
 117.9777271  41.4556508 107.0746206 125.4669992  50.8524990 100.6359997
 125.1709992  50.5294990  99.7849997 125.1429992  51.7524990 100.6779997
 125.3826501  50.9299058 100.5250893 120.6669992  49.0274990 107.3799997
 119.9269992  49.6264990 107.4829997 121.3809992  49.5814990 107.0639997
 120.6623288  49.1842368 107.3513787 128.7739992  41.8564990 103.3999997
 128.5589992  41.0904990 103.9319997 129.4299992  42.3284990 103.9129997
 128.8332451  41.8154472 103.5421699 117.6919992  43.2444990 105.0449997
 118.3049992  43.8774990 105.4179997 118.2039992  42.7724990 104.3879997
 117.8451680  43.2674006 105.0072830 119.0739992  50.9924990 108.1669997
 119.0689992  51.8714990 107.7889997 118.2209992  50.9084990 108.5919997
 118.9579199  51.1015901 108.1726942 115.1959992  50.6634990  98.9489997
 114.9239992  50.8924990  98.0599997 115.2409992  51.5004990  99.4089997
 115.1648709  50.8081069  98.8896089 128.8209992  52.2844990 105.6619997
 127.8789992  52.3434990 105.8229997 129.0969992  53.1904990 105.5249997
 128.7295771  52.4150270 105.6654827 137.0749992  16.6154990  84.9639997
 136.8559992  15.6984990  85.1329997 137.8989992  16.7554990  85.4299997
 137.1564637  16.5089586  85.0501414 129.1209992  40.5714990 107.0789997
 128.3849992  41.1814990 107.0409997 129.8049992  40.9864990 106.5529997
 129.1125885  40.7111924 107.0026931 122.1239992  38.6574990 104.5449997
 122.0069992  37.7094990 104.4909997 121.2689992  38.9904990 104.8179997
 121.9923691  38.5725842 104.5745072 127.0729992  54.0654990 102.2869997
 127.4979992  53.3584990 101.8019997 127.3899992  54.8674990 101.8699997
 127.1740266  54.0770201 102.1642461 128.2319992  51.9664990 100.7959997
 127.9749992  51.2764990 100.1839997 128.3029992  51.5234990 101.6409997
 128.2064322  51.8121568 100.8265372 129.9179992  50.5334990 109.2729997
 130.0579992  49.9414990 108.5339997 130.0859992  51.4064990 108.9169997
 129.9598734  50.5704041 109.1236937 124.3909992  47.4954990  99.0449997
 123.6789992  48.0304990  98.6939997 125.0819992  47.5504990  98.3849997
 124.3868696  47.5762591  98.9076372 124.4449992  45.9524990  96.0839997
 125.1459992  45.9754990  96.7349997 124.7469992  45.3244990  95.4279997
 124.5818282  45.8707350  96.0844478 131.7599992  46.8734990 107.3389997
 131.1079992  47.5674990 107.4279997 132.2249992  47.0834990 106.5289997
 131.7335357  46.9969544 107.2417056 127.7969992  47.7044990  99.9969997
 127.0649992  47.9334990 100.5699997 128.2439992  46.9914990 100.4519997
 127.7572753  47.6393984 100.1369698 127.6939992  45.8794990 109.0649997
 127.7739992  46.6424990 109.6369997 127.0929992  46.1584990 108.3739997
 127.6237115  46.0217707 109.0499631 135.4469992   1.3834990  82.7789997
 134.6699992   1.1484990  82.2709997 135.9779992   0.5864990  82.7879997
 135.4124443   1.2436721  82.7107200 119.4419992  48.3354990 101.8799997
 119.1119992  47.9644990 101.0609997 120.0299992  47.6644990 102.2259997
 119.4764056  48.1941257 101.8149035 120.8089992  51.7634990 104.5609997
 120.7139992  51.1844990 103.8039997 121.5379992  51.3924990 105.0569997
 120.8946161  51.6340902 104.5245192 119.8089992  47.1034990 105.5129997
 120.3739992  47.2254990 104.7499997 120.1269992  47.7414990 106.1519997
 119.9293430  47.2064448 105.4949094 126.1179992  52.6074990 106.2469997
 125.8769992  53.2694990 106.8949997 125.9199992  51.7724990 106.6719997
 126.0582662  52.5852704 106.3931008 126.6679992  46.8674990  97.6819997
 127.2469992  47.0174990  98.4289997 127.0819992  47.3374990  96.9589997
 126.8033122  46.9516288  97.6865024 117.6089992  47.7014990 109.4589997
 117.6789992  48.3524990 110.1569997 116.7179992  47.8044990 109.1239997
 117.4981802  47.8044769 109.5092231 124.3939992  53.6034990 101.1179997
 124.8679992  53.8994990 101.8949997 123.8309992  54.3424990 100.8839997
 124.3828460  53.7438336 101.1927626 130.3659992  38.6174990  97.4949997
 129.4659992  38.7554990  97.7899997 130.6179992  39.4484990  97.0929997
 130.2767355  38.7488200  97.4810539 118.4319992  47.4044990  99.4689997
 118.1399992  48.1724990  98.9779997 117.7579992  46.7454990  99.3059997
 118.3008843  47.4204537  99.3797695 131.5559992  52.9834990  95.8719997
 131.6289992  53.9224990  96.0419997 132.4609992  52.6784990  95.8149997
 131.6884168  53.0708531  95.8875736 134.2839992   1.1814990  78.5819997
 134.7229992   1.7924990  77.9909997 133.6499992   1.7194990  79.0559997
 134.2584104   1.3379233  78.5651376 114.5249992  49.7674990 108.2839997
 114.0239992  49.7394990 107.4689997 114.5309992  48.8624990 108.5939997
 114.4571690  49.6412234 108.2142770 114.2759992  52.5484990 105.1679997
 115.2219992  52.4034990 105.1489997 114.1629992  53.3324990 105.7049997
 114.3903578  52.6346708 105.2380300 123.4519992  52.7884990 109.7259997
 123.5389992  53.6144990 110.2009997 122.5879992  52.4584990 109.9749997
 123.3471944  52.8569871 109.8246558 123.8659992  56.5604990  99.5319997
 123.7909992  56.4394990  98.5859997 123.8989992  57.5094990  99.6509997
 123.8601862  56.6722492  99.4184840 117.5199992  55.3494990 101.3129997
 117.6719992  55.0014990 102.1919997 116.6689992  54.9924990 101.0579997
 117.4257899  55.2536749 101.3987322 126.9679992  55.7144990  96.5349997
 127.3429992  54.9704990  96.0639997 126.9719992  55.4444990  97.4529997
 127.0198969  55.5760920  96.5946475 126.6369992  55.6404990  99.2839997
 125.7019992  55.7404990  99.4629997 126.9169992  54.9304990  99.8619997
 126.5469270  55.5582300  99.3865984 116.7739992  51.0914990 109.3269997
 116.9899992  50.7294990 110.1869997 115.9189992  50.7164990 109.1169997
 116.6879349  50.9912914 109.4162134 119.3929992  39.5614990 105.3229997
 118.5309992  39.4744990 104.9149997 119.3709992  40.4174990 105.7499997
 119.2720953  39.6653558 105.3249262 124.0559992  39.2834990 108.6969997
 124.4759992  38.8684990 109.4499997 123.1229992  39.1044990 108.8139997
 123.9873736  39.2024921 108.8158950 134.1849992  17.1294990  79.4799997
 133.4999992  17.0914990  78.8119997 134.1879992  18.0414990  79.7679997
 134.0917358  17.2476744  79.4276145 127.3819992  43.0384990 109.5509997
 126.8679992  42.9134990 110.3479997 127.2269992  43.9514990 109.3059997
 127.2906643  43.1447068 109.6270624 128.1449992  47.8994990  95.3119997
 128.1869992  47.6774990  94.3819997 128.9939992  48.2984990  95.5019997
 128.2655253  47.9230510  95.2103804 123.7179992  41.7754990  95.9819997
 123.4639992  41.7944990  96.9049997 123.4609992  40.9044990  95.6809997
 123.6485133  41.6603121  96.0675065 119.4839992  44.5264990 106.4179997
 118.8419992  44.4864990 107.1269997 119.5209992  45.4534990 106.1799997
 119.4011659  44.6462540 106.4828463 119.4809992  44.7474990 101.3299997
 118.5879992  44.4074990 101.2709997 119.9319992  44.3704990 100.5739997
 119.4197185  44.6500220 101.2197698 125.0169992  45.1634990 100.1469997
 124.6079992  45.9784990  99.8549997 125.7369992  45.0234990  99.5319997
 125.0583946  45.2559963 100.0239616 126.0209992  44.6094990 102.9609997
 125.8259992  45.2154990 102.2459997 126.2029992  43.7764990 102.5259997
 126.0189272  44.5797955 102.8044075 117.2339992  44.8474990 108.2849997
 117.1959992  45.2474990 109.1529997 116.7429992  44.0304990 108.3749997
 117.1624246  44.7918842 108.4161171 120.5999992  42.2214990  95.0829997
 120.1689992  41.7764990  95.8129997 119.8819992  42.5924990  94.5709997
 120.4439363  42.2107979  95.1136194 113.8419992  41.9634990 102.1349997
 114.4729992  41.9344990 102.8549997 114.2919992  41.5384990 101.4049997
 113.9890905  41.9020839 102.1347479 136.1449992   3.0974990  77.0249997
 136.6359992   2.4674990  76.4969997 136.7679992   3.3934990  77.6879997
 136.2965459   3.0512419  77.0423667 115.1159992  42.7094990  97.5589997
 115.5909992  43.3004990  96.9739997 114.3989992  43.2394990  97.9059997
 115.0840406  42.8621011  97.5258495 125.2849992  46.2474990 107.6319997
 125.6089992  45.6164990 106.9889997 124.8449992  45.7134990 108.2929997
 125.2698707  46.0888261 107.6333195 122.0629992  42.1754990 102.4159997
 121.1519992  42.2324990 102.7049997 122.5679992  42.1154990 103.2269997
 122.0066873  42.1751838 102.5651190 116.8909992  43.8044990 101.2429997
 116.0019992  43.9034990 100.9029997 117.1869992  42.9624990 100.8969997
 116.8094001  43.7042473 101.1497318 120.5439992  43.8044990  98.8989997
 121.4759992  43.9334990  99.0769997 120.3289992  44.4734990  98.2499997
 120.6424245  43.9126452  98.8355602 126.4679992  41.4104990 105.6799997
 125.7909992  41.5414990 106.3439997 125.9819992  41.2554990 104.8699997
 126.3097265  41.4074665 105.6613380 119.2179992  44.9984990  96.4659997
 118.6759992  44.6194990  95.7749997 120.0519992  45.1934990  96.0369997
 119.2564283  44.9729383  96.3134298 123.3829992  44.9624990 104.3029997
 123.9469992  44.4164990 103.7559997 123.2349992  44.4414990 105.0919997
 123.4403037  44.8171798 104.3347212 118.3849992  41.0994990 100.7209997
 118.0669992  40.1964990 100.6859997 119.1659992  41.1014990 100.1689997
 118.4471560  40.9761148 100.6414975 122.0089992  43.3514990 106.7169997
 121.1739992  43.8054990 106.8269997 122.5329992  43.6274990 107.4689997
 121.9655070  43.4509677 106.8337134 135.4049992   1.8974990  92.2959997
 135.0389992   1.1314990  92.7389997 136.3179992   1.9264990  92.5829997
 135.4783225   1.7966917  92.3953441 122.5529992  49.5644990  98.4019997
 121.8079992  49.0564990  98.0789997 122.4189992  49.6134990  99.3479997
 122.4328633  49.5015714  98.4857563 129.7029992  48.6974990 107.1879997
 130.3449992  49.1534990 106.6449997 128.8729992  48.8104990 106.7259997
 129.6787352  48.7753223 107.0510234 126.4509992  42.3784990  96.6009997
 125.5119992  42.4894990  96.4499997 126.7479992  43.2344990  96.9069997
 126.3626371  42.5095327  96.6217362 124.0729992  49.7484990 109.6389997
 123.7269992  49.3664990 110.4449997 123.8729992  50.6814990 109.7099997
 123.9985400  49.8223489 109.7590401 127.1689992  44.2454990  98.2619997
 128.0609992  44.1074990  98.5809997 127.2259992  45.0364990  97.7249997
 127.2987380  44.3334777  98.2330981 117.6779992  48.8594990 104.1709997
 118.4229992  48.8564990 103.5699997 117.7559992  48.0354990 104.6529997
 117.7904158  48.7477928 104.1539136 124.6789992  51.0224990  97.4269997
 124.3839992  51.8494990  97.8089997 123.9759992  50.4034990  97.6229997
 124.5435855  51.0519458  97.5057634 114.6859992  47.3194990 109.4859997
 114.9089992  46.9014990 110.3179997 114.0839992  46.7074990 109.0639997
 114.6350802  47.1795216 109.5427561 126.3229992  52.2104990 109.5889997
 125.4219992  52.3934990 109.3209997 126.3569992  52.4694990 110.5099997
 126.2043021  52.2705505 109.6768206 132.0539992  44.4544990  97.9559997
 131.4999992  44.0584990  97.2839997 132.1549992  45.3654990  97.6789997
 131.9917084  44.5233565  97.8264381 137.3779992   1.2474990  93.8319997
 138.2769992   0.9734990  93.6469997 136.9919992   0.5054990  94.2959997
 137.4487237   1.1096520  93.8694693 130.3489992  53.2404990  98.4209997
 129.9769992  52.4154990  98.7309997 130.6269992  53.0574990  97.5239997
 130.3355997  53.1026160  98.3421551 127.5099992  48.0484990 105.4429997
 126.5819992  47.8174990 105.4159997 127.9609992  47.2714990 105.1129997
 127.4438165  47.9117785 105.3946772 120.0529992  52.3774990 101.5759997
 120.5799992  53.1504990 101.3749997 119.1729992  52.6014990 101.2739997
 120.0061793  52.5136652 101.5076304 115.8079992  47.2394990  96.1629997
 116.4239992  47.8664990  96.5419997 114.9459992  47.5554990  96.4339997
 115.7758195  47.3680810  96.2515369 121.4799992  50.0404990 101.1519997
 121.2389992  50.9654990 101.1939997 120.7399992  49.5814990 101.5479997
 121.3468934  50.1050881 101.2113191 121.9949992  54.1894990 107.4669997
 122.3579992  55.0434990 107.2339997 122.5269992  53.8974990 108.2079997
 122.1165141  54.2668907 107.5352079 120.1629992  55.0614990 100.6969997
 119.2139992  55.1674990 100.7489997 120.5149992  55.8824990 101.0419997
 120.0806214  55.1869361 100.7507317 125.5389992  50.2884990 107.1679997
 125.1129992  50.0604990 107.9939997 126.1199992  49.5494990 106.9849997
 125.5591587  50.1574084 107.2564111 127.7419992  51.2174990  96.2419997
 128.0949992  50.8374990  97.0459997 126.7929992  51.1234990  96.3279997
 127.6620985  51.1527330  96.3637738 128.1979992  54.8404990 109.6369997
 127.5959992  54.2844990 109.1419997 128.4789992  55.5074990 109.0109997
 128.1535757  54.8545755 109.4845657  12.5339992  29.3954990  82.7369997
  12.6229992  30.3394990  82.6049997  11.8949992  29.1204990  82.0789997
  12.4598319  29.4874984  82.6300276 132.2449992  55.6964990  96.4429997
 132.9889992  56.2824990  96.3029997 131.5509992  56.2654990  96.7759997
 132.2529809  55.8535830  96.4688572 116.3199992  42.0734990 109.0439997
 115.4269992  42.4114990 108.9769997 116.2209992  41.2174990 109.4619997
 116.1845241  42.0040941 109.0912982 128.6079992  49.8894990  98.4679997
 128.3309992  49.1614990  99.0239997 129.5349992  50.0084990  98.6739997
 128.6954181  49.8060068  98.5718972 115.9709992  53.8774990 107.4789997
 116.1879992  52.9454990 107.4479997 116.2179992  54.1524990 108.3629997
 116.0340543  53.7870877 107.5941412 121.8329992  52.3294990  94.6889997
 122.0719992  51.5804990  94.1409997 121.5639992  51.9414990  95.5209997
 121.8292804  52.1746524  94.7266352 120.7699992  51.8994990  97.1449997
 120.9169992  51.3794990  97.9349997 120.7669992  52.8064990  97.4509997
 120.7897300  51.9508975  97.2945877 117.2229992  49.1514990  97.6549997
 116.5369992  49.5044990  98.2219997 117.7459992  49.9144990  97.4089997
 117.1999033  49.3028757  97.6992644 125.0539992  41.8144990 107.9339997
 125.7529992  41.8884990 108.5839997 124.6739992  40.9494990 108.0889997
 125.0982095  41.7077402 108.0437982 125.8389992  41.4664990  99.0309997
 126.0589992  41.9374990  98.2279997 126.3969992  41.8604990  99.7019997
 125.9445851  41.5843272  99.0116134 123.5079992  53.5964990  97.8939997
 122.6909992  54.0934990  97.9469997 124.0369992  54.0724990  97.2539997
 123.4677898  53.7288123  97.8147274  11.4669992  28.6504990  86.1559997
  11.4279992  28.0044990  86.8609997  11.1439992  28.1834990  85.3849997
  11.4180199  28.4990089  86.1482865 123.0389992  43.1944990  99.8659997
 123.8509992  43.6984990  99.9119997 122.7939992  43.0494990 100.7799997
 123.1171091  43.2439366  99.9958552 123.5749992  44.1804990 109.0509997
 123.6939992  44.7544990 109.8079997 124.2299992  43.4924990 109.1659997
 123.6798684  44.1660205 109.1701656 123.9229992  40.2754990 100.8039997
 123.5759992  40.8924990 101.4489997 124.5809992  40.7764990 100.3229997
 123.9645290  40.4276384 100.8271635 120.8459992  54.6404990  97.8759997
 121.0069992  55.4404990  97.3749997 120.6489992  54.9474990  98.7609997
 120.8413919  54.7914140  97.9270988 119.5799992  41.3384990  97.4919997
 119.4969992  42.2264990  97.8379997 120.4699992  41.0734990  97.7229997
 119.6889751  41.4242482  97.5706066 129.7789992  42.0874990 109.8859997
 128.8629992  42.3494990 109.7979997 130.1149992  42.0844990 108.9889997
 129.6989789  42.1229637 109.7527829 128.3809992  45.8374990 103.9819997
 127.5839992  45.4224990 103.6529997 128.8259992  45.1474990 104.4729997
 128.3320317  45.6873197 104.0033556 117.8389992  51.7654990  96.5519997
 118.4309992  52.4654990  96.8279997 118.2979992  51.3324990  95.8329997
 117.9821172  51.8027371  96.4925163 116.1549992  44.4304990  95.6679997
 116.1099992  45.3694990  95.8469997 115.2669992  44.1944990  95.3979997
 116.0288472  44.5271946  95.6560282 129.4679992  55.0934990 105.6039997
 129.3119992  55.7724990 104.9469997 130.3999992  55.1654990 105.8069997
 129.5727328  55.1961586 105.5415529   3.8349992  28.2644990  87.7489997
   3.8759992  27.6394990  88.4729997   4.5379992  28.8884990  87.9309997
   3.9356054  28.2633262  87.8726311 116.9629992  39.2114990 104.3409997
 116.7339992  39.2704990 103.4139997 116.5199992  38.4204990 104.6479997
 116.8717387  39.1126412 104.2555223 115.8929992  53.1524990 100.5019997
 115.0609992  53.6244990 100.5289997 116.4389992  53.6624990  99.9029997
 115.8528710  53.2860317 100.4247570 123.8709992  54.1924990  94.8269997
 123.2269992  53.5614990  95.1489997 124.6329992  53.6614990  94.5949997
 123.8858260  54.0343035  94.8397298 128.4749992  54.0094990  95.0609997
 128.7579992  53.2144990  95.5139997 129.2149992  54.2424990  94.4999997
 128.6137295  53.9322349  95.0471469 119.4299992  49.9184990  94.9179997
 119.4939992  49.1244990  95.4489997 120.0829992  49.8004990  94.2289997
 119.5271168  49.7937748  94.8975119 124.7819992  50.9654990  94.6539997
 124.5139992  51.1464990  95.5549997 124.5759992  50.0404990  94.5229997
 124.7174251  50.8651528  94.7596809 127.4789992  49.4604990 109.6019997
 128.2239992  50.0494990 109.4819997 126.7209992  50.0424990 109.6649997
 127.4785185  49.6197000 109.5940940 120.5789992  47.8914990  97.2239997
 120.1199992  47.4074990  97.9099997 120.8339992  47.2224990  96.5879997
 120.5506178  47.7348511  97.2319785 119.8679992  45.7844990 109.5799997
 119.2499992  46.4584990 109.8609997 120.2119992  46.1054990 108.7469997
 119.8298181  45.9203233 109.5058266 121.6499992  46.1344990  95.4869997
 121.4699992  45.9794990  94.5589997 122.5999992  46.2424990  95.5309997
 121.7538016  46.1279264  95.3662123  15.1729992  31.5894990  84.4579997
  14.7319992  30.8694990  84.9079997  15.1599992  32.3104990  85.0879997
  15.1108398  31.5883187  84.6047734 131.0399992  48.4884990  94.9319997
 130.7669992  48.0644990  94.1189997 131.0799992  49.4204990  94.7149997
 131.0080201  48.5563523  94.7913548 120.6199992  41.5084990 108.1549997
 121.1559992  41.9604990 107.5029997 119.7679992  41.4004990 107.7329997
 120.5781648  41.5557883 108.0086395 122.2019992  46.9484990 108.3949997
 122.9529992  46.7924990 107.8219997 121.8629992  47.8004990 108.1189997
 122.2589052  47.0422745 108.2793469 121.4259992  38.9654990 108.5869997
 121.3279992  39.9114990 108.4809997 120.6829992  38.5924990 108.1109997
 121.3122363  39.0445987 108.5082029 121.5479992  56.8244990  96.4879997
 122.4809992  56.9824990  96.6319997 121.2829992  57.5004990  95.8629997
 121.6399846  56.9374567  96.4232930 115.1159992  51.4614990  95.9709997
 116.0299992  51.5404990  96.2439997 115.1229992  50.7744990  95.3039997
 115.2420769  51.3794735  95.9182366 113.7649992  56.8544990 101.0479997
 113.1179992  56.3924990 100.5149997 114.1199992  56.1824990 101.6309997
 113.7243861  56.7004707 101.0537939 114.6349992  54.9344990 102.8529997
 114.3009992  54.0544990 103.0249997 114.8569992  55.2804990 103.7169997
 114.6192677  54.8607365 102.9934252 132.1839992  55.7444990 105.8329997
 132.1619992  55.9294990 106.7719997 132.8739992  56.3124990 105.4919997
 132.2743439  55.8466898 105.9154774 131.7469992  55.3114990 108.7549997
 131.2599992  54.5754990 108.3839997 132.2959992  54.9174990 109.4329997
 131.7546101  55.1576267 108.7959034   4.7589992  32.7144990  86.2839997
   4.3889992  31.9124990  85.9149997   5.6999992  32.5464990  86.3309997
   4.8355630  32.5818680  86.2397873 131.4989992  49.3574990  98.9069997
 132.3489992  49.7784990  99.0349997 131.5039992  48.6174990  99.5149997
 131.6159745  49.3151347  99.0066479 131.8929992  47.4114990 100.7309997
 131.1669992  46.9314990 101.1289997 132.4739992  47.6164990 101.4629997
 131.8722504  47.3735592 100.8844199 131.6519992  50.1964990 105.6789997
 132.4859992  49.8184990 105.3979997 131.7639992  51.1394990 105.5599997
 131.7811917  50.2722954 105.6244844 130.1379992  53.0744990 107.9859997
 129.4909992  53.3994990 108.6109997 129.6209992  52.6334990 107.3109997
 129.9794068  53.0594726 107.9804918 132.1609992  47.3124990  97.1219997
 131.6399992  47.6684990  96.4029997 132.1279992  47.9874990  97.7999997
 132.0851525  47.4525273  97.1151408 130.5099992  44.5514990  95.6729997
 130.6069992  45.2184990  94.9929997 130.3699992  43.7364990  95.1909997
 130.5043428  44.5325667  95.5148311 129.6799992  45.9324990 101.2939997
 129.5299992  44.9874990 101.2739997 129.3259992  46.2134990 102.1379997
 129.6116351  45.8411656 101.4053202 114.7149992  48.0104990 105.3039997
 114.8989992  47.9284990 104.3689997 115.5639992  47.8864990 105.7279997
 114.8550259  47.9824915 105.2331771 129.7579992  41.9594990  94.7899997
 130.3679992  41.5884990  95.4269997 128.9209992  41.5384990  94.9859997
 129.7283704  41.8517942  94.9037077 129.3899992  43.5144990  99.7559997
 129.6699992  42.6074990  99.8809997 130.1489992  43.9484990  99.3669997
 129.5309471  43.4490654  99.7205052   1.3689992  26.3744990  81.6769997
   0.9209992  27.2204990  81.6589997   0.8079992  25.7954990  81.1619997
   1.2318546  26.4119004  81.6048874 130.0019992  44.0964990 105.1919997
 130.9349992  44.3084990 105.1579997 129.7669992  44.1974990 106.1149997
 130.0978357  44.1391303 105.3120232 130.0309992  44.8334990 107.9679997
 129.1879992  45.1014990 108.3339997 130.4739992  45.6554990 107.7569997
 129.9754358  44.9813294 107.9895999 130.0039992  40.7774990  99.8049997
 130.1859992  40.3284990 100.6299997 129.4039992  40.1934990  99.3409997
 129.9478187  40.6370563  99.8552721 115.5339992  41.5934990 104.3359997
 115.9789992  40.8014990 104.6379997 115.9999992  42.3094990 104.7669997
 115.6579059  41.5819485 104.4356061 113.8379992  44.5924990 105.4049997
 114.3299992  44.3714990 104.6149997 114.1999992  45.4324990 105.6859997
 113.9543429  44.6758220 105.3347918 131.8699992  40.8454990  96.3329997
 132.2829992  40.1244990  95.8569997 132.5519992  41.5144990  96.3909997
 132.0185712  40.8374304  96.2758247 114.1509992  40.8504990  99.4599997
 113.2259992  41.0584990  99.3299997 114.6049992  41.3344990  98.7699997
 114.0857401  40.9443895  99.3489433 128.9219992  55.8344990 101.4049997
 129.5739992  55.4864990 100.7969997 129.4329992  56.3224990 102.0509997
 129.0802872  55.8528248 101.4090964 114.1149992  39.5884990 107.8039997
 113.4499992  39.3424990 108.4469997 113.6719992  40.2104990 107.2269997
 113.9641168  39.6389225 107.8139830 119.2609992  53.7374990 108.2069997
 118.8359992  54.5474990 107.9239997 120.1649992  53.8234990 107.9049997
 119.3251002  53.8598728 108.1274798   2.0789992  28.5364990  83.8029997
   2.2929992  27.7664990  84.3299997   2.8169992  28.6264990  83.1999997
   2.2080073  28.4433546  83.7935786 130.8349992  39.0124990 109.4899997
 130.0219992  39.3374990 109.1019997 131.0679992  38.2514990 108.9569997
 130.7552566  38.9541570 109.3649196 116.6629992  56.9944990 108.2539997
 115.9419992  57.4344990 107.8029997 116.2969992  56.7434990 109.1029997
 116.5149785  57.0207691 108.3069849 119.1299992  56.5944990 107.2839997
 118.2649992  56.6664990 107.6879997 119.0749992  57.1414990 106.4999997
 119.0042066  56.6782678 107.2333371 123.8409992  56.4824990 106.4599997
 123.3839992  57.0114990 105.8059997 124.0029992  57.0854990 107.1849997
 123.8003919  56.6363990 106.4685740 126.1679992  55.3604990 107.4049997
 125.2639992  55.5254990 107.1389997 126.5969992  56.2134990 107.3389997
 126.1022017  55.4984184 107.3596495 128.7719992  56.9304990 107.6999997
 128.5909992  57.8464990 107.4889997 128.9489992  56.5194990 106.8529997
 128.7711377  57.0003365 107.5567178 116.0779992  55.6174990 105.1649997
 116.0589992  55.1914990 106.0219997 116.8819992  55.2984990 104.7559997
 116.1841393  55.5160297 105.2270155 118.2189992  54.3274990 103.8199997
 117.9999992  53.4104990 103.9889997 119.0429992  54.4674990 104.2859997
 118.3004637  54.2209586 103.9061414 120.7559992  54.7974990 104.6679997
 120.9689992  53.9094990 104.3809997 120.8209992  54.7624990 105.6229997
 120.7939075  54.6713318 104.7577355 124.2649992  40.4614990 103.8129997
 123.5899992  39.8314990 104.0679997 124.8289992  39.9774990 103.2099997
 124.2489558  40.3099283 103.7663451  12.2839992  36.6934990  84.6699997
  12.9039992  36.0174990  84.3969997  12.0759992  36.4754990  85.5779997
  12.3407360  36.5714792  84.7554387 129.4069992  38.5684990 103.9249997
 130.0109992  39.1164990 103.4239997 128.5379992  38.8874990 103.6849997
 129.3721126  38.6867070 103.8239180 131.1339992  39.7074990 102.2589997
 131.7459992  39.1934990 101.7319997 131.5169992  40.5844990 102.2819997
 131.2693867  39.7557613 102.1900888 116.5909992  39.0954990 101.6349997
 115.8139992  38.8604990 101.1269997 117.1219992  38.2984990 101.6439997
 116.5564443  38.9556721 101.5667200 115.4279992  38.8934990  97.4379997
 115.8669992  39.5044990  96.8469997 114.7939992  39.4314990  97.9119997
 115.4024103  39.0499233  97.4211376 121.1709992  39.0214990 101.4479997
 122.0449992  39.4104990 101.4179997 121.0349992  38.8064990 102.3709997
 121.2723125  39.0457120 101.5686523 126.7269992  39.0514990 103.0969997
 126.8039992  39.1474990 102.1479997 126.4519992  38.1444990 103.2259997
 126.7003407  38.9419188 102.9843532 128.0809992  39.0774990  98.7899997
 127.3779992  39.6924990  98.5799997 127.6359992  38.2404990  98.9209997
 127.9246550  39.0484679  98.7789819 115.3289992  54.8414990  98.3359997
 114.6439992  54.8034990  97.6679997 115.3319992  55.7534990  98.6239997
 115.2357358  54.9596744  98.2836145 117.2889992  40.8094990  95.8809997
 117.7799992  40.1794990  95.3529997 117.9119992  41.1054990  96.5439997
 117.4405459  40.7632419  95.8983667 122.3149992  41.1024990  98.3379997
 122.4929992  40.4554990  99.0209997 122.2609992  41.9364990  98.8049997
 122.3320678  41.1266615  98.4946283   9.8559992  31.0824990  86.5619997
  10.1599992  30.3964990  85.9679997  10.5779992  31.2014990  87.1799997
   9.9951152  31.0047201  86.5642106 124.1929992  56.0504990  96.7329997
 125.0589992  56.4174990  96.5549997 123.9459992  55.6114990  95.9199997
 124.2782041  56.0413648  96.5985958 130.9019992  55.6134990  99.4129997
 130.7079992  54.8654990  98.8479997 130.8629992  56.3714990  98.8289997
 130.8701907  55.6135770  99.2568077 117.1469992  55.7614990  95.3609997
 116.8789992  56.0474990  96.2339997 117.9179992  55.2154990  95.5129997
 117.2145600  55.7268341  95.5011482 135.8269992  47.1204990 106.6049997
 135.8679992  46.4954990 107.3289997 136.5299992  47.7444990 106.7869997
 135.9276054  47.1193262 106.7286311 136.7509992  51.5704990 105.1399997
 136.3809992  50.7684990 104.7709997 137.6919992  51.4024990 105.1869997
 136.8275630  51.4378680 105.0957873 133.3609992  45.2304990 100.5329997
 132.9129992  46.0764990 100.5149997 132.7999992  44.6514990 100.0179997
 133.2238546  45.2679004 100.4608874 134.0709992  47.3924990 102.6589997
 134.2849992  46.6224990 103.1859997 134.8089992  47.4824990 102.0559997
 134.2000073  47.2993546 102.6495786 138.1439992  42.4344990 103.0179997
 138.1869992  43.2944990 102.5999997 137.6859992  41.8814990 102.3849997
 138.0879613  42.4775689 102.8751276 134.7639992  44.8314990 103.7799997
 135.4179992  44.2814990 104.2119997 134.7879992  44.5574990 102.8639997
 134.8567022  44.7192005 103.7151698 136.9539992  41.3524990 107.0919997
 136.7349992  41.8824990 106.3259997 136.2859992  41.5784990 107.7399997
 136.8337271  41.4556508 107.0746206  18.5189992  22.6844990  87.4229997
  18.5679992  23.2944990  88.1589997  18.9449992  23.1454990  86.6999997
  18.5832851  22.8303266  87.4260532 139.5229992  49.0274990 107.3799997
 138.7829992  49.6264990 107.4829997 140.2369992  49.5814990 107.0639997
 139.5183288  49.1842368 107.3513787 136.5479992  43.2444990 105.0449997
 137.1609992  43.8774990 105.4179997 137.0599992  42.7724990 104.3879997
 136.7011680  43.2674006 105.0072830 137.9299992  50.9924990 108.1669997
 137.9249992  51.8714990 107.7889997 137.0769992  50.9084990 108.5919997
 137.8139199  51.1015901 108.1726942 134.0519992  50.6634990  98.9489997
 133.7799992  50.8924990  98.0599997 134.0969992  51.5004990  99.4089997
 134.0208709  50.8081069  98.8896089 138.2979992  48.3354990 101.8799997
 137.9679992  47.9644990 101.0609997 138.8859992  47.6644990 102.2259997
 138.3324056  48.1941257 101.8149035 138.6649992  47.1034990 105.5129997
 139.2299992  47.2254990 104.7499997 138.9829992  47.7414990 106.1519997
 138.7853430  47.2064448 105.4949094 136.4649992  47.7014990 109.4589997
 136.5349992  48.3524990 110.1569997 135.5739992  47.8044990 109.1239997
 136.3541802  47.8044769 109.5092231 137.2879992  47.4044990  99.4689997
 136.9959992  48.1724990  98.9779997 136.6139992  46.7454990  99.3059997
 137.1568843  47.4204537  99.3797695 133.3809992  49.7674990 108.2839997
 132.8799992  49.7394990 107.4689997 133.3869992  48.8624990 108.5939997
 133.3131690  49.6412234 108.2142770 133.1319992  52.5484990 105.1679997
 134.0779992  52.4034990 105.1489997 133.0189992  53.3324990 105.7049997
 133.2463578  52.6346708 105.2380300  12.9969992  25.4764990  86.8899997
  13.1389992  24.5304990  86.9099997  12.8909992  25.6834990  85.9609997
  13.0021158  25.3749722  86.7672241 136.3759992  55.3494990 101.3129997
 136.5279992  55.0014990 102.1919997 135.5249992  54.9924990 101.0579997
 136.2817899  55.2536749 101.3987322 135.6299992  51.0914990 109.3269997
 135.8459992  50.7294990 110.1869997 134.7749992  50.7164990 109.1169997
 135.5439349  50.9912914 109.4162134 138.2489992  39.5614990 105.3229997
 137.3869992  39.4744990 104.9149997 138.2269992  40.4174990 105.7499997
 138.1280953  39.6653558 105.3249262 138.3399992  44.5264990 106.4179997
 137.6979992  44.4864990 107.1269997 138.3769992  45.4534990 106.1799997
 138.2571659  44.6462540 106.4828463 138.3369992  44.7474990 101.3299997
 137.4439992  44.4074990 101.2709997 138.7879992  44.3704990 100.5739997
 138.2757185  44.6500220 101.2197698 136.0899992  44.8474990 108.2849997
 136.0519992  45.2474990 109.1529997 135.5989992  44.0304990 108.3749997
 136.0184246  44.7918842 108.4161171 139.4559992  42.2214990  95.0829997
 139.0249992  41.7764990  95.8129997 138.7379992  42.5924990  94.5709997
 139.2999363  42.2107979  95.1136194 132.6979992  41.9634990 102.1349997
 133.3289992  41.9344990 102.8549997 133.1479992  41.5384990 101.4049997
 132.8450905  41.9020839 102.1347479 133.9719992  42.7094990  97.5589997
 134.4469992  43.3004990  96.9739997 133.2549992  43.2394990  97.9059997
 133.9400406  42.8621011  97.5258495 135.7469992  43.8044990 101.2429997
 134.8579992  43.9034990 100.9029997 136.0429992  42.9624990 100.8969997
 135.6654001  43.7042473 101.1497318   6.1519992  23.5784990  84.1619997
   6.1949992  24.4384990  83.7439997   5.6939992  23.0254990  83.5289997
   6.0959613  23.6215689  84.0191276 139.3999992  43.8044990  98.8989997
 140.3319992  43.9334990  99.0769997 139.1849992  44.4734990  98.2499997
 139.4984245  43.9126452  98.8355602 138.0739992  44.9984990  96.4659997
 137.5319992  44.6194990  95.7749997 138.9079992  45.1934990  96.0369997
 138.1124283  44.9729383  96.3134298 137.2409992  41.0994990 100.7209997
 136.9229992  40.1964990 100.6859997 138.0219992  41.1014990 100.1689997
 137.3031560  40.9761148 100.6414975 136.5339992  48.8594990 104.1709997
 137.2789992  48.8564990 103.5699997 136.6119992  48.0354990 104.6529997
 136.6464158  48.7477928 104.1539136 133.5419992  47.3194990 109.4859997
 133.7649992  46.9014990 110.3179997 132.9399992  46.7074990 109.0639997
 133.4910802  47.1795216 109.5427561 138.9089992  52.3774990 101.5759997
 139.4359992  53.1504990 101.3749997 138.0289992  52.6014990 101.2739997
 138.8621793  52.5136652 101.5076304 134.6639992  47.2394990  96.1629997
 135.2799992  47.8664990  96.5419997 133.8019992  47.5554990  96.4339997
 134.6318195  47.3680810  96.2515369 139.0189992  55.0614990 100.6969997
 138.0699992  55.1674990 100.7489997 139.3709992  55.8824990 101.0419997
 138.9366214  55.1869361 100.7507317 135.1759992  42.0734990 109.0439997
 134.2829992  42.4114990 108.9769997 135.0769992  41.2174990 109.4619997
 135.0405241  42.0040941 109.0912982 134.8269992  53.8774990 107.4789997
 135.0439992  52.9454990 107.4479997 135.0739992  54.1524990 108.3629997
 134.8900543  53.7870877 107.5941412  13.8739992  23.7094990  82.5629997
  14.5199992  23.3804990  83.1879997  14.3839992  24.2264990  81.9399997
  14.0314392  23.7343710  82.5643248 136.0789992  49.1514990  97.6549997
 135.3929992  49.5044990  98.2219997 136.6019992  49.9144990  97.4089997
 136.0559033  49.3028757  97.6992644 138.4359992  41.3384990  97.4919997
 138.3529992  42.2264990  97.8379997 139.3259992  41.0734990  97.7229997
 138.5449751  41.4242482  97.5706066 136.6949992  51.7654990  96.5519997
 137.2869992  52.4654990  96.8279997 137.1539992  51.3324990  95.8329997
 136.8381172  51.8027371  96.4925163 135.0109992  44.4304990  95.6679997
 134.9659992  45.3694990  95.8469997 134.1229992  44.1944990  95.3979997
 134.8848472  44.5271946  95.6560282 135.8189992  39.2114990 104.3409997
 135.5899992  39.2704990 103.4139997 135.3759992  38.4204990 104.6479997
 135.7277387  39.1126412 104.2555223 134.7489992  53.1524990 100.5019997
 133.9169992  53.6244990 100.5289997 135.2949992  53.6624990  99.9029997
 134.7088710  53.2860317 100.4247570 138.2859992  49.9184990  94.9179997
 138.3499992  49.1244990  95.4489997 138.9389992  49.8004990  94.2289997
 138.3831168  49.7937748  94.8975119 139.4349992  47.8914990  97.2239997
 138.9759992  47.4074990  97.9099997 139.6899992  47.2224990  96.5879997
 139.4066178  47.7348511  97.2319785 138.7239992  45.7844990 109.5799997
 138.1059992  46.4584990 109.8609997 139.0679992  46.1054990 108.7469997
 138.6858181  45.9203233 109.5058266 139.4759992  41.5084990 108.1549997
 140.0119992  41.9604990 107.5029997 138.6239992  41.4004990 107.7329997
 139.4341648  41.5557883 108.0086395   2.7719992  25.9754990  84.9239997
   3.4259992  25.4254990  85.3559997   2.7959992  25.7014990  84.0079997
   2.8647022  25.8632005  84.8591698 133.9719992  51.4614990  95.9709997
 134.8859992  51.5404990  96.2439997 133.9789992  50.7744990  95.3039997
 134.0980769  51.3794734  95.9182366 132.6209992  56.8544990 101.0479997
 131.9739992  56.3924990 100.5149997 132.9759992  56.1824990 101.6309997
 132.5803861  56.7004707 101.0537939 133.4909992  54.9344990 102.8529997
 133.1569992  54.0544990 103.0249997 133.7129992  55.2804990 103.7169997
 133.4752677  54.8607366 102.9934252 133.5709992  48.0104990 105.3039997
 133.7549992  47.9284990 104.3689997 134.4199992  47.8864990 105.7279997
 133.7110259  47.9824915 105.2331771 134.3899992  41.5934990 104.3359997
 134.8349992  40.8014990 104.6379997 134.8559992  42.3094990 104.7669997
 134.5139059  41.5819485 104.4356061 132.6939992  44.5924990 105.4049997
 133.1859992  44.3714990 104.6149997 133.0559992  45.4324990 105.6859997
 132.8103429  44.6758220 105.3347918 133.0069992  40.8504990  99.4599997
 132.0819992  41.0584990  99.3299997 133.4609992  41.3344990  98.7699997
 132.9417401  40.9443895  99.3489433 132.9709992  39.5884990 107.8039997
 132.3059992  39.3424990 108.4469997 132.5279992  40.2104990 107.2269997
 132.8201168  39.6389225 107.8139830 138.1169992  53.7374990 108.2069997
 137.6919992  54.5474990 107.9239997 139.0209992  53.8234990 107.9049997
 138.1811002  53.8598728 108.1274798 135.5189992  56.9944990 108.2539997
 134.7979992  57.4344990 107.8029997 135.1529992  56.7434990 109.1029997
 135.3709785  57.0207691 108.3069849   7.9279992  27.5254990  84.1399997
   8.5439992  26.9984990  84.6489997   7.3419992  26.8854990  83.7359997
   7.9330652  27.3668919  84.1550277 137.9859992  56.5944990 107.2839997
 137.1209992  56.6664990 107.6879997 137.9309992  57.1414990 106.4999997
 137.8602066  56.6782678 107.2333371 134.9339992  55.6174990 105.1649997
 134.9149992  55.1914990 106.0219997 135.7379992  55.2984990 104.7559997
 135.0401393  55.5160297 105.2270155 137.0749992  54.3274990 103.8199997
 136.8559992  53.4104990 103.9889997 137.8989992  54.4674990 104.2859997
 137.1564637  54.2209586 103.9061414 135.4469992  39.0954990 101.6349997
 134.6699992  38.8604990 101.1269997 135.9779992  38.2984990 101.6439997
 135.4124443  38.9556721 101.5667200 134.2839992  38.8934990  97.4379997
 134.7229992  39.5044990  96.8469997 133.6499992  39.4314990  97.9119997
 134.2584103  39.0499233  97.4211376 134.1849992  54.8414990  98.3359997
 133.4999992  54.8034990  97.6679997 134.1879992  55.7534990  98.6239997
 134.0917358  54.9596744  98.2836145 136.1449992  40.8094990  95.8809997
 136.6359992  40.1794990  95.3529997 136.7679992  41.1054990  96.5439997
 136.2965459  40.7632419  95.8983667 136.0029992  55.7614990  95.3609997
 135.7349992  56.0474990  96.2339997 136.7739992  55.2154990  95.5129997
 136.0705600  55.7268341  95.5011482  12.5339992  67.1074990 101.5929997
  12.6229992  68.0514990 101.4609997  11.8949992  66.8324990 100.9349997
  12.4598319  67.1994984 101.4860276  11.4669992  66.3624990 105.0119997
  11.4279992  65.7164990 105.7169997  11.1439992  65.8954990 104.2409997
  11.4180199  66.2110089 105.0042865  18.9109992  24.1624990  89.6589997
  18.2219992  24.8204990  89.5639997  18.9259992  23.9644990  90.5959997
  18.8187756  24.2257614  89.7725795   3.8349992  65.9764990 106.6049997
   3.8759992  65.3514990 107.3289997   4.5379992  66.6004990 106.7869997
   3.9356054  65.9753262 106.7286311  15.1729992  69.3014990 103.3139997
  14.7319992  68.5814990 103.7639997  15.1599992  70.0224990 103.9439997
  15.1108398  69.3003187 103.4607734   4.7589992  70.4264990 105.1399997
   4.3889992  69.6244990 104.7709997   5.6999992  70.2584990 105.1869997
   4.8355630  70.2938680 105.0957873   1.3689992  64.0864990 100.5329997
   0.9209992  64.9324990 100.5149997   0.8079992  63.5074990 100.0179997
   1.2318546  64.1239004 100.4608874   2.0789992  66.2484990 102.6589997
   2.2929992  65.4784990 103.1859997   2.8169992  66.3384990 102.0559997
   2.2080073  66.1553546 102.6495786  12.2839992  74.4054990 103.5259997
  12.9039992  73.7294990 103.2529997  12.0759992  74.1874990 104.4339997
  12.3407360  74.2834792 103.6114387   9.8559992  68.7944990 105.4179997
  10.1599992  68.1084990 104.8239997  10.5779992  68.9134990 106.0359997
   9.9951152  68.7167201 105.4202106  18.5189992  60.3964990 106.2789997
  18.5679992  61.0064990 107.0149997  18.9449992  60.8574990 105.5559997
  18.5832851  60.5423266 106.2820532  12.9969992  63.1884990 105.7459997
  13.1389992  62.2424990 105.7659997  12.8909992  63.3954990 104.8169997
  13.0021158  63.0869722 105.6232241   6.1519992  61.2904990 103.0179997
   6.1949992  62.1504990 102.5999997   5.6939992  60.7374990 102.3849997
   6.0959613  61.3335689 102.8751276   4.9619992  22.4964990  88.2359997
   4.7429992  23.0264990  87.4699997   4.2939992  22.7224990  88.8839997
   4.8417271  22.5996508  88.2186206  13.8739992  61.4214990 101.4189997
  14.5199992  61.0924990 102.0439997  14.3839992  61.9384990 100.7959997
  14.0314392  61.4463710 101.4203248   2.7719992  63.6874990 103.7799997
   3.4259992  63.1374990 104.2119997   2.7959992  63.4134990 102.8639997
   2.8647022  63.5752005 103.7151698   7.9279992  65.2374990 102.9959997
   8.5439992  64.7104990 103.5049997   7.3419992  64.5974990 102.5919997
   7.9330652  65.0788919 103.0110277  18.9109992  61.8744990 108.5149997
  18.2219992  62.5324990 108.4199997  18.9259992  61.6764990 109.4519997
  18.8187756  61.9377614 108.6285795   4.9619992  60.2084990 107.0919997
   4.7429992  60.7384990 106.3259997   4.2939992  60.4344990 107.7399997
   4.8417271  60.3116508 107.0746206  12.3309992  69.7084990 100.6359997
  12.0349992  69.3854990  99.7849997  12.0069992  70.6084990 100.6779997
  12.2466501  69.7859058 100.5250893   7.5309992  67.8834990 107.3799997
   6.7909992  68.4824990 107.4829997   8.2449992  68.4374990 107.0639997
   7.5263288  68.0402368 107.3513787  15.6379992  60.7124990 103.3999997
  15.4229992  59.9464990 103.9319997  16.2939992  61.1844990 103.9129997
  15.6972451  60.6714472 103.5421699   4.5559992  62.1004990 105.0449997
   5.1689992  62.7334990 105.4179997   5.0679992  61.6284990 104.3879997
   4.7091680  62.1234006 105.0072830   5.9379992  69.8484990 108.1669997
   5.9329992  70.7274990 107.7889997   5.0849992  69.7644990 108.5919997
   5.8219199  69.9575901 108.1726942  12.3309992  31.9964990  81.7799997
  12.0349992  31.6734990  80.9289997  12.0069992  32.8964990  81.8219997
  12.2466501  32.0739058  81.6690893   2.0599992  69.5194990  98.9489997
   1.7879992  69.7484990  98.0599997   2.1049992  70.3564990  99.4089997
   2.0288709  69.6641069  98.8896089  15.6849992  71.1404990 105.6619997
  14.7429992  71.1994990 105.8229997  15.9609992  72.0464990 105.5249997
  15.5935771  71.2710270 105.6654827  15.9849992  59.4274990 107.0789997
  15.2489992  60.0374990 107.0409997  16.6689992  59.8424990 106.5529997
  15.9765885  59.5671924 107.0026931   8.9879992  57.5134990 104.5449997
   8.8709992  56.5654990 104.4909997   8.1329992  57.8464990 104.8179997
   8.8563691  57.4285842 104.5745072  13.9369992  72.9214990 102.2869997
  14.3619992  72.2144990 101.8019997  14.2539992  73.7234990 101.8699997
  14.0380266  72.9330201 102.1642461  15.0959992  70.8224990 100.7959997
  14.8389992  70.1324990 100.1839997  15.1669992  70.3794990 101.6409997
  15.0704322  70.6681568 100.8265372  16.7819992  69.3894990 109.2729997
  16.9219992  68.7974990 108.5339997  16.9499992  70.2624990 108.9169997
  16.8238734  69.4264041 109.1236937  11.2549992  66.3514990  99.0449997
  10.5429992  66.8864990  98.6939997  11.9459992  66.4064990  98.3849997
  11.2508696  66.4322591  98.9076372  11.3089992  64.8084990  96.0839997
  12.0099992  64.8314990  96.7349997  11.6109992  64.1804990  95.4279997
  11.4458282  64.7267350  96.0844478  18.6239992  65.7294990 107.3389997
  17.9719992  66.4234990 107.4279997  19.0889992  65.9394990 106.5289997
  18.5975357  65.8529544 107.2417056   7.5309992  30.1714990  88.5239997
   6.7909992  30.7704990  88.6269997   8.2449992  30.7254990  88.2079997
   7.5263288  30.3282368  88.4953787  14.6609992  66.5604990  99.9969997
  13.9289992  66.7894990 100.5699997  15.1079992  65.8474990 100.4519997
  14.6212753  66.4953984 100.1369698  14.5579992  64.7354990 109.0649997
  14.6379992  65.4984990 109.6369997  13.9569992  65.0144990 108.3739997
  14.4877115  64.8777707 109.0499631   6.3059992  67.1914990 101.8799997
   5.9759992  66.8204990 101.0609997   6.8939992  66.5204990 102.2259997
   6.3404056  67.0501257 101.8149035   7.6729992  70.6194990 104.5609997
   7.5779992  70.0404990 103.8039997   8.4019992  70.2484990 105.0569997
   7.7586161  70.4900902 104.5245192   6.6729992  65.9594990 105.5129997
   7.2379992  66.0814990 104.7499997   6.9909992  66.5974990 106.1519997
   6.7933430  66.0624448 105.4949094  12.9819992  71.4634990 106.2469997
  12.7409992  72.1254990 106.8949997  12.7839992  70.6284990 106.6719997
  12.9222662  71.4412704 106.3931008  13.5319992  65.7234990  97.6819997
  14.1109992  65.8734990  98.4289997  13.9459992  66.1934990  96.9589997
  13.6673122  65.8076288  97.6865024   4.4729992  66.5574990 109.4589997
   4.5429992  67.2084990 110.1569997   3.5819992  66.6604990 109.1239997
   4.3621802  66.6604769 109.5092231  11.2579992  72.4594990 101.1179997
  11.7319992  72.7554990 101.8949997  10.6949992  73.1984990 100.8839997
  11.2468460  72.5998336 101.1927626  17.2299992  57.4734990  97.4949997
  16.3299992  57.6114990  97.7899997  17.4819992  58.3044990  97.0929997
  17.1407355  57.6048200  97.4810539  15.6379992  23.0004990  84.5439997
  15.4229992  22.2344990  85.0759997  16.2939992  23.4724990  85.0569997
  15.6972451  22.9594472  84.6861699   5.2959992  66.2604990  99.4689997
   5.0039992  67.0284990  98.9779997   4.6219992  65.6014990  99.3059997
   5.1648843  66.2764537  99.3797695  18.4199992  71.8394990  95.8719997
  18.4929992  72.7784990  96.0419997  19.3249992  71.5344990  95.8149997
  18.5524168  71.9268531  95.8875736   1.3889992  68.6234990 108.2839997
   0.8879992  68.5954990 107.4689997   1.3949992  67.7184990 108.5939997
   1.3211690  68.4972234 108.2142770   1.1399992  71.4044990 105.1679997
   2.0859992  71.2594990 105.1489997   1.0269992  72.1884990 105.7049997
   1.2543578  71.4906708 105.2380300  10.3159992  71.6444990 109.7259997
  10.4029992  72.4704990 110.2009997   9.4519992  71.3144990 109.9749997
  10.2111944  71.7129871 109.8246558  10.7299992  75.4164990  99.5319997
  10.6549992  75.2954990  98.5859997  10.7629992  76.3654990  99.6509997
  10.7241862  75.5282492  99.4184840   4.3839992  74.2054990 101.3129997
   4.5359992  73.8574990 102.1919997   3.5329992  73.8484990 101.0579997
   4.2897899  74.1096749 101.3987322  13.8319992  74.5704990  96.5349997
  14.2069992  73.8264990  96.0639997  13.8359992  74.3004990  97.4529997
  13.8838969  74.4320920  96.5946475  13.5009992  74.4964990  99.2839997
  12.5659992  74.5964990  99.4629997  13.7809992  73.7864990  99.8619997
  13.4109270  74.4142300  99.3865984   3.6379992  69.9474990 109.3269997
   3.8539992  69.5854990 110.1869997   2.7829992  69.5724990 109.1169997
   3.5519349  69.8472914 109.4162134   4.5559992  24.3884990  86.1889997
   5.1689992  25.0214990  86.5619997   5.0679992  23.9164990  85.5319997
   4.7091680  24.4114006  86.1512830   6.2569992  58.4174990 105.3229997
   5.3949992  58.3304990 104.9149997   6.2349992  59.2734990 105.7499997
   6.1360953  58.5213558 105.3249262  10.9199992  58.1394990 108.6969997
  11.3399992  57.7244990 109.4499997   9.9869992  57.9604990 108.8139997
  10.8513736  58.0584921 108.8158950  14.2459992  61.8944990 109.5509997
  13.7319992  61.7694990 110.3479997  14.0909992  62.8074990 109.3059997
  14.1546643  62.0007068 109.6270624  15.0089992  66.7554990  95.3119997
  15.0509992  66.5334990  94.3819997  15.8579992  67.1544990  95.5019997
  15.1295253  66.7790510  95.2103804  10.5819992  60.6314990  95.9819997
  10.3279992  60.6504990  96.9049997  10.3249992  59.7604990  95.6809997
  10.5125133  60.5163121  96.0675065   6.3479992  63.3824990 106.4179997
   5.7059992  63.3424990 107.1269997   6.3849992  64.3094990 106.1799997
   6.2651659  63.5022540 106.4828463   6.3449992  63.6034990 101.3299997
   5.4519992  63.2634990 101.2709997   6.7959992  63.2264990 100.5739997
   6.2837185  63.5060220 101.2197698  11.8809992  64.0194990 100.1469997
  11.4719992  64.8344990  99.8549997  12.6009992  63.8794990  99.5319997
  11.9223946  64.1119963 100.0239616  12.8849992  63.4654990 102.9609997
  12.6899992  64.0714990 102.2459997  13.0669992  62.6324990 102.5259997
  12.8829272  63.4357955 102.8044075   4.0979992  63.7034990 108.2849997
   4.0599992  64.1034990 109.1529997   3.6069992  62.8864990 108.3749997
   4.0264246  63.6478842 108.4161171   5.9379992  32.1364990  89.3109997
   5.9329992  33.0154990  88.9329997   5.0849992  32.0524990  89.7359997
   5.8219199  32.2455901  89.3166942   7.4639992  61.0774990  95.0829997
   7.0329992  60.6324990  95.8129997   6.7459992  61.4484990  94.5709997
   7.3079363  61.0667979  95.1136194   0.7059992  60.8194990 102.1349997
   1.3369992  60.7904990 102.8549997   1.1559992  60.3944990 101.4049997
   0.8530905  60.7580839 102.1347479   1.9799992  61.5654990  97.5589997
   2.4549992  62.1564990  96.9739997   1.2629992  62.0954990  97.9059997
   1.9480406  61.7181011  97.5258495  12.1489992  65.1034990 107.6319997
  12.4729992  64.4724990 106.9889997  11.7089992  64.5694990 108.2929997
  12.1338707  64.9448261 107.6333195   8.9269992  61.0314990 102.4159997
   8.0159992  61.0884990 102.7049997   9.4319992  60.9714990 103.2269997
   8.8706873  61.0311838 102.5651190   3.7549992  62.6604990 101.2429997
   2.8659992  62.7594990 100.9029997   4.0509992  61.8184990 100.8969997
   3.6734001  62.5602473 101.1497318   7.4079992  62.6604990  98.8989997
   8.3399992  62.7894990  99.0769997   7.1929992  63.3294990  98.2499997
   7.5064245  62.7686452  98.8355602  13.3319992  60.2664990 105.6799997
  12.6549992  60.3974990 106.3439997  12.8459992  60.1114990 104.8699997
  13.1737265  60.2634665 105.6613380   6.0819992  63.8544990  96.4659997
   5.5399992  63.4754990  95.7749997   6.9159992  64.0494990  96.0369997
   6.1204283  63.8289383  96.3134298  10.2469992  63.8184990 104.3029997
  10.8109992  63.2724990 103.7559997  10.0989992  63.2974990 105.0919997
  10.3043037  63.6731798 104.3347212   2.0599992  31.8074990  80.0929997
   1.7879992  32.0364990  79.2039997   2.1049992  32.6444990  80.5529997
   2.0288709  31.9521069  80.0336089   5.2489992  59.9554990 100.7209997
   4.9309992  59.0524990 100.6859997   6.0299992  59.9574990 100.1689997
   5.3111560  59.8321148 100.6414975   8.8729992  62.2074990 106.7169997
   8.0379992  62.6614990 106.8269997   9.3969992  62.4834990 107.4689997
   8.8295070  62.3069677 106.8337134   9.4169992  68.4204990  98.4019997
   8.6719992  67.9124990  98.0789997   9.2829992  68.4694990  99.3479997
   9.2968633  68.3575714  98.4857563  16.5669992  67.5534990 107.1879997
  17.2089992  68.0094990 106.6449997  15.7369992  67.6664990 106.7259997
  16.5427352  67.6313223 107.0510234  13.3149992  61.2344990  96.6009997
  12.3759992  61.3454990  96.4499997  13.6119992  62.0904990  96.9069997
  13.2266371  61.3655327  96.6217362  10.9369992  68.6044990 109.6389997
  10.5909992  68.2224990 110.4449997  10.7369992  69.5374990 109.7099997
  10.8625400  68.6783489 109.7590401  14.0329992  63.1014990  98.2619997
  14.9249992  62.9634990  98.5809997  14.0899992  63.8924990  97.7249997
  14.1627380  63.1894777  98.2330981   4.5419992  67.7154990 104.1709997
   5.2869992  67.7124990 103.5699997   4.6199992  66.8914990 104.6529997
   4.6544158  67.6037928 104.1539136  11.5429992  69.8784990  97.4269997
  11.2479992  70.7054990  97.8089997  10.8399992  69.2594990  97.6229997
  11.4075855  69.9079458  97.5057634   1.5499992  66.1754990 109.4859997
   1.7729992  65.7574990 110.3179997   0.9479992  65.5634990 109.0639997
   1.4990802  66.0355216 109.5427561  15.6849992  33.4284990  86.8059997
  14.7429992  33.4874990  86.9669997  15.9609992  34.3344990  86.6689997
  15.5935771  33.5590270  86.8094827  13.1869992  71.0664990 109.5889997
  12.2859992  71.2494990 109.3209997  13.2209992  71.3254990 110.5099997
  13.0683021  71.1265505 109.6768206  18.9179992  63.3104990  97.9559997
  18.3639992  62.9144990  97.2839997  19.0189992  64.2214990  97.6789997
  18.8557084  63.3793565  97.8264381  17.2129992  72.0964990  98.4209997
  16.8409992  71.2714990  98.7309997  17.4909992  71.9134990  97.5239997
  17.1995997  71.9586160  98.3421551  14.3739992  66.9044990 105.4429997
  13.4459992  66.6734990 105.4159997  14.8249992  66.1274990 105.1129997
  14.3078165  66.7677785 105.3946772   6.9169992  71.2334990 101.5759997
   7.4439992  72.0064990 101.3749997   6.0369992  71.4574990 101.2739997
   6.8701793  71.3696652 101.5076304   2.6719992  66.0954990  96.1629997
   3.2879992  66.7224990  96.5419997   1.8099992  66.4114990  96.4339997
   2.6398195  66.2240810  96.2515369   8.3439992  68.8964990 101.1519997
   8.1029992  69.8214990 101.1939997   7.6039992  68.4374990 101.5479997
   8.2108934  68.9610881 101.2113191   8.8589992  73.0454990 107.4669997
   9.2219992  73.8994990 107.2339997   9.3909992  72.7534990 108.2079997
   8.9805141  73.1228907 107.5352079   7.0269992  73.9174990 100.6969997
   6.0779992  74.0234990 100.7489997   7.3789992  74.7384990 101.0419997
   6.9446214  74.0429361 100.7507317  12.4029992  69.1444990 107.1679997
  11.9769992  68.9164990 107.9939997  12.9839992  68.4054990 106.9849997
  12.4231587  69.0134084 107.2564111  15.9849992  21.7154990  88.2229997
  15.2489992  22.3254990  88.1849997  16.6689992  22.1304990  87.6969997
  15.9765885  21.8551924  88.1466931  14.6059992  70.0734990  96.2419997
  14.9589992  69.6934990  97.0459997  13.6569992  69.9794990  96.3279997
  14.5260985  70.0087330  96.3637738  15.0619992  73.6964990 109.6369997
  14.4599992  73.1404990 109.1419997  15.3429992  74.3634990 109.0109997
  15.0175757  73.7105755 109.4845657  19.1089992  74.5524990  96.4429997
  19.8529992  75.1384990  96.3029997  18.4149992  75.1214990  96.7759997
  19.1169809  74.7095830  96.4688572   3.1839992  60.9294990 109.0439997
   2.2909992  61.2674990 108.9769997   3.0849992  60.0734990 109.4619997
   3.0485241  60.8600941 109.0912982  15.4719992  68.7454990  98.4679997
  15.1949992  68.0174990  99.0239997  16.3989992  68.8644990  98.6739997
  15.5594181  68.6620068  98.5718972   2.8349992  72.7334990 107.4789997
   3.0519992  71.8014990 107.4479997   3.0819992  73.0084990 108.3629997
   2.8980543  72.6430877 107.5941412   8.6969992  71.1854990  94.6889997
   8.9359992  70.4364990  94.1409997   8.4279992  70.7974990  95.5209997
   8.6932804  71.0306524  94.7266352   7.6339992  70.7554990  97.1449997
   7.7809992  70.2354990  97.9349997   7.6309992  71.6624990  97.4509997
   7.6537300  70.8068975  97.2945877   4.0869992  68.0074990  97.6549997
   3.4009992  68.3604990  98.2219997   4.6099992  68.7704990  97.4089997
   4.0639033  68.1588757  97.6992644  11.9179992  60.6704990 107.9339997
  12.6169992  60.7444990 108.5839997  11.5379992  59.8054990 108.0889997
  11.9622095  60.5637402 108.0437982   8.9879992  19.8014990  85.6889997
   8.8709992  18.8534990  85.6349997   8.1329992  20.1344990  85.9619997
   8.8563691  19.7165842  85.7185072  12.7029992  60.3224990  99.0309997
  12.9229992  60.7934990  98.2279997  13.2609992  60.7164990  99.7019997
  12.8085851  60.4403272  99.0116134  10.3719992  72.4524990  97.8939997
   9.5549992  72.9494990  97.9469997  10.9009992  72.9284990  97.2539997
  10.3317898  72.5848123  97.8147274   9.9029992  62.0504990  99.8659997
  10.7149992  62.5544990  99.9119997   9.6579992  61.9054990 100.7799997
   9.9811091  62.0999366  99.9958552  10.4389992  63.0364990 109.0509997
  10.5579992  63.6104990 109.8079997  11.0939992  62.3484990 109.1659997
  10.5438684  63.0220205 109.1701656  10.7869992  59.1314990 100.8039997
  10.4399992  59.7484990 101.4489997  11.4449992  59.6324990 100.3229997
  10.8285290  59.2836384 100.8271635   7.7099992  73.4964990  97.8759997
   7.8709992  74.2964990  97.3749997   7.5129992  73.8034990  98.7609997
   7.7053919  73.6474140  97.9270988   6.4439992  60.1944990  97.4919997
   6.3609992  61.0824990  97.8379997   7.3339992  59.9294990  97.7229997
   6.5529751  60.2802482  97.5706066  16.6429992  60.9434990 109.8859997
  15.7269992  61.2054990 109.7979997  16.9789992  60.9404990 108.9889997
  16.5629789  60.9789637 109.7527829  15.2449992  64.6934990 103.9819997
  14.4479992  64.2784990 103.6529997  15.6899992  64.0034990 104.4729997
  15.1960317  64.5433197 104.0033556   4.7029992  70.6214990  96.5519997
   5.2949992  71.3214990  96.8279997   5.1619992  70.1884990  95.8329997
   4.8461172  70.6587371  96.4925163  13.9369992  35.2094990  83.4309997
  14.3619992  34.5024990  82.9459997  14.2539992  36.0114990  83.0139997
  14.0380266  35.2210201  83.3082461   3.0189992  63.2864990  95.6679997
   2.9739992  64.2254990  95.8469997   2.1309992  63.0504990  95.3979997
   2.8928472  63.3831946  95.6560282  16.3319992  73.9494990 105.6039997
  16.1759992  74.6284990 104.9469997  17.2639992  74.0214990 105.8069997
  16.4367328  74.0521586 105.5415529   3.8269992  58.0674990 104.3409997
   3.5979992  58.1264990 103.4139997   3.3839992  57.2764990 104.6479997
   3.7357387  57.9686413 104.2555223   2.7569992  72.0084990 100.5019997
   1.9249992  72.4804990 100.5289997   3.3029992  72.5184990  99.9029997
   2.7168710  72.1420317 100.4247570  10.7349992  73.0484990  94.8269997
  10.0909992  72.4174990  95.1489997  11.4969992  72.5174990  94.5949997
  10.7498260  72.8903035  94.8397298  15.3389992  72.8654990  95.0609997
  15.6219992  72.0704990  95.5139997  16.0789992  73.0984990  94.4999997
  15.4777295  72.7882349  95.0471469   6.2939992  68.7744990  94.9179997
   6.3579992  67.9804990  95.4489997   6.9469992  68.6564990  94.2289997
   6.3911168  68.6497747  94.8975119  11.6459992  69.8214990  94.6539997
  11.3779992  70.0024990  95.5549997  11.4399992  68.8964990  94.5229997
  11.5814251  69.7211528  94.7596809  14.3429992  68.3164990 109.6019997
  15.0879992  68.9054990 109.4819997  13.5849992  68.8984990 109.6649997
  14.3425185  68.4757000 109.5940940   7.4429992  66.7474990  97.2239997
   6.9839992  66.2634990  97.9099997   7.6979992  66.0784990  96.5879997
   7.4146178  66.5908511  97.2319785  15.0959992  33.1104990  81.9399997
  14.8389992  32.4204990  81.3279997  15.1669992  32.6674990  82.7849997
  15.0704322  32.9561568  81.9705372   6.7319992  64.6404990 109.5799997
   6.1139992  65.3144990 109.8609997   7.0759992  64.9614990 108.7469997
   6.6938181  64.7763233 109.5058266   8.5139992  64.9904990  95.4869997
   8.3339992  64.8354990  94.5589997   9.4639992  65.0984990  95.5309997
   8.6178016  64.9839264  95.3662123  17.9039992  67.3444990  94.9319997
  17.6309992  66.9204990  94.1189997  17.9439992  68.2764990  94.7149997
  17.8720201  67.4123523  94.7913548   7.4839992  60.3644990 108.1549997
   8.0199992  60.8164990 107.5029997   6.6319992  60.2564990 107.7329997
   7.4421648  60.4117883 108.0086395   9.0659992  65.8044990 108.3949997
   9.8169992  65.6484990 107.8219997   8.7269992  66.6564990 108.1189997
   9.1229052  65.8982745 108.2793469   8.2899992  57.8214990 108.5869997
   8.1919992  58.7674990 108.4809997   7.5469992  57.4484990 108.1109997
   8.1762363  57.9005987 108.5082029   8.4119992  75.6804990  96.4879997
   9.3449992  75.8384990  96.6319997   8.1469992  76.3564990  95.8629997
   8.5039846  75.7934567  96.4232930   1.9799992  70.3174990  95.9709997
   2.8939992  70.3964990  96.2439997   1.9869992  69.6304990  95.3039997
   2.1060769  70.2354735  95.9182366   0.6289992  75.7104990 101.0479997
  -0.0180008  75.2484990 100.5149997   0.9839992  75.0384990 101.6309997
   0.5883861  75.5564707 101.0537939   1.4989992  73.7904990 102.8529997
   1.1649992  72.9104990 103.0249997   1.7209992  74.1364990 103.7169997
   1.4832677  73.7167366 102.9934252  16.7819992  31.6774990  90.4169997
  16.9219992  31.0854990  89.6779997  16.9499992  32.5504990  90.0609997
  16.8238734  31.7144041  90.2676937  19.0479992  74.6004990 105.8329997
  19.0259992  74.7854990 106.7719997  19.7379992  75.1684990 105.4919997
  19.1383439  74.7026898 105.9154774  18.6109992  74.1674990 108.7549997
  18.1239992  73.4314990 108.3839997  19.1599992  73.7734990 109.4329997
  18.6186101  74.0136267 108.7959034  18.3629992  68.2134990  98.9069997
  19.2129992  68.6344990  99.0349997  18.3679992  67.4734990  99.5149997
  18.4799745  68.1711347  99.0066479  18.7569992  66.2674990 100.7309997
  18.0309992  65.7874990 101.1289997  19.3379992  66.4724990 101.4629997
  18.7362504  66.2295592 100.8844199  18.5159992  69.0524990 105.6789997
  19.3499992  68.6744990 105.3979997  18.6279992  69.9954990 105.5599997
  18.6451917  69.1282954 105.6244844  17.0019992  71.9304990 107.9859997
  16.3549992  72.2554990 108.6109997  16.4849992  71.4894990 107.3109997
  16.8434068  71.9154726 107.9804918  19.0249992  66.1684990  97.1219997
  18.5039992  66.5244990  96.4029997  18.9919992  66.8434990  97.7999997
  18.9491525  66.3085273  97.1151408  17.3739992  63.4074990  95.6729997
  17.4709992  64.0744990  94.9929997  17.2339992  62.5924990  95.1909997
  17.3683428  63.3885667  95.5148311  16.5439992  64.7884990 101.2939997
  16.3939992  63.8434990 101.2739997  16.1899992  65.0694990 102.1379997
  16.4756351  64.6971656 101.4053202   1.5789992  66.8664990 105.3039997
   1.7629992  66.7844990 104.3689997   2.4279992  66.7424990 105.7279997
   1.7190259  66.8384915 105.2331771  11.2549992  28.6394990  80.1889997
  10.5429992  29.1744990  79.8379997  11.9459992  28.6944990  79.5289997
  11.2508696  28.7202591  80.0516372  16.6219992  60.8154990  94.7899997
  17.2319992  60.4444990  95.4269997  15.7849992  60.3944990  94.9859997
  16.5923704  60.7077942  94.9037077  16.2539992  62.3704990  99.7559997
  16.5339992  61.4634990  99.8809997  17.0129992  62.8044990  99.3669997
  16.3949471  62.3050654  99.7205052  16.8659992  62.9524990 105.1919997
  17.7989992  63.1644990 105.1579997  16.6309992  63.0534990 106.1149997
  16.9618357  62.9951303 105.3120232  16.8949992  63.6894990 107.9679997
  16.0519992  63.9574990 108.3339997  17.3379992  64.5114990 107.7569997
  16.8394358  63.8373294 107.9895999  16.8679992  59.6334990  99.8049997
  17.0499992  59.1844990 100.6299997  16.2679992  59.0494990  99.3409997
  16.8118187  59.4930563  99.8552721   2.3979992  60.4494990 104.3359997
   2.8429992  59.6574990 104.6379997   2.8639992  61.1654990 104.7669997
   2.5219059  60.4379485 104.4356061   0.7019992  63.4484990 105.4049997
   1.1939992  63.2274990 104.6149997   1.0639992  64.2884990 105.6859997
   0.8183429  63.5318220 105.3347918  18.7339992  59.7014990  96.3329997
  19.1469992  58.9804990  95.8569997  19.4159992  60.3704990  96.3909997
  18.8825712  59.6934304  96.2758247   1.0149992  59.7064990  99.4599997
   0.0899992  59.9144990  99.3299997   1.4689992  60.1904990  98.7699997
   0.9497401  59.8003895  99.3489433  15.7859992  74.6904990 101.4049997
  16.4379992  74.3424990 100.7969997  16.2969992  75.1784990 102.0509997
  15.9442872  74.7088248 101.4090964  18.6239992  28.0174990  88.4829997
  17.9719992  28.7114990  88.5719997  19.0889992  28.2274990  87.6729997
  18.5975357  28.1409544  88.3857056   0.9789992  58.4444990 107.8039997
   0.3139992  58.1984990 108.4469997   0.5359992  59.0664990 107.2269997
   0.8281168  58.4949225 107.8139830   6.1249992  72.5934990 108.2069997
   5.6999992  73.4034990 107.9239997   7.0289992  72.6794990 107.9049997
   6.1891002  72.7158728 108.1274798  17.6989992  57.8684990 109.4899997
  16.8859992  58.1934990 109.1019997  17.9319992  57.1074990 108.9569997
  17.6192566  57.8101570 109.3649196   3.5269992  75.8504990 108.2539997
   2.8059992  76.2904990 107.8029997   3.1609992  75.5994990 109.1029997
   3.3789785  75.8767691 108.3069849   5.9939992  75.4504990 107.2839997
   5.1289992  75.5224990 107.6879997   5.9389992  75.9974990 106.4999997
   5.8682066  75.5342678 107.2333371  10.7049992  75.3384990 106.4599997
  10.2479992  75.8674990 105.8059997  10.8669992  75.9414990 107.1849997
  10.6643919  75.4923990 106.4685740  13.0319992  74.2164990 107.4049997
  12.1279992  74.3814990 107.1389997  13.4609992  75.0694990 107.3389997
  12.9662017  74.3544184 107.3596495  15.6359992  75.7864990 107.6999997
  15.4549992  76.7024990 107.4889997  15.8129992  75.3754990 106.8529997
  15.6351377  75.8563365 107.5567178   2.9419992  74.4734990 105.1649997
   2.9229992  74.0474990 106.0219997   3.7459992  74.1544990 104.7559997
   3.0481393  74.3720297 105.2270155   5.0829992  73.1834990 103.8199997
   4.8639992  72.2664990 103.9889997   5.9069992  73.3234990 104.2859997
   5.1644637  73.0769586 103.9061414  14.6609992  28.8484990  81.1409997
  13.9289992  29.0774990  81.7139997  15.1079992  28.1354990  81.5959997
  14.6212753  28.7833984  81.2809698   7.6199992  73.6534990 104.6679997
   7.8329992  72.7654990 104.3809997   7.6849992  73.6184990 105.6229997
   7.6579075  73.5273318 104.7577355  11.1289992  59.3174990 103.8129997
  10.4539992  58.6874990 104.0679997  11.6929992  58.8334990 103.2099997
  11.1129558  59.1659283 103.7663451  16.2709992  57.4244990 103.9249997
  16.8749992  57.9724990 103.4239997  15.4019992  57.7434990 103.6849997
  16.2361126  57.5427070 103.8239180  17.9979992  58.5634990 102.2589997
  18.6099992  58.0494990 101.7319997  18.3809992  59.4404990 102.2819997
  18.1333867  58.6117613 102.1900888   3.4549992  57.9514990 101.6349997
   2.6779992  57.7164990 101.1269997   3.9859992  57.1544990 101.6439997
   3.4204443  57.8116721 101.5667200   2.2919992  57.7494990  97.4379997
   2.7309992  58.3604990  96.8469997   1.6579992  58.2874990  97.9119997
   2.2664104  57.9059233  97.4211376   8.0349992  57.8774990 101.4479997
   8.9089992  58.2664990 101.4179997   7.8989992  57.6624990 102.3709997
   8.1363125  57.9017120 101.5686523  13.5909992  57.9074990 103.0969997
  13.6679992  58.0034990 102.1479997  13.3159992  57.0004990 103.2259997
  13.5643407  57.7979188 102.9843532  14.9449992  57.9334990  98.7899997
  14.2419992  58.5484990  98.5799997  14.4999992  57.0964990  98.9209997
  14.7886550  57.9044679  98.7789819   2.1929992  73.6974990  98.3359997
   1.5079992  73.6594990  97.6679997   2.1959992  74.6094990  98.6239997
   2.0997358  73.8156744  98.2836145  14.5579992  27.0234990  90.2089997
  14.6379992  27.7864990  90.7809997  13.9569992  27.3024990  89.5179997
  14.4877115  27.1657707  90.1939631   4.1529992  59.6654990  95.8809997
   4.6439992  59.0354990  95.3529997   4.7759992  59.9614990  96.5439997
   4.3045459  59.6192419  95.8983667   9.1789992  59.9584990  98.3379997
   9.3569992  59.3114990  99.0209997   9.1249992  60.7924990  98.8049997
   9.1960678  59.9826615  98.4946283  11.0569992  74.9064990  96.7329997
  11.9229992  75.2734990  96.5549997  10.8099992  74.4674990  95.9199997
  11.1422041  74.8973648  96.5985958  17.7659992  74.4694990  99.4129997
  17.5719992  73.7214990  98.8479997  17.7269992  75.2274990  98.8289997
  17.7341907  74.4695770  99.2568077   4.0109992  74.6174990  95.3609997
   3.7429992  74.9034990  96.2339997   4.7819992  74.0714990  95.5129997
   4.0785600  74.5828341  95.5011482  31.3899992  67.1074990 101.5929997
  31.4789992  68.0514990 101.4609997  30.7509992  66.8324990 100.9349997
  31.3158319  67.1994984 101.4860276  30.3229992  66.3624990 105.0119997
  30.2839992  65.7164990 105.7169997  29.9999992  65.8954990 104.2409997
  30.2740199  66.2110089 105.0042865  22.6909992  65.9764990 106.6049997
  22.7319992  65.3514990 107.3289997  23.3939992  66.6004990 106.7869997
  22.7916054  65.9753262 106.7286311  34.0289992  69.3014990 103.3139997
  33.5879992  68.5814990 103.7639997  34.0159992  70.0224990 103.9439997
  33.9668398  69.3003187 103.4607734  23.6149992  70.4264990 105.1399997
  23.2449992  69.6244990 104.7709997  24.5559992  70.2584990 105.1869997
  23.6915630  70.2938680 105.0957873   6.3059992  29.4794990  83.0239997
   5.9759992  29.1084990  82.2049997   6.8939992  28.8084990  83.3699997
   6.3404056  29.3381257  82.9589035  20.2249992  64.0864990 100.5329997
  19.7769992  64.9324990 100.5149997  19.6639992  63.5074990 100.0179997
  20.0878546  64.1239004 100.4608874  20.9349992  66.2484990 102.6589997
  21.1489992  65.4784990 103.1859997  21.6729992  66.3384990 102.0559997
  21.0640073  66.1553546 102.6495786  31.1399992  74.4054990 103.5259997
  31.7599992  73.7294990 103.2529997  30.9319992  74.1874990 104.4339997
  31.1967360  74.2834792 103.6114387  28.7119992  68.7944990 105.4179997
  29.0159992  68.1084990 104.8239997  29.4339992  68.9134990 106.0359997
  28.8511152  68.7167201 105.4202106  37.3749992  60.3964990 106.2789997
  37.4239992  61.0064990 107.0149997  37.8009992  60.8574990 105.5559997
  37.4392851  60.5423266 106.2820532  31.8529992  63.1884990 105.7459997
  31.9949992  62.2424990 105.7659997  31.7469992  63.3954990 104.8169997
  31.8581158  63.0869722 105.6232241  25.0079992  61.2904990 103.0179997
  25.0509992  62.1504990 102.5999997  24.5499992  60.7374990 102.3849997
  24.9519613  61.3335689 102.8751276  32.7299992  61.4214990 101.4189997
  33.3759992  61.0924990 102.0439997  33.2399992  61.9384990 100.7959997
  32.8874392  61.4463710 101.4203248  21.6279992  63.6874990 103.7799997
  22.2819992  63.1374990 104.2119997  21.6519992  63.4134990 102.8639997
  21.7207022  63.5752005 103.7151698  26.7839992  65.2374990 102.9959997
  27.3999992  64.7104990 103.5049997  26.1979992  64.5974990 102.5919997
  26.7890652  65.0788919 103.0110277   7.6729992  32.9074990  85.7049997
   7.5779992  32.3284990  84.9479997   8.4019992  32.5364990  86.2009997
   7.7586161  32.7780902  85.6685191  37.7669992  61.8744990 108.5149997
  37.0779992  62.5324990 108.4199997  37.7819992  61.6764990 109.4519997
  37.6747756  61.9377614 108.6285795  23.8179992  60.2084990 107.0919997
  23.5989992  60.7384990 106.3259997  23.1499992  60.4344990 107.7399997
  23.6977271  60.3116508 107.0746206  31.1869992  69.7084990 100.6359997
  30.8909992  69.3854990  99.7849997  30.8629992  70.6084990 100.6779997
  31.1026501  69.7859058 100.5250893  26.3869992  67.8834990 107.3799997
  25.6469992  68.4824990 107.4829997  27.1009992  68.4374990 107.0639997
  26.3823288  68.0402368 107.3513787  34.4939992  60.7124990 103.3999997
  34.2789992  59.9464990 103.9319997  35.1499992  61.1844990 103.9129997
  34.5532451  60.6714472 103.5421699  23.4119992  62.1004990 105.0449997
  24.0249992  62.7334990 105.4179997  23.9239992  61.6284990 104.3879997
  23.5651680  62.1234006 105.0072830  24.7939992  69.8484990 108.1669997
  24.7889992  70.7274990 107.7889997  23.9409992  69.7644990 108.5919997
  24.6779199  69.9575901 108.1726942  20.9159992  69.5194990  98.9489997
  20.6439992  69.7484990  98.0599997  20.9609992  70.3564990  99.4089997
  20.8848709  69.6641069  98.8896089  34.5409992  71.1404990 105.6619997
  33.5989992  71.1994990 105.8229997  34.8169992  72.0464990 105.5249997
  34.4495771  71.2710270 105.6654827  34.8409992  59.4274990 107.0789997
  34.1049992  60.0374990 107.0409997  35.5249992  59.8424990 106.5529997
  34.8325885  59.5671924 107.0026931   6.6729992  28.2474990  86.6569997
   7.2379992  28.3694990  85.8939997   6.9909992  28.8854990  87.2959997
   6.7933430  28.3504448  86.6389094  27.8439992  57.5134990 104.5449997
  27.7269992  56.5654990 104.4909997  26.9889992  57.8464990 104.8179997
  27.7123691  57.4285842 104.5745072  32.7929992  72.9214990 102.2869997
  33.2179992  72.2144990 101.8019997  33.1099992  73.7234990 101.8699997
  32.8940266  72.9330201 102.1642461  33.9519992  70.8224990 100.7959997
  33.6949992  70.1324990 100.1839997  34.0229992  70.3794990 101.6409997
  33.9264322  70.6681568 100.8265372  35.6379992  69.3894990 109.2729997
  35.7779992  68.7974990 108.5339997  35.8059992  70.2624990 108.9169997
  35.6798734  69.4264041 109.1236937  30.1109992  66.3514990  99.0449997
  29.3989992  66.8864990  98.6939997  30.8019992  66.4064990  98.3849997
  30.1068696  66.4322591  98.9076372  30.1649992  64.8084990  96.0839997
  30.8659992  64.8314990  96.7349997  30.4669992  64.1804990  95.4279997
  30.3018282  64.7267350  96.0844478  37.4799992  65.7294990 107.3389997
  36.8279992  66.4234990 107.4279997  37.9449992  65.9394990 106.5289997
  37.4535357  65.8529544 107.2417056  33.5169992  66.5604990  99.9969997
  32.7849992  66.7894990 100.5699997  33.9639992  65.8474990 100.4519997
  33.4772753  66.4953984 100.1369698  33.4139992  64.7354990 109.0649997
  33.4939992  65.4984990 109.6369997  32.8129992  65.0144990 108.3739997
  33.3437115  64.8777707 109.0499631  25.1619992  67.1914990 101.8799997
  24.8319992  66.8204990 101.0609997  25.7499992  66.5204990 102.2259997
  25.1964056  67.0501257 101.8149035  12.9819992  33.7514990  87.3909997
  12.7409992  34.4134990  88.0389997  12.7839992  32.9164990  87.8159997
  12.9222662  33.7292704  87.5371008  26.5289992  70.6194990 104.5609997
  26.4339992  70.0404990 103.8039997  27.2579992  70.2484990 105.0569997
  26.6146161  70.4900902 104.5245192  25.5289992  65.9594990 105.5129997
  26.0939992  66.0814990 104.7499997  25.8469992  66.5974990 106.1519997
  25.6493430  66.0624448 105.4949094  31.8379992  71.4634990 106.2469997
  31.5969992  72.1254990 106.8949997  31.6399992  70.6284990 106.6719997
  31.7782662  71.4412704 106.3931008  32.3879992  65.7234990  97.6819997
  32.9669992  65.8734990  98.4289997  32.8019992  66.1934990  96.9589997
  32.5233122  65.8076288  97.6865024  23.3289992  66.5574990 109.4589997
  23.3989992  67.2084990 110.1569997  22.4379992  66.6604990 109.1239997
  23.2181802  66.6604769 109.5092231  30.1139992  72.4594990 101.1179997
  30.5879992  72.7554990 101.8949997  29.5509992  73.1984990 100.8839997
  30.1028460  72.5998336 101.1927626  36.0859992  57.4734990  97.4949997
  35.1859992  57.6114990  97.7899997  36.3379992  58.3044990  97.0929997
  35.9967355  57.6048200  97.4810539  24.1519992  66.2604990  99.4689997
  23.8599992  67.0284990  98.9779997  23.4779992  65.6014990  99.3059997
  24.0208843  66.2764537  99.3797695  37.2759992  71.8394990  95.8719997
  37.3489992  72.7784990  96.0419997  38.1809992  71.5344990  95.8149997
  37.4084168  71.9268531  95.8875736  20.2449992  68.6234990 108.2839997
  19.7439992  68.5954990 107.4689997  20.2509992  67.7184990 108.5939997
  20.1771690  68.4972234 108.2142770   7.5529992  32.6474990  91.3739997
   7.2409992  33.4294990  91.8299997   6.9029992  32.4944990  90.6879997
   7.4224643  32.7338019  91.3436657  19.9959992  71.4044990 105.1679997
  20.9419992  71.2594990 105.1489997  19.8829992  72.1884990 105.7049997
  20.1103578  71.4906708 105.2380300  29.1719992  71.6444990 109.7259997
  29.2589992  72.4704990 110.2009997  28.3079992  71.3144990 109.9749997
  29.0671944  71.7129871 109.8246558  29.5859992  75.4164990  99.5319997
  29.5109992  75.2954990  98.5859997  29.6189992  76.3654990  99.6509997
  29.5801862  75.5282492  99.4184840  23.2399992  74.2054990 101.3129997
  23.3919992  73.8574990 102.1919997  22.3889992  73.8484990 101.0579997
  23.1457899  74.1096749 101.3987322  32.6879992  74.5704990  96.5349997
  33.0629992  73.8264990  96.0639997  32.6919992  74.3004990  97.4529997
  32.7398969  74.4320920  96.5946475  32.3569992  74.4964990  99.2839997
  31.4219992  74.5964990  99.4629997  32.6369992  73.7864990  99.8619997
  32.2669270  74.4142300  99.3865984  22.4939992  69.9474990 109.3269997
  22.7099992  69.5854990 110.1869997  21.6389992  69.5724990 109.1169997
  22.4079349  69.8472914 109.4162134  25.1129992  58.4174990 105.3229997
  24.2509992  58.3304990 104.9149997  25.0909992  59.2734990 105.7499997
  24.9920953  58.5213558 105.3249262  29.7759992  58.1394990 108.6969997
  30.1959992  57.7244990 109.4499997  28.8429992  57.9604990 108.8139997
  29.7073736  58.0584921 108.8158950  33.1019992  61.8944990 109.5509997
  32.5879992  61.7694990 110.3479997  32.9469992  62.8074990 109.3059997
  33.0106643  62.0007068 109.6270624  13.5319992  28.0114990  78.8259997
  14.1109992  28.1614990  79.5729997  13.9459992  28.4814990  78.1029997
  13.6673122  28.0956288  78.8305024  33.8649992  66.7554990  95.3119997
  33.9069992  66.5334990  94.3819997  34.7139992  67.1544990  95.5019997
  33.9855253  66.7790510  95.2103804  29.4379992  60.6314990  95.9819997
  29.1839992  60.6504990  96.9049997  29.1809992  59.7604990  95.6809997
  29.3685133  60.5163121  96.0675065  25.2039992  63.3824990 106.4179997
  24.5619992  63.3424990 107.1269997  25.2409992  64.3094990 106.1799997
  25.1211659  63.5022540 106.4828463  25.2009992  63.6034990 101.3299997
  24.3079992  63.2634990 101.2709997  25.6519992  63.2264990 100.5739997
  25.1397185  63.5060220 101.2197698  30.7369992  64.0194990 100.1469997
  30.3279992  64.8344990  99.8549997  31.4569992  63.8794990  99.5319997
  30.7783946  64.1119963 100.0239616  31.7409992  63.4654990 102.9609997
  31.5459992  64.0714990 102.2459997  31.9229992  62.6324990 102.5259997
  31.7389272  63.4357955 102.8044075  22.9539992  63.7034990 108.2849997
  22.9159992  64.1034990 109.1529997  22.4629992  62.8864990 108.3749997
  22.8824246  63.6478842 108.4161171  26.3199992  61.0774990  95.0829997
  25.8889992  60.6324990  95.8129997  25.6019992  61.4484990  94.5709997
  26.1639363  61.0667979  95.1136194  19.5619992  60.8194990 102.1349997
  20.1929992  60.7904990 102.8549997  20.0119992  60.3944990 101.4049997
  19.7090905  60.7580839 102.1347479  20.8359992  61.5654990  97.5589997
  21.3109992  62.1564990  96.9739997  20.1189992  62.0954990  97.9059997
  20.8040406  61.7181011  97.5258495   4.4729992  28.8454990  90.6029997
   4.5429992  29.4964990  91.3009997   3.5819992  28.9484990  90.2679997
   4.3621802  28.9484769  90.6532231  31.0049992  65.1034990 107.6319997
  31.3289992  64.4724990 106.9889997  30.5649992  64.5694990 108.2929997
  30.9898707  64.9448261 107.6333195  27.7829992  61.0314990 102.4159997
  26.8719992  61.0884990 102.7049997  28.2879992  60.9714990 103.2269997
  27.7266873  61.0311838 102.5651190  22.6109992  62.6604990 101.2429997
  21.7219992  62.7594990 100.9029997  22.9069992  61.8184990 100.8969997
  22.5294001  62.5602473 101.1497318  26.2639992  62.6604990  98.8989997
  27.1959992  62.7894990  99.0769997  26.0489992  63.3294990  98.2499997
  26.3624245  62.7686452  98.8355602  32.1879992  60.2664990 105.6799997
  31.5109992  60.3974990 106.3439997  31.7019992  60.1114990 104.8699997
  32.0297265  60.2634665 105.6613380  24.9379992  63.8544990  96.4659997
  24.3959992  63.4754990  95.7749997  25.7719992  64.0494990  96.0369997
  24.9764283  63.8289383  96.3134298  29.1029992  63.8184990 104.3029997
  29.6669992  63.2724990 103.7559997  28.9549992  63.2974990 105.0919997
  29.1603037  63.6731798 104.3347212  24.1049992  59.9554990 100.7209997
  23.7869992  59.0524990 100.6859997  24.8859992  59.9574990 100.1689997
  24.1671560  59.8321148 100.6414975  27.7289992  62.2074990 106.7169997
  26.8939992  62.6614990 106.8269997  28.2529992  62.4834990 107.4689997
  27.6855070  62.3069677 106.8337134  28.2729992  68.4204990  98.4019997
  27.5279992  67.9124990  98.0789997  28.1389992  68.4694990  99.3479997
  28.1528633  68.3575714  98.4857563  11.2579992  34.7474990  82.2619997
  11.7319992  35.0434990  83.0389997  10.6949992  35.4864990  82.0279997
  11.2468460  34.8878336  82.3367626  35.4229992  67.5534990 107.1879997
  36.0649992  68.0094990 106.6449997  34.5929992  67.6664990 106.7259997
  35.3987352  67.6313223 107.0510234  32.1709992  61.2344990  96.6009997
  31.2319992  61.3454990  96.4499997  32.4679992  62.0904990  96.9069997
  32.0826371  61.3655327  96.6217362  29.7929992  68.6044990 109.6389997
  29.4469992  68.2224990 110.4449997  29.5929992  69.5374990 109.7099997
  29.7185400  68.6783489 109.7590401  32.8889992  63.1014990  98.2619997
  33.7809992  62.9634990  98.5809997  32.9459992  63.8924990  97.7249997
  33.0187380  63.1894777  98.2330981  23.3979992  67.7154990 104.1709997
  24.1429992  67.7124990 103.5699997  23.4759992  66.8914990 104.6529997
  23.5104159  67.6037928 104.1539136  30.3989992  69.8784990  97.4269997
  30.1039992  70.7054990  97.8089997  29.6959992  69.2594990  97.6229997
  30.2635855  69.9079458  97.5057633  20.4059992  66.1754990 109.4859997
  20.6289992  65.7574990 110.3179997  19.8039992  65.5634990 109.0639997
  20.3550802  66.0355216 109.5427561  32.0429992  71.0664990 109.5889997
  31.1419992  71.2494990 109.3209997  32.0769992  71.3254990 110.5099997
  31.9243021  71.1265505 109.6768206  37.7739992  63.3104990  97.9559997
  37.2199992  62.9144990  97.2839997  37.8749992  64.2214990  97.6789997
  37.7117084  63.3793565  97.8264381  36.0689992  72.0964990  98.4209997
  35.6969992  71.2714990  98.7309997  36.3469992  71.9134990  97.5239997
  36.0555997  71.9586160  98.3421551   5.7919992  34.7184990  92.1379997
   5.7999992  34.5824990  91.1899997   4.8759992  34.6014990  92.3899997
   5.6692512  34.6840663  92.0423179  33.2299992  66.9044990 105.4429997
  32.3019992  66.6734990 105.4159997  33.6809992  66.1274990 105.1129997
  33.1638165  66.7677785 105.3946772  25.7729992  71.2334990 101.5759997
  26.2999992  72.0064990 101.3749997  24.8929992  71.4574990 101.2739997
  25.7261793  71.3696652 101.5076304  21.5279992  66.0954990  96.1629997
  22.1439992  66.7224990  96.5419997  20.6659992  66.4114990  96.4339997
  21.4958195  66.2240810  96.2515369  27.1999992  68.8964990 101.1519997
  26.9589992  69.8214990 101.1939997  26.4599992  68.4374990 101.5479997
  27.0668934  68.9610881 101.2113191  27.7149992  73.0454990 107.4669997
  28.0779992  73.8994990 107.2339997  28.2469992  72.7534990 108.2079997
  27.8365141  73.1228907 107.5352079  25.8829992  73.9174990 100.6969997
  24.9339992  74.0234990 100.7489997  26.2349992  74.7384990 101.0419997
  25.8006214  74.0429361 100.7507317  31.2589992  69.1444990 107.1679997
  30.8329992  68.9164990 107.9939997  31.8399992  68.4054990 106.9849997
  31.2791587  69.0134084 107.2564111  33.4619992  70.0734990  96.2419997
  33.8149992  69.6934990  97.0459997  32.5129992  69.9794990  96.3279997
  33.3820985  70.0087330  96.3637738  33.9179992  73.6964990 109.6369997
  33.3159992  73.1404990 109.1419997  34.1989992  74.3634990 109.0109997
  33.8735757  73.7105755 109.4845657  37.9649992  74.5524990  96.4429997
  38.7089992  75.1384990  96.3029997  37.2709992  75.1214990  96.7759997
  37.9729809  74.7095830  96.4688572  17.2299992  19.7614990  78.6389997
  16.3299992  19.8994990  78.9339997  17.4819992  20.5924990  78.2369997
  17.1407355  19.8928200  78.6250539  22.0399992  60.9294990 109.0439997
  21.1469992  61.2674990 108.9769997  21.9409992  60.0734990 109.4619997
  21.9045241  60.8600941 109.0912982  34.3279992  68.7454990  98.4679997
  34.0509992  68.0174990  99.0239997  35.2549992  68.8644990  98.6739997
  34.4154181  68.6620068  98.5718972  21.6909992  72.7334990 107.4789997
  21.9079992  71.8014990 107.4479997  21.9379992  73.0084990 108.3629997
  21.7540543  72.6430877 107.5941412  27.5529992  71.1854990  94.6889997
  27.7919992  70.4364990  94.1409997  27.2839992  70.7974990  95.5209997
  27.5492804  71.0306524  94.7266352  26.4899992  70.7554990  97.1449997
  26.6369992  70.2354990  97.9349997  26.4869992  71.6624990  97.4509997
  26.5097300  70.8068975  97.2945877  22.9429992  68.0074990  97.6549997
  22.2569992  68.3604990  98.2219997  23.4659992  68.7704990  97.4089997
  22.9199033  68.1588757  97.6992644  30.7739992  60.6704990 107.9339997
  31.4729992  60.7444990 108.5839997  30.3939992  59.8054990 108.0889997
  30.8182095  60.5637402 108.0437982  31.5589992  60.3224990  99.0309997
  31.7789992  60.7934990  98.2279997  32.1169992  60.7164990  99.7019997
  31.6645851  60.4403272  99.0116134  29.2279992  72.4524990  97.8939997
  28.4109992  72.9494990  97.9469997  29.7569992  72.9284990  97.2539997
  29.1877898  72.5848123  97.8147274  28.7589992  62.0504990  99.8659997
  29.5709992  62.5544990  99.9119997  28.5139992  61.9054990 100.7799997
  28.8371091  62.0999366  99.9958552   5.2959992  28.5484990  80.6129997
   5.0039992  29.3164990  80.1219997   4.6219992  27.8894990  80.4499997
   5.1648843  28.5644537  80.5237695  29.2949992  63.0364990 109.0509997
  29.4139992  63.6104990 109.8079997  29.9499992  62.3484990 109.1659997
  29.3998684  63.0220205 109.1701656  29.6429992  59.1314990 100.8039997
  29.2959992  59.7484990 101.4489997  30.3009992  59.6324990 100.3229997
  29.6845290  59.2836384 100.8271635  26.5659992  73.4964990  97.8759997
  26.7269992  74.2964990  97.3749997  26.3689992  73.8034990  98.7609997
  26.5613919  73.6474140  97.9270988  25.2999992  60.1944990  97.4919997
  25.2169992  61.0824990  97.8379997  26.1899992  59.9294990  97.7229997
  25.4089751  60.2802482  97.5706066  35.4989992  60.9434990 109.8859997
  34.5829992  61.2054990 109.7979997  35.8349992  60.9404990 108.9889997
  35.4189789  60.9789637 109.7527829  34.1009992  64.6934990 103.9819997
  33.3039992  64.2784990 103.6529997  34.5459992  64.0034990 104.4729997
  34.0520317  64.5433197 104.0033556  23.5589992  70.6214990  96.5519997
  24.1509992  71.3214990  96.8279997  24.0179992  70.1884990  95.8329997
  23.7021172  70.6587371  96.4925163  21.8749992  63.2864990  95.6679997
  21.8299992  64.2254990  95.8469997  20.9869992  63.0504990  95.3979997
  21.7488472  63.3831946  95.6560282  35.1879992  73.9494990 105.6039997
  35.0319992  74.6284990 104.9469997  36.1199992  74.0214990 105.8069997
  35.2927328  74.0521586 105.5415529  22.6829992  58.0674990 104.3409997
  22.4539992  58.1264990 103.4139997  22.2399992  57.2764990 104.6479997
  22.5917387  57.9686412 104.2555223   1.3889992  30.9114990  89.4279997
   0.8879992  30.8834990  88.6129997   1.3949992  30.0064990  89.7379997
   1.3211690  30.7852234  89.3582770  21.6129992  72.0084990 100.5019997
  20.7809992  72.4804990 100.5289997  22.1589992  72.5184990  99.9029997
  21.5728710  72.1420317 100.4247570  29.5909992  73.0484990  94.8269997
  28.9469992  72.4174990  95.1489997  30.3529992  72.5174990  94.5949997
  29.6058260  72.8903035  94.8397298  34.1949992  72.8654990  95.0609997
  34.4779992  72.0704990  95.5139997  34.9349992  73.0984990  94.4999997
  34.3337295  72.7882349  95.0471469  25.1499992  68.7744990  94.9179997
  25.2139992  67.9804990  95.4489997  25.8029992  68.6564990  94.2289997
  25.2471168  68.6497747  94.8975119  30.5019992  69.8214990  94.6539997
  30.2339992  70.0024990  95.5549997  30.2959992  68.8964990  94.5229997
  30.4374251  69.7211528  94.7596809  33.1989992  68.3164990 109.6019997
  33.9439992  68.9054990 109.4819997  32.4409992  68.8984990 109.6649997
  33.1985185  68.4757000 109.5940940  26.2989992  66.7474990  97.2239997
  25.8399992  66.2634990  97.9099997  26.5539992  66.0784990  96.5879997
  26.2706178  66.5908511  97.2319785  25.5879992  64.6404990 109.5799997
  24.9699992  65.3144990 109.8609997  25.9319992  64.9614990 108.7469997
  25.5498181  64.7763233 109.5058266  27.3699992  64.9904990  95.4869997
  27.1899992  64.8354990  94.5589997  28.3199992  65.0984990  95.5309997
  27.4738016  64.9839264  95.3662123  36.7599992  67.3444990  94.9319997
  36.4869992  66.9204990  94.1189997  36.7999992  68.2764990  94.7149997
  36.7280201  67.4123523  94.7913548   1.1399992  33.6924990  86.3119997
   2.0859992  33.5474990  86.2929997   1.0269992  34.4764990  86.8489997
   1.2543578  33.7786708  86.3820300  26.3399992  60.3644990 108.1549997
  26.8759992  60.8164990 107.5029997  25.4879992  60.2564990 107.7329997
  26.2981648  60.4117883 108.0086395  27.9219992  65.8044990 108.3949997
  28.6729992  65.6484990 107.8219997  27.5829992  66.6564990 108.1189997
  27.9789052  65.8982745 108.2793469  27.1459992  57.8214990 108.5869997
  27.0479992  58.7674990 108.4809997  26.4029992  57.4484990 108.1109997
  27.0322363  57.9005987 108.5082029  27.2679992  75.6804990  96.4879997
  28.2009992  75.8384990  96.6319997  27.0029992  76.3564990  95.8629997
  27.3599846  75.7934567  96.4232930  20.8359992  70.3174990  95.9709997
  21.7499992  70.3964990  96.2439997  20.8429992  69.6304990  95.3039997
  20.9620769  70.2354735  95.9182366  19.4849992  75.7104990 101.0479997
  18.8379992  75.2484990 100.5149997  19.8399992  75.0384990 101.6309997
  19.4443861  75.5564707 101.0537939  20.3549992  73.7904990 102.8529997
  20.0209992  72.9104990 103.0249997  20.5769992  74.1364990 103.7169997
  20.3392677  73.7167366 102.9934252  37.9039992  74.6004990 105.8329997
  37.8819992  74.7854990 106.7719997  38.5939992  75.1684990 105.4919997
  37.9943439  74.7026898 105.9154774  37.4669992  74.1674990 108.7549997
  36.9799992  73.4314990 108.3839997  38.0159992  73.7734990 109.4329997
  37.4746101  74.0136267 108.7959034  37.2189992  68.2134990  98.9069997
  38.0689992  68.6344990  99.0349997  37.2239992  67.4734990  99.5149997
  37.3359745  68.1711347  99.0066479  19.3369992  34.3584990  91.9939997
  19.2879992  33.4024990  91.9569997  18.5109992  34.6254990  92.3959997
  19.2185767  34.2638841  92.0433133  37.6129992  66.2674990 100.7309997
  36.8869992  65.7874990 101.1289997  38.1939992  66.4724990 101.4629997
  37.5922504  66.2295592 100.8844199  37.3719992  69.0524990 105.6789997
  38.2059992  68.6744990 105.3979997  37.4839992  69.9954990 105.5599997
  37.5011917  69.1282954 105.6244844  35.8579992  71.9304990 107.9859997
  35.2109992  72.2554990 108.6109997  35.3409992  71.4894990 107.3109997
  35.6994068  71.9154726 107.9804918  37.8809992  66.1684990  97.1219997
  37.3599992  66.5244990  96.4029997  37.8479992  66.8434990  97.7999997
  37.8051525  66.3085273  97.1151408  36.2299992  63.4074990  95.6729997
  36.3269992  64.0744990  94.9929997  36.0899992  62.5924990  95.1909997
  36.2243428  63.3885667  95.5148311  35.3999992  64.7884990 101.2939997
  35.2499992  63.8434990 101.2739997  35.0459992  65.0694990 102.1379997
  35.3316351  64.6971656 101.4053202  20.4349992  66.8664990 105.3039997
  20.6189992  66.7844990 104.3689997  21.2839992  66.7424990 105.7279997
  20.5750259  66.8384915 105.2331771  35.4779992  60.8154990  94.7899997
  36.0879992  60.4444990  95.4269997  34.6409992  60.3944990  94.9859997
  35.4483704  60.7077942  94.9037077  35.1099992  62.3704990  99.7559997
  35.3899992  61.4634990  99.8809997  35.8689992  62.8044990  99.3669997
  35.2509471  62.3050654  99.7205052  35.7219992  62.9524990 105.1919997
  36.6549992  63.1644990 105.1579997  35.4869992  63.0534990 106.1149997
  35.8178357  62.9951303 105.3120232  10.3159992  33.9324990  90.8699997
  10.4029992  34.7584990  91.3449997   9.4519992  33.6024990  91.1189997
  10.2111944  34.0009871  90.9686558  35.7509992  63.6894990 107.9679997
  34.9079992  63.9574990 108.3339997  36.1939992  64.5114990 107.7569997
  35.6954358  63.8373294 107.9895999  35.7239992  59.6334990  99.8049997
  35.9059992  59.1844990 100.6299997  35.1239992  59.0494990  99.3409997
  35.6678187  59.4930563  99.8552721  21.2539992  60.4494990 104.3359997
  21.6989992  59.6574990 104.6379997  21.7199992  61.1654990 104.7669997
  21.3779059  60.4379485 104.4356061  19.5579992  63.4484990 105.4049997
  20.0499992  63.2274990 104.6149997  19.9199992  64.2884990 105.6859997
  19.6743429  63.5318220 105.3347918  37.5899992  59.7014990  96.3329997
  38.0029992  58.9804990  95.8569997  38.2719992  60.3704990  96.3909997
  37.7385712  59.6934304  96.2758247  19.8709992  59.7064990  99.4599997
  18.9459992  59.9144990  99.3299997  20.3249992  60.1904990  98.7699997
  19.8057401  59.8003895  99.3489433  34.6419992  74.6904990 101.4049997
  35.2939992  74.3424990 100.7969997  35.1529992  75.1784990 102.0509997
  34.8002872  74.7088248 101.4090964  19.8349992  58.4444990 107.8039997
  19.1699992  58.1984990 108.4469997  19.3919992  59.0664990 107.2269997
  19.6841168  58.4949225 107.8139830  24.9809992  72.5934990 108.2069997
  24.5559992  73.4034990 107.9239997  25.8849992  72.6794990 107.9049997
  25.0451002  72.7158728 108.1274798  36.5549992  57.8684990 109.4899997
  35.7419992  58.1934990 109.1019997  36.7879992  57.1074990 108.9569997
  36.4752566  57.8101570 109.3649196   4.3839992  36.4934990  82.4569997
   4.5359992  36.1454990  83.3359997   3.5329992  36.1364990  82.2019997
   4.2897899  36.3976749  82.5427322  22.3829992  75.8504990 108.2539997
  21.6619992  76.2904990 107.8029997  22.0169992  75.5994990 109.1029997
  22.2349785  75.8767691 108.3069849  24.8499992  75.4504990 107.2839997
  23.9849992  75.5224990 107.6879997  24.7949992  75.9974990 106.4999997
  24.7242066  75.5342678 107.2333371  29.5609992  75.3384990 106.4599997
  29.1039992  75.8674990 105.8059997  29.7229992  75.9414990 107.1849997
  29.5203919  75.4923990 106.4685740  31.8879992  74.2164990 107.4049997
  30.9839992  74.3814990 107.1389997  32.3169992  75.0694990 107.3389997
  31.8222017  74.3544184 107.3596495  34.4919992  75.7864990 107.6999997
  34.3109992  76.7024990 107.4889997  34.6689992  75.3754990 106.8529997
  34.4911377  75.8563365 107.5567178  21.7979992  74.4734990 105.1649997
  21.7789992  74.0474990 106.0219997  22.6019992  74.1544990 104.7559997
  21.9041393  74.3720297 105.2270155  23.9389992  73.1834990 103.8199997
  23.7199992  72.2664990 103.9889997  24.7629992  73.3234990 104.2859997
  24.0204637  73.0769586 103.9061414  26.4759992  73.6534990 104.6679997
  26.6889992  72.7654990 104.3809997  26.5409992  73.6184990 105.6229997
  26.5139075  73.5273318 104.7577355  29.9849992  59.3174990 103.8129997
  29.3099992  58.6874990 104.0679997  30.5489992  58.8334990 103.2099997
  29.9689558  59.1659283 103.7663451  35.1269992  57.4244990 103.9249997
  35.7309992  57.9724990 103.4239997  34.2579992  57.7434990 103.6849997
  35.0921126  57.5427070 103.8239180  13.8319992  36.8584990  77.6789997
  14.2069992  36.1144990  77.2079997  13.8359992  36.5884990  78.5969997
  13.8838969  36.7200920  77.7386475  36.8539992  58.5634990 102.2589997
  37.4659992  58.0494990 101.7319997  37.2369992  59.4404990 102.2819997
  36.9893867  58.6117613 102.1900888  22.3109992  57.9514990 101.6349997
  21.5339992  57.7164990 101.1269997  22.8419992  57.1544990 101.6439997
  22.2764443  57.8116721 101.5667200  21.1479992  57.7494990  97.4379997
  21.5869992  58.3604990  96.8469997  20.5139992  58.2874990  97.9119997
  21.1224103  57.9059233  97.4211376  26.8909992  57.8774990 101.4479997
  27.7649992  58.2664990 101.4179997  26.7549992  57.6624990 102.3709997
  26.9923125  57.9017120 101.5686523  32.4469992  57.9074990 103.0969997
  32.5239992  58.0034990 102.1479997  32.1719992  57.0004990 103.2259997
  32.4203407  57.7979188 102.9843532  33.8009992  57.9334990  98.7899997
  33.0979992  58.5484990  98.5799997  33.3559992  57.0964990  98.9209997
  33.6446550  57.9044679  98.7789819  21.0489992  73.6974990  98.3359997
  20.3639992  73.6594990  97.6679997  21.0519992  74.6094990  98.6239997
  20.9557358  73.8156744  98.2836145  23.0089992  59.6654990  95.8809997
  23.4999992  59.0354990  95.3529997  23.6319992  59.9614990  96.5439997
  23.1605459  59.6192419  95.8983667  28.0349992  59.9584990  98.3379997
  28.2129992  59.3114990  99.0209997  27.9809992  60.7924990  98.8049997
  28.0520678  59.9826615  98.4946283  29.9129992  74.9064990  96.7329997
  30.7789992  75.2734990  96.5549997  29.6659992  74.4674990  95.9199997
  29.9982041  74.8973648  96.5985958  13.5009992  36.7844990  80.4279997
  12.5659992  36.8844990  80.6069997  13.7809992  36.0744990  81.0059997
  13.4109270  36.7022300  80.5305984  36.6219992  74.4694990  99.4129997
  36.4279992  73.7214990  98.8479997  36.5829992  75.2274990  98.8289997
  36.5901907  74.4695770  99.2568077  22.8669992  74.6174990  95.3609997
  22.5989992  74.9034990  96.2339997  23.6379992  74.0714990  95.5129997
  22.9345600  74.5828341  95.5011482  50.2459992  67.1074990 101.5929997
  50.3349992  68.0514990 101.4609997  49.6069992  66.8324990 100.9349997
  50.1718319  67.1994984 101.4860276  49.1789992  66.3624990 105.0119997
  49.1399992  65.7164990 105.7169997  48.8559992  65.8954990 104.2409997
  49.1300199  66.2110089 105.0042865  41.5469992  65.9764990 106.6049997
  41.5879992  65.3514990 107.3289997  42.2499992  66.6004990 106.7869997
  41.6476054  65.9753262 106.7286311  52.8849992  69.3014990 103.3139997
  52.4439992  68.5814990 103.7639997  52.8719992  70.0224990 103.9439997
  52.8228398  69.3003187 103.4607734  42.4709992  70.4264990 105.1399997
  42.1009992  69.6244990 104.7709997  43.4119992  70.2584990 105.1869997
  42.5475630  70.2938680 105.0957873  39.0809992  64.0864990 100.5329997
  38.6329992  64.9324990 100.5149997  38.5199992  63.5074990 100.0179997
  38.9438546  64.1239004 100.4608874  39.7909992  66.2484990 102.6589997
  40.0049992  65.4784990 103.1859997  40.5289992  66.3384990 102.0559997
  39.9200073  66.1553546 102.6495786  49.9959992  74.4054990 103.5259997
  50.6159992  73.7294990 103.2529997  49.7879992  74.1874990 104.4339997
  50.0527360  74.2834792 103.6114387  16.4889992  25.8514990  92.4739997
  16.0819992  26.3314990  91.7539997  16.5299992  24.9454990  92.1669997
  16.4387178  25.7948609  92.3337441  47.5679992  68.7944990 105.4179997
  47.8719992  68.1084990 104.8239997  48.2899992  68.9134990 106.0359997
  47.7071152  68.7167201 105.4202106  56.2309992  60.3964990 106.2789997
  56.2799992  61.0064990 107.0149997  56.6569992  60.8574990 105.5559997
  56.2952851  60.5423266 106.2820532  50.7089992  63.1884990 105.7459997
  50.8509992  62.2424990 105.7659997  50.6029992  63.3954990 104.8169997
  50.7141158  63.0869722 105.6232241  43.8639992  61.2904990 103.0179997
  43.9069992  62.1504990 102.5999997  43.4059992  60.7374990 102.3849997
  43.8079613  61.3335689 102.8751276  51.5859992  61.4214990 101.4189997
  52.2319992  61.0924990 102.0439997  52.0959992  61.9384990 100.7959997
  51.7434392  61.4463710 101.4203248  40.4839992  63.6874990 103.7799997
  41.1379992  63.1374990 104.2119997  40.5079992  63.4134990 102.8639997
  40.5767022  63.5752005 103.7151698  45.6399992  65.2374990 102.9959997
  46.2559992  64.7104990 103.5049997  45.0539992  64.5974990 102.5919997
  45.6450652  65.0788919 103.0110277  56.6229992  61.8744990 108.5149997
  55.9339992  62.5324990 108.4199997  56.6379992  61.6764990 109.4519997
  56.5307756  61.9377614 108.6285795  42.6739992  60.2084990 107.0919997
  42.4549992  60.7384990 106.3259997  42.0059992  60.4344990 107.7399997
  42.5537271  60.3116508 107.0746206  50.0429992  69.7084990 100.6359997
  49.7469992  69.3854990  99.7849997  49.7189992  70.6084990 100.6779997
  49.9586501  69.7859058 100.5250893   3.6379992  32.2354990  90.4709997
   3.8539992  31.8734990  91.3309997   2.7829992  31.8604990  90.2609997
   3.5519349  32.1352914  90.5602134  45.2429992  67.8834990 107.3799997
  44.5029992  68.4824990 107.4829997  45.9569992  68.4374990 107.0639997
  45.2383288  68.0402368 107.3513787  53.3499992  60.7124990 103.3999997
  53.1349992  59.9464990 103.9319997  54.0059992  61.1844990 103.9129997
  53.4092451  60.6714472 103.5421699  42.2679992  62.1004990 105.0449997
  42.8809992  62.7334990 105.4179997  42.7799992  61.6284990 104.3879997
  42.4211680  62.1234006 105.0072830  43.6499992  69.8484990 108.1669997
  43.6449992  70.7274990 107.7889997  42.7969992  69.7644990 108.5919997
  43.5339199  69.9575901 108.1726942  39.7719992  69.5194990  98.9489997
  39.4999992  69.7484990  98.0599997  39.8169992  70.3564990  99.4089997
  39.7408709  69.6641069  98.8896089  53.3969992  71.1404990 105.6619997
  52.4549992  71.1994990 105.8229997  53.6729992  72.0464990 105.5249997
  53.3055771  71.2710270 105.6654827  53.6969992  59.4274990 107.0789997
  52.9609992  60.0374990 107.0409997  54.3809992  59.8424990 106.5529997
  53.6885885  59.5671924 107.0026931  46.6999992  57.5134990 104.5449997
  46.5829992  56.5654990 104.4909997  45.8449992  57.8464990 104.8179997
  46.5683691  57.4285842 104.5745072  51.6489992  72.9214990 102.2869997
  52.0739992  72.2144990 101.8019997  51.9659992  73.7234990 101.8699997
  51.7500266  72.9330201 102.1642461  52.8079992  70.8224990 100.7959997
  52.5509992  70.1324990 100.1839997  52.8789992  70.3794990 101.6409997
  52.7824322  70.6681568 100.8265372   6.2569992  20.7054990  86.4669997
   5.3949992  20.6184990  86.0589997   6.2349992  21.5614990  86.8939997
   6.1360953  20.8093558  86.4689262  54.4939992  69.3894990 109.2729997
  54.6339992  68.7974990 108.5339997  54.6619992  70.2624990 108.9169997
  54.5358734  69.4264041 109.1236937  48.9669992  66.3514990  99.0449997
  48.2549992  66.8864990  98.6939997  49.6579992  66.4064990  98.3849997
  48.9628696  66.4322591  98.9076372  49.0209992  64.8084990  96.0839997
  49.7219992  64.8314990  96.7349997  49.3229992  64.1804990  95.4279997
  49.1578282  64.7267350  96.0844478  56.3359992  65.7294990 107.3389997
  55.6839992  66.4234990 107.4279997  56.8009992  65.9394990 106.5289997
  56.3095357  65.8529544 107.2417056  52.3729992  66.5604990  99.9969997
  51.6409992  66.7894990 100.5699997  52.8199992  65.8474990 100.4519997
  52.3332753  66.4953984 100.1369698  52.2699992  64.7354990 109.0649997
  52.3499992  65.4984990 109.6369997  51.6689992  65.0144990 108.3739997
  52.1997115  64.8777707 109.0499631  44.0179992  67.1914990 101.8799997
  43.6879992  66.8204990 101.0609997  44.6059992  66.5204990 102.2259997
  44.0524056  67.0501257 101.8149035  45.3849992  70.6194990 104.5609997
  45.2899992  70.0404990 103.8039997  46.1139992  70.2484990 105.0569997
  45.4706161  70.4900902 104.5245192  44.3849992  65.9594990 105.5129997
  44.9499992  66.0814990 104.7499997  44.7029992  66.5974990 106.1519997
  44.5053430  66.0624448 105.4949094  50.6939992  71.4634990 106.2469997
  50.4529992  72.1254990 106.8949997  50.4959992  70.6284990 106.6719997
  50.6342662  71.4412704 106.3931008  10.9199992  20.4274990  89.8409997
  11.3399992  20.0124990  90.5939997   9.9869992  20.2484990  89.9579997
  10.8513736  20.3464921  89.9598950  51.2439992  65.7234990  97.6819997
  51.8229992  65.8734990  98.4289997  51.6579992  66.1934990  96.9589997
  51.3793122  65.8076288  97.6865024  42.1849992  66.5574990 109.4589997
  42.2549992  67.2084990 110.1569997  41.2939992  66.6604990 109.1239997
  42.0741802  66.6604769 109.5092231  48.9699992  72.4594990 101.1179997
  49.4439992  72.7554990 101.8949997  48.4069992  73.1984990 100.8839997
  48.9588460  72.5998336 101.1927626  54.9419992  57.4734990  97.4949997
  54.0419992  57.6114990  97.7899997  55.1939992  58.3044990  97.0929997
  54.8527355  57.6048200  97.4810539  43.0079992  66.2604990  99.4689997
  42.7159992  67.0284990  98.9779997  42.3339992  65.6014990  99.3059997
  42.8768843  66.2764537  99.3797695  56.1319992  71.8394990  95.8719997
  56.2049992  72.7784990  96.0419997  57.0369992  71.5344990  95.8149997
  56.2644168  71.9268531  95.8875736  39.1009992  68.6234990 108.2839997
  38.5999992  68.5954990 107.4689997  39.1069992  67.7184990 108.5939997
  39.0331690  68.4972234 108.2142770  38.8519992  71.4044990 105.1679997
  39.7979992  71.2594990 105.1489997  38.7389992  72.1884990 105.7049997
  38.9663578  71.4906708 105.2380300  48.0279992  71.6444990 109.7259997
  48.1149992  72.4704990 110.2009997  47.1639992  71.3144990 109.9749997
  47.9231944  71.7129871 109.8246558  48.4419992  75.4164990  99.5319997
  48.3669992  75.2954990  98.5859997  48.4749992  76.3654990  99.6509997
  48.4361862  75.5282492  99.4184840  14.2459992  24.1824990  90.6949997
  13.7319992  24.0574990  91.4919997  14.0909992  25.0954990  90.4499997
  14.1546643  24.2887068  90.7710624  42.0959992  74.2054990 101.3129997
  42.2479992  73.8574990 102.1919997  41.2449992  73.8484990 101.0579997
  42.0017899  74.1096749 101.3987322  51.5439992  74.5704990  96.5349997
  51.9189992  73.8264990  96.0639997  51.5479992  74.3004990  97.4529997
  51.5958969  74.4320920  96.5946475  51.2129992  74.4964990  99.2839997
  50.2779992  74.5964990  99.4629997  51.4929992  73.7864990  99.8619997
  51.1229270  74.4142300  99.3865984  41.3499992  69.9474990 109.3269997
  41.5659992  69.5854990 110.1869997  40.4949992  69.5724990 109.1169997
  41.2639349  69.8472914 109.4162134  43.9689992  58.4174990 105.3229997
  43.1069992  58.3304990 104.9149997  43.9469992  59.2734990 105.7499997
  43.8480953  58.5213558 105.3249262  48.6319992  58.1394990 108.6969997
  49.0519992  57.7244990 109.4499997  47.6989992  57.9604990 108.8139997
  48.5633736  58.0584921 108.8158950  51.9579992  61.8944990 109.5509997
  51.4439992  61.7694990 110.3479997  51.8029992  62.8074990 109.3059997
  51.8666643  62.0007068 109.6270624  52.7209992  66.7554990  95.3119997
  52.7629992  66.5334990  94.3819997  53.5699992  67.1544990  95.5019997
  52.8415253  66.7790510  95.2103804  48.2939992  60.6314990  95.9819997
  48.0399992  60.6504990  96.9049997  48.0369992  59.7604990  95.6809997
  48.2245133  60.5163121  96.0675065  44.0599992  63.3824990 106.4179997
  43.4179992  63.3424990 107.1269997  44.0969992  64.3094990 106.1799997
  43.9771659  63.5022540 106.4828463  10.5819992  22.9194990  77.1259997
  10.3279992  22.9384990  78.0489997  10.3249992  22.0484990  76.8249997
  10.5125133  22.8043121  77.2115065  44.0569992  63.6034990 101.3299997
  43.1639992  63.2634990 101.2709997  44.5079992  63.2264990 100.5739997
  43.9957185  63.5060220 101.2197698  49.5929992  64.0194990 100.1469997
  49.1839992  64.8344990  99.8549997  50.3129992  63.8794990  99.5319997
  49.6343946  64.1119963 100.0239616  50.5969992  63.4654990 102.9609997
  50.4019992  64.0714990 102.2459997  50.7789992  62.6324990 102.5259997
  50.5949272  63.4357955 102.8044075  41.8099992  63.7034990 108.2849997
  41.7719992  64.1034990 109.1529997  41.3189992  62.8864990 108.3749997
  41.7384246  63.6478842 108.4161171  45.1759992  61.0774990  95.0829997
  44.7449992  60.6324990  95.8129997  44.4579992  61.4484990  94.5709997
  45.0199363  61.0667979  95.1136194  38.4179992  60.8194990 102.1349997
  39.0489992  60.7904990 102.8549997  38.8679992  60.3944990 101.4049997
  38.5650905  60.7580839 102.1347479  39.6919992  61.5654990  97.5589997
  40.1669992  62.1564990  96.9739997  38.9749992  62.0954990  97.9059997
  39.6600406  61.7181011  97.5258495  49.8609992  65.1034990 107.6319997
  50.1849992  64.4724990 106.9889997  49.4209992  64.5694990 108.2929997
  49.8458707  64.9448261 107.6333195  46.6389992  61.0314990 102.4159997
  45.7279992  61.0884990 102.7049997  47.1439992  60.9714990 103.2269997
  46.5826873  61.0311838 102.5651190  41.4669992  62.6604990 101.2429997
  40.5779992  62.7594990 100.9029997  41.7629992  61.8184990 100.8969997
  41.3854001  62.5602473 101.1497318   6.3479992  25.6704990  87.5619997
   5.7059992  25.6304990  88.2709997   6.3849992  26.5974990  87.3239997
   6.2651659  25.7902540  87.6268463  45.1199992  62.6604990  98.8989997
  46.0519992  62.7894990  99.0769997  44.9049992  63.3294990  98.2499997
  45.2184245  62.7686452  98.8355602  51.0439992  60.2664990 105.6799997
  50.3669992  60.3974990 106.3439997  50.5579992  60.1114990 104.8699997
  50.8857265  60.2634665 105.6613380  43.7939992  63.8544990  96.4659997
  43.2519992  63.4754990  95.7749997  44.6279992  64.0494990  96.0369997
  43.8324283  63.8289383  96.3134298  47.9589992  63.8184990 104.3029997
  48.5229992  63.2724990 103.7559997  47.8109992  63.2974990 105.0919997
  48.0163037  63.6731798 104.3347212  42.9609992  59.9554990 100.7209997
  42.6429992  59.0524990 100.6859997  43.7419992  59.9574990 100.1689997
  43.0231560  59.8321148 100.6414975  46.5849992  62.2074990 106.7169997
  45.7499992  62.6614990 106.8269997  47.1089992  62.4834990 107.4689997
  46.5415070  62.3069677 106.8337134  47.1289992  68.4204990  98.4019997
  46.3839992  67.9124990  98.0789997  46.9949992  68.4694990  99.3479997
  47.0088633  68.3575714  98.4857563  54.2789992  67.5534990 107.1879997
  54.9209992  68.0094990 106.6449997  53.4489992  67.6664990 106.7259997
  54.2547352  67.6313223 107.0510234  51.0269992  61.2344990  96.6009997
  50.0879992  61.3454990  96.4499997  51.3239992  62.0904990  96.9069997
  50.9386371  61.3655327  96.6217362  48.6489992  68.6044990 109.6389997
  48.3029992  68.2224990 110.4449997  48.4489992  69.5374990 109.7099997
  48.5745399  68.6783489 109.7590401   6.3449992  25.8914990  82.4739997
   5.4519992  25.5514990  82.4149997   6.7959992  25.5144990  81.7179997
   6.2837185  25.7940220  82.3637698  51.7449992  63.1014990  98.2619997
  52.6369992  62.9634990  98.5809997  51.8019992  63.8924990  97.7249997
  51.8747380  63.1894777  98.2330981  42.2539992  67.7154990 104.1709997
  42.9989992  67.7124990 103.5699997  42.3319992  66.8914990 104.6529997
  42.3664158  67.6037928 104.1539136  49.2549992  69.8784990  97.4269997
  48.9599992  70.7054990  97.8089997  48.5519992  69.2594990  97.6229997
  49.1195855  69.9079458  97.5057633  39.2619992  66.1754990 109.4859997
  39.4849992  65.7574990 110.3179997  38.6599992  65.5634990 109.0639997
  39.2110802  66.0355216 109.5427561  50.8989992  71.0664990 109.5889997
  49.9979992  71.2494990 109.3209997  50.9329992  71.3254990 110.5099997
  50.7803021  71.1265505 109.6768206  56.6299992  63.3104990  97.9559997
  56.0759992  62.9144990  97.2839997  56.7309992  64.2214990  97.6789997
  56.5677084  63.3793565  97.8264381  54.9249992  72.0964990  98.4209997
  54.5529992  71.2714990  98.7309997  55.2029992  71.9134990  97.5239997
  54.9115997  71.9586160  98.3421551  52.0859992  66.9044990 105.4429997
  51.1579992  66.6734990 105.4159997  52.5369992  66.1274990 105.1129997
  52.0198165  66.7677785 105.3946772  44.6289992  71.2334990 101.5759997
  45.1559992  72.0064990 101.3749997  43.7489992  71.4574990 101.2739997
  44.5821793  71.3696652 101.5076304  40.3839992  66.0954990  96.1629997
  40.9999992  66.7224990  96.5419997  39.5219992  66.4114990  96.4339997
  40.3518195  66.2240810  96.2515369  11.8809992  26.3074990  81.2909997
  11.4719992  27.1224990  80.9989997  12.6009992  26.1674990  80.6759997
  11.9223946  26.3999963  81.1679616  46.0559992  68.8964990 101.1519997
  45.8149992  69.8214990 101.1939997  45.3159992  68.4374990 101.5479997
  45.9228934  68.9610881 101.2113191  46.5709992  73.0454990 107.4669997
  46.9339992  73.8994990 107.2339997  47.1029992  72.7534990 108.2079997
  46.6925141  73.1228907 107.5352079  44.7389992  73.9174990 100.6969997
  43.7899992  74.0234990 100.7489997  45.0909992  74.7384990 101.0419997
  44.6566214  74.0429361 100.7507317  50.1149992  69.1444990 107.1679997
  49.6889992  68.9164990 107.9939997  50.6959992  68.4054990 106.9849997
  50.1351587  69.0134084 107.2564111  52.3179992  70.0734990  96.2419997
  52.6709992  69.6934990  97.0459997  51.3689992  69.9794990  96.3279997
  52.2380985  70.0087330  96.3637738  52.7739992  73.6964990 109.6369997
  52.1719992  73.1404990 109.1419997  53.0549992  74.3634990 109.0109997
  52.7295757  73.7105755 109.4845657  56.8209992  74.5524990  96.4429997
  57.5649992  75.1384990  96.3029997  56.1269992  75.1214990  96.7759997
  56.8289809  74.7095830  96.4688572  40.8959992  60.9294990 109.0439997
  40.0029992  61.2674990 108.9769997  40.7969992  60.0734990 109.4619997
  40.7605241  60.8600941 109.0912982  53.1839992  68.7454990  98.4679997
  52.9069992  68.0174990  99.0239997  54.1109992  68.8644990  98.6739997
  53.2714181  68.6620068  98.5718972  40.5469992  72.7334990 107.4789997
  40.7639992  71.8014990 107.4479997  40.7939992  73.0084990 108.3629997
  40.6100543  72.6430877 107.5941412  10.9829992  26.4834990  92.7789997
  10.4199992  25.7784990  93.0989997  11.8089992  26.3624990  93.2459997
  11.0176423  26.3705614  92.8860168  46.4089992  71.1854990  94.6889997
  46.6479992  70.4364990  94.1409997  46.1399992  70.7974990  95.5209997
  46.4052804  71.0306524  94.7266352  45.3459992  70.7554990  97.1449997
  45.4929992  70.2354990  97.9349997  45.3429992  71.6624990  97.4509997
  45.3657300  70.8068975  97.2945877  41.7989992  68.0074990  97.6549997
  41.1129992  68.3604990  98.2219997  42.3219992  68.7704990  97.4089997
  41.7759033  68.1588757  97.6992644  49.6299992  60.6704990 107.9339997
  50.3289992  60.7444990 108.5839997  49.2499992  59.8054990 108.0889997
  49.6742095  60.5637402 108.0437982  50.4149992  60.3224990  99.0309997
  50.6349992  60.7934990  98.2279997  50.9729992  60.7164990  99.7019997
  50.5205851  60.4403272  99.0116134  48.0839992  72.4524990  97.8939997
  47.2669992  72.9494990  97.9469997  48.6129992  72.9284990  97.2539997
  48.0437898  72.5848123  97.8147274  47.6149992  62.0504990  99.8659997
  48.4269992  62.5544990  99.9119997  47.3699992  61.9054990 100.7799997
  47.6931091  62.0999366  99.9958552  48.1509992  63.0364990 109.0509997
  48.2699992  63.6104990 109.8079997  48.8059992  62.3484990 109.1659997
  48.2558684  63.0220205 109.1701656  48.4989992  59.1314990 100.8039997
  48.1519992  59.7484990 101.4489997  49.1569992  59.6324990 100.3229997
  48.5405290  59.2836384 100.8271635  45.4219992  73.4964990  97.8759997
  45.5829992  74.2964990  97.3749997  45.2249992  73.8034990  98.7609997
  45.4173919  73.6474140  97.9270988  12.8849992  25.7534990  84.1049997
  12.6899992  26.3594990  83.3899997  13.0669992  24.9204990  83.6699997
  12.8829272  25.7237955  83.9484075  44.1559992  60.1944990  97.4919997
  44.0729992  61.0824990  97.8379997  45.0459992  59.9294990  97.7229997
  44.2649751  60.2802482  97.5706066  54.3549992  60.9434990 109.8859997
  53.4389992  61.2054990 109.7979997  54.6909992  60.9404990 108.9889997
  54.2749789  60.9789637 109.7527829  52.9569992  64.6934990 103.9819997
  52.1599992  64.2784990 103.6529997  53.4019992  64.0034990 104.4729997
  52.9080317  64.5433197 104.0033557  42.4149992  70.6214990  96.5519997
  43.0069992  71.3214990  96.8279997  42.8739992  70.1884990  95.8329997
  42.5581172  70.6587371  96.4925163  40.7309992  63.2864990  95.6679997
  40.6859992  64.2254990  95.8469997  39.8429992  63.0504990  95.3979997
  40.6048472  63.3831946  95.6560282  54.0439992  73.9494990 105.6039997
  53.8879992  74.6284990 104.9469997  54.9759992  74.0214990 105.8069997
  54.1487328  74.0521586 105.5415529  41.5389992  58.0674990 104.3409997
  41.3099992  58.1264990 103.4139997  41.0959992  57.2764990 104.6479997
  41.4477387  57.9686412 104.2555223  40.4689992  72.0084990 100.5019997
  39.6369992  72.4804990 100.5289997  41.0149992  72.5184990  99.9029997
  40.4288710  72.1420317 100.4247570  48.4469992  73.0484990  94.8269997
  47.8029992  72.4174990  95.1489997  49.2089992  72.5174990  94.5949997
  48.4618260  72.8903035  94.8397298  53.0509992  72.8654990  95.0609997
  53.3339992  72.0704990  95.5139997  53.7909992  73.0984990  94.4999997
  53.1897295  72.7882349  95.0471469   4.0979992  25.9914990  89.4289997
   4.0599992  26.3914990  90.2969997   3.6069992  25.1744990  89.5189997
   4.0264246  25.9358842  89.5601171  44.0059992  68.7744990  94.9179997
  44.0699992  67.9804990  95.4489997  44.6589992  68.6564990  94.2289997
  44.1031168  68.6497748  94.8975119  49.3579992  69.8214990  94.6539997
  49.0899992  70.0024990  95.5549997  49.1519992  68.8964990  94.5229997
  49.2934251  69.7211528  94.7596809  52.0549992  68.3164990 109.6019997
  52.7999992  68.9054990 109.4819997  51.2969992  68.8984990 109.6649997
  52.0545185  68.4757000 109.5940940  45.1549992  66.7474990  97.2239997
  44.6959992  66.2634990  97.9099997  45.4099992  66.0784990  96.5879997
  45.1266178  66.5908511  97.2319785  44.4439992  64.6404990 109.5799997
  43.8259992  65.3144990 109.8609997  44.7879992  64.9614990 108.7469997
  44.4058181  64.7763233 109.5058266  46.2259992  64.9904990  95.4869997
  46.0459992  64.8354990  94.5589997  47.1759992  65.0984990  95.5309997
  46.3298016  64.9839264  95.3662123  55.6159992  67.3444990  94.9319997
  55.3429992  66.9204990  94.1189997  55.6559992  68.2764990  94.7149997
  55.5840201  67.4123523  94.7913548  45.1959992  60.3644990 108.1549997
  45.7319992  60.8164990 107.5029997  44.3439992  60.2564990 107.7329997
  45.1541648  60.4117883 108.0086395  46.7779992  65.8044990 108.3949997
  47.5289992  65.6484990 107.8219997  46.4389992  66.6564990 108.1189997
  46.8349052  65.8982745 108.2793469  46.0019992  57.8214990 108.5869997
  45.9039992  58.7674990 108.4809997  45.2589992  57.4484990 108.1109997
  45.8882363  57.9005987 108.5082029   7.4639992  23.3654990  76.2269997
   7.0329992  22.9204990  76.9569997   6.7459992  23.7364990  75.7149997
   7.3079363  23.3547979  76.2576194  46.1239992  75.6804990  96.4879997
  47.0569992  75.8384990  96.6319997  45.8589992  76.3564990  95.8629997
  46.2159846  75.7934567  96.4232930  39.6919992  70.3174990  95.9709997
  40.6059992  70.3964990  96.2439997  39.6989992  69.6304990  95.3039997
  39.8180769  70.2354735  95.9182366  38.3409992  75.7104990 101.0479997
  37.6939992  75.2484990 100.5149997  38.6959992  75.0384990 101.6309997
  38.3003861  75.5564707 101.0537939  39.2109992  73.7904990 102.8529997
  38.8769992  72.9104990 103.0249997  39.4329992  74.1364990 103.7169997
  39.1952677  73.7167366 102.9934252  56.7599992  74.6004990 105.8329997
  56.7379992  74.7854990 106.7719997  57.4499992  75.1684990 105.4919997
  56.8503439  74.7026898 105.9154774  56.3229992  74.1674990 108.7549997
  55.8359992  73.4314990 108.3839997  56.8719992  73.7734990 109.4329997
  56.3306101  74.0136267 108.7959034  56.0749992  68.2134990  98.9069997
  56.9249992  68.6344990  99.0349997  56.0799992  67.4734990  99.5149997
  56.1919745  68.1711347  99.0066479  56.4689992  66.2674990 100.7309997
  55.7429992  65.7874990 101.1289997  57.0499992  66.4724990 101.4629997
  56.4482504  66.2295592 100.8844199  56.2279992  69.0524990 105.6789997
  57.0619992  68.6744990 105.3979997  56.3399992  69.9954990 105.5599997
  56.3571917  69.1282954 105.6244844  54.7139992  71.9304990 107.9859997
  54.0669992  72.2554990 108.6109997  54.1969992  71.4894990 107.3109997
  54.5554068  71.9154726 107.9804918   0.7059992  23.1074990  83.2789997
   1.3369992  23.0784990  83.9989997   1.1559992  22.6824990  82.5489997
   0.8530905  23.0460839  83.2787479  56.7369992  66.1684990  97.1219997
  56.2159992  66.5244990  96.4029997  56.7039992  66.8434990  97.7999997
  56.6611525  66.3085273  97.1151408  55.0859992  63.4074990  95.6729997
  55.1829992  64.0744990  94.9929997  54.9459992  62.5924990  95.1909997
  55.0803428  63.3885667  95.5148311  54.2559992  64.7884990 101.2939997
  54.1059992  63.8434990 101.2739997  53.9019992  65.0694990 102.1379997
  54.1876351  64.6971656 101.4053202  39.2909992  66.8664990 105.3039997
  39.4749992  66.7844990 104.3689997  40.1399992  66.7424990 105.7279997
  39.4310259  66.8384915 105.2331771  54.3339992  60.8154990  94.7899997
  54.9439992  60.4444990  95.4269997  53.4969992  60.3944990  94.9859997
  54.3043704  60.7077942  94.9037077  53.9659992  62.3704990  99.7559997
  54.2459992  61.4634990  99.8809997  54.7249992  62.8044990  99.3669997
  54.1069471  62.3050654  99.7205052  54.5779992  62.9524990 105.1919997
  55.5109992  63.1644990 105.1579997  54.3429992  63.0534990 106.1149997
  54.6738357  62.9951303 105.3120232  54.6069992  63.6894990 107.9679997
  53.7639992  63.9574990 108.3339997  55.0499992  64.5114990 107.7569997
  54.5514358  63.8373294 107.9895999  54.5799992  59.6334990  99.8049997
  54.7619992  59.1844990 100.6299997  53.9799992  59.0494990  99.3409997
  54.5238187  59.4930563  99.8552721  40.1099992  60.4494990 104.3359997
  40.5549992  59.6574990 104.6379997  40.5759992  61.1654990 104.7669997
  40.2339059  60.4379485 104.4356061  12.1489992  27.3914990  88.7759997
  12.4729992  26.7604990  88.1329997  11.7089992  26.8574990  89.4369997
  12.1338707  27.2328261  88.7773195  38.4139992  63.4484990 105.4049997
  38.9059992  63.2274990 104.6149997  38.7759992  64.2884990 105.6859997
  38.5303429  63.5318220 105.3347918  56.4459992  59.7014990  96.3329997
  56.8589992  58.9804990  95.8569997  57.1279992  60.3704990  96.3909997
  56.5945712  59.6934304  96.2758247  38.7269992  59.7064990  99.4599997
  37.8019992  59.9144990  99.3299997  39.1809992  60.1904990  98.7699997
  38.6617401  59.8003895  99.3489433  53.4979992  74.6904990 101.4049997
  54.1499992  74.3424990 100.7969997  54.0089992  75.1784990 102.0509997
  53.6562872  74.7088248 101.4090964  38.6909992  58.4444990 107.8039997
  38.0259992  58.1984990 108.4469997  38.2479992  59.0664990 107.2269997
  38.5401168  58.4949225 107.8139830  43.8369992  72.5934990 108.2069997
  43.4119992  73.4034990 107.9239997  44.7409992  72.6794990 107.9049997
  43.9011002  72.7158728 108.1274798  55.4109992  57.8684990 109.4899997
  54.5979992  58.1934990 109.1019997  55.6439992  57.1074990 108.9569997
  55.3312566  57.8101570 109.3649196  41.2389992  75.8504990 108.2539997
  40.5179992  76.2904990 107.8029997  40.8729992  75.5994990 109.1029997
  41.0909785  75.8767691 108.3069849  43.7059992  75.4504990 107.2839997
  42.8409992  75.5224990 107.6879997  43.6509992  75.9974990 106.4999997
  43.5802066  75.5342678 107.2333371  48.4169992  75.3384990 106.4599997
  47.9599992  75.8674990 105.8059997  48.5789992  75.9414990 107.1849997
  48.3763919  75.4923990 106.4685740   8.9269992  23.3194990  83.5599997
   8.0159992  23.3764990  83.8489997   9.4319992  23.2594990  84.3709997
   8.8706873  23.3191838  83.7091190  50.7439992  74.2164990 107.4049997
  49.8399992  74.3814990 107.1389997  51.1729992  75.0694990 107.3389997
  50.6782017  74.3544184 107.3596495  53.3479992  75.7864990 107.6999997
  53.1669992  76.7024990 107.4889997  53.5249992  75.3754990 106.8529997
  53.3471377  75.8563365 107.5567178  40.6539992  74.4734990 105.1649997
  40.6349992  74.0474990 106.0219997  41.4579992  74.1544990 104.7559997
  40.7601393  74.3720297 105.2270155  42.7949992  73.1834990 103.8199997
  42.5759992  72.2664990 103.9889997  43.6189992  73.3234990 104.2859997
  42.8764637  73.0769586 103.9061414  45.3319992  73.6534990 104.6679997
  45.5449992  72.7654990 104.3809997  45.3969992  73.6184990 105.6229997
  45.3699075  73.5273318 104.7577355  48.8409992  59.3174990 103.8129997
  48.1659992  58.6874990 104.0679997  49.4049992  58.8334990 103.2099997
  48.8249558  59.1659283 103.7663451  53.9829992  57.4244990 103.9249997
  54.5869992  57.9724990 103.4239997  53.1139992  57.7434990 103.6849997
  53.9481126  57.5427070 103.8239180  55.7099992  58.5634990 102.2589997
  56.3219992  58.0494990 101.7319997  56.0929992  59.4404990 102.2819997
  55.8453867  58.6117613 102.1900888  41.1669992  57.9514990 101.6349997
  40.3899992  57.7164990 101.1269997  41.6979992  57.1544990 101.6439997
  41.1324443  57.8116721 101.5667200  40.0039992  57.7494990  97.4379997
  40.4429992  58.3604990  96.8469997  39.3699992  58.2874990  97.9119997
  39.9784103  57.9059233  97.4211376   3.7549992  24.9484990  82.3869997
   2.8659992  25.0474990  82.0469997   4.0509992  24.1064990  82.0409997
   3.6734001  24.8482473  82.2937318  45.7469992  57.8774990 101.4479997
  46.6209992  58.2664990 101.4179997  45.6109992  57.6624990 102.3709997
  45.8483125  57.9017120 101.5686523  51.3029992  57.9074990 103.0969997
  51.3799992  58.0034990 102.1479997  51.0279992  57.0004990 103.2259997
  51.2763407  57.7979188 102.9843532  52.6569992  57.9334990  98.7899997
  51.9539992  58.5484990  98.5799997  52.2119992  57.0964990  98.9209997
  52.5006550  57.9044679  98.7789819  39.9049992  73.6974990  98.3359997
  39.2199992  73.6594990  97.6679997  39.9079992  74.6094990  98.6239997
  39.8117358  73.8156744  98.2836145  41.8649992  59.6654990  95.8809997
  42.3559992  59.0354990  95.3529997  42.4879992  59.9614990  96.5439997
  42.0165459  59.6192419  95.8983667  46.8909992  59.9584990  98.3379997
  47.0689992  59.3114990  99.0209997  46.8369992  60.7924990  98.8049997
  46.9080678  59.9826615  98.4946283  48.7689992  74.9064990  96.7329997
  49.6349992  75.2734990  96.5549997  48.5219992  74.4674990  95.9199997
  48.8542041  74.8973648  96.5985958  55.4779992  74.4694990  99.4129997
  55.2839992  73.7214990  98.8479997  55.4389992  75.2274990  98.8289997
  55.4461907  74.4695770  99.2568077  41.7229992  74.6174990  95.3609997
  41.4549992  74.9034990  96.2339997  42.4939992  74.0714990  95.5129997
  41.7905600  74.5828341  95.5011482  69.1019992  67.1074990 101.5929997
  69.1909992  68.0514990 101.4609997  68.4629992  66.8324990 100.9349997
  69.0278319  67.1994984 101.4860276   7.4079992  24.9484990  80.0429997
   8.3399992  25.0774990  80.2209997   7.1929992  25.6174990  79.3939997
   7.5064245  25.0566452  79.9795602  68.0349992  66.3624990 105.0119997
  67.9959992  65.7164990 105.7169997  67.7119992  65.8954990 104.2409997
  67.9860199  66.2110089 105.0042865  60.4029992  65.9764990 106.6049997
  60.4439992  65.3514990 107.3289997  61.1059992  66.6004990 106.7869997
  60.5036054  65.9753262 106.7286311  71.7409992  69.3014990 103.3139997
  71.2999992  68.5814990 103.7639997  71.7279992  70.0224990 103.9439997
  71.6788398  69.3003187 103.4607734  61.3269992  70.4264990 105.1399997
  60.9569992  69.6244990 104.7709997  62.2679992  70.2584990 105.1869997
  61.4035630  70.2938680 105.0957873  57.9369992  64.0864990 100.5329997
  57.4889992  64.9324990 100.5149997  57.3759992  63.5074990 100.0179997
  57.7998546  64.1239004 100.4608874  58.6469992  66.2484990 102.6589997
  58.8609992  65.4784990 103.1859997  59.3849992  66.3384990 102.0559997
  58.7760073  66.1553546 102.6495786  68.8519992  74.4054990 103.5259997
  69.4719992  73.7294990 103.2529997  68.6439992  74.1874990 104.4339997
  68.9087360  74.2834792 103.6114387  66.4239992  68.7944990 105.4179997
  66.7279992  68.1084990 104.8239997  67.1459992  68.9134990 106.0359997
  66.5631152  68.7167201 105.4202106  75.0869992  60.3964990 106.2789997
  75.1359992  61.0064990 107.0149997  75.5129992  60.8574990 105.5559997
  75.1512851  60.5423266 106.2820532  69.5649992  63.1884990 105.7459997
  69.7069992  62.2424990 105.7659997  69.4589992  63.3954990 104.8169997
  69.5701158  63.0869722 105.6232241  13.3319992  22.5544990  86.8239997
  12.6549992  22.6854990  87.4879997  12.8459992  22.3994990  86.0139997
  13.1737265  22.5514665  86.8053380  62.7199992  61.2904990 103.0179997
  62.7629992  62.1504990 102.5999997  62.2619992  60.7374990 102.3849997
  62.6639613  61.3335689 102.8751276  70.4419992  61.4214990 101.4189997
  71.0879992  61.0924990 102.0439997  70.9519992  61.9384990 100.7959997
  70.5994392  61.4463710 101.4203248  59.3399992  63.6874990 103.7799997
  59.9939992  63.1374990 104.2119997  59.3639992  63.4134990 102.8639997
  59.4327022  63.5752005 103.7151698  64.4959992  65.2374990 102.9959997
  65.1119992  64.7104990 103.5049997  63.9099992  64.5974990 102.5919997
  64.5010652  65.0788919 103.0110277  75.4789992  61.8744990 108.5149997
  74.7899992  62.5324990 108.4199997  75.4939992  61.6764990 109.4519997
  75.3867756  61.9377614 108.6285795  61.5299992  60.2084990 107.0919997
  61.3109992  60.7384990 106.3259997  60.8619992  60.4344990 107.7399997
  61.4097271  60.3116508 107.0746206  68.8989992  69.7084990 100.6359997
  68.6029992  69.3854990  99.7849997  68.5749992  70.6084990 100.6779997
  68.8146501  69.7859058 100.5250893  64.0989992  67.8834990 107.3799997
  63.3589992  68.4824990 107.4829997  64.8129992  68.4374990 107.0639997
  64.0943288  68.0402368 107.3513787  72.2059992  60.7124990 103.3999997
  71.9909992  59.9464990 103.9319997  72.8619992  61.1844990 103.9129997
  72.2652451  60.6714472 103.5421699  61.1239992  62.1004990 105.0449997
  61.7369992  62.7334990 105.4179997  61.6359992  61.6284990 104.3879997
  61.2771680  62.1234006 105.0072830   6.0819992  26.1424990  77.6099997
   5.5399992  25.7634990  76.9189997   6.9159992  26.3374990  77.1809997
   6.1204283  26.1169383  77.4574298  62.5059992  69.8484990 108.1669997
  62.5009992  70.7274990 107.7889997  61.6529992  69.7644990 108.5919997
  62.3899199  69.9575901 108.1726942  58.6279992  69.5194990  98.9489997
  58.3559992  69.7484990  98.0599997  58.6729992  70.3564990  99.4089997
  58.5968709  69.6641069  98.8896089  72.2529992  71.1404990 105.6619997
  71.3109992  71.1994990 105.8229997  72.5289992  72.0464990 105.5249997
  72.1615771  71.2710270 105.6654827  72.5529992  59.4274990 107.0789997
  71.8169992  60.0374990 107.0409997  73.2369992  59.8424990 106.5529997
  72.5445885  59.5671924 107.0026931  65.5559992  57.5134990 104.5449997
  65.4389992  56.5654990 104.4909997  64.7009992  57.8464990 104.8179997
  65.4243691  57.4285842 104.5745072  70.5049992  72.9214990 102.2869997
  70.9299992  72.2144990 101.8019997  70.8219992  73.7234990 101.8699997
  70.6060266  72.9330201 102.1642461  71.6639992  70.8224990 100.7959997
  71.4069992  70.1324990 100.1839997  71.7349992  70.3794990 101.6409997
  71.6384322  70.6681568 100.8265372  73.3499992  69.3894990 109.2729997
  73.4899992  68.7974990 108.5339997  73.5179992  70.2624990 108.9169997
  73.3918734  69.4264041 109.1236937  67.8229992  66.3514990  99.0449997
  67.1109992  66.8864990  98.6939997  68.5139992  66.4064990  98.3849997
  67.8188696  66.4322591  98.9076372  67.8769992  64.8084990  96.0839997
  68.5779992  64.8314990  96.7349997  68.1789992  64.1804990  95.4279997
  68.0138282  64.7267350  96.0844478  16.6189992  38.2254990  93.1009997
  16.8189992  38.6494990  92.2659997  17.2749992  38.5694990  93.7079997
  16.7349916  38.3299784  93.0687890  75.1919992  65.7294990 107.3389997
  74.5399992  66.4234990 107.4279997  75.6569992  65.9394990 106.5289997
  75.1655357  65.8529544 107.2417056  71.2289992  66.5604990  99.9969997
  70.4969992  66.7894990 100.5699997  71.6759992  65.8474990 100.4519997
  71.1892753  66.4953984 100.1369698  71.1259992  64.7354990 109.0649997
  71.2059992  65.4984990 109.6369997  70.5249992  65.0144990 108.3739997
  71.0557115  64.8777707 109.0499631  62.8739992  67.1914990 101.8799997
  62.5439992  66.8204990 101.0609997  63.4619992  66.5204990 102.2259997
  62.9084056  67.0501257 101.8149035  64.2409992  70.6194990 104.5609997
  64.1459992  70.0404990 103.8039997  64.9699992  70.2484990 105.0569997
  64.3266161  70.4900902 104.5245192  63.2409992  65.9594990 105.5129997
  63.8059992  66.0814990 104.7499997  63.5589992  66.5974990 106.1519997
  63.3613430  66.0624448 105.4949094  69.5499992  71.4634990 106.2469997
  69.3089992  72.1254990 106.8949997  69.3519992  70.6284990 106.6719997
  69.4902662  71.4412704 106.3931008  70.0999992  65.7234990  97.6819997
  70.6789992  65.8734990  98.4289997  70.5139992  66.1934990  96.9589997
  70.2353122  65.8076288  97.6865024  61.0409992  66.5574990 109.4589997
  61.1109992  67.2084990 110.1569997  60.1499992  66.6604990 109.1239997
  60.9301802  66.6604769 109.5092231  67.8259992  72.4594990 101.1179997
  68.2999992  72.7554990 101.8949997  67.2629992  73.1984990 100.8839997
  67.8148460  72.5998336 101.1927626   4.2169992  30.6994990  92.7089997
   4.9489992  30.9544990  93.2699997   3.4369992  30.9044990  93.2239997
   4.2117684  30.7621457  92.8554774  73.7979992  57.4734990  97.4949997
  72.8979992  57.6114990  97.7899997  74.0499992  58.3044990  97.0929997
  73.7087355  57.6048200  97.4810540  61.8639992  66.2604990  99.4689997
  61.5719992  67.0284990  98.9779997  61.1899992  65.6014990  99.3059997
  61.7328843  66.2764537  99.3797695  74.9879992  71.8394990  95.8719997
  75.0609992  72.7784990  96.0419997  75.8929992  71.5344990  95.8149997
  75.1204168  71.9268531  95.8875736  57.9569992  68.6234990 108.2839997
  57.4559992  68.5954990 107.4689997  57.9629992  67.7184990 108.5939997
  57.8891690  68.4972234 108.2142770  57.7079992  71.4044990 105.1679997
  58.6539992  71.2594990 105.1489997  57.5949992  72.1884990 105.7049997
  57.8223578  71.4906708 105.2380300  66.8839992  71.6444990 109.7259997
  66.9709992  72.4704990 110.2009997  66.0199992  71.3144990 109.9749997
  66.7791944  71.7129871 109.8246558  67.2979992  75.4164990  99.5319997
  67.2229992  75.2954990  98.5859997  67.3309992  76.3654990  99.6509997
  67.2921862  75.5282492  99.4184840  60.9519992  74.2054990 101.3129997
  61.1039992  73.8574990 102.1919997  60.1009992  73.8484990 101.0579997
  60.8577899  74.1096749 101.3987322  70.3999992  74.5704990  96.5349997
  70.7749992  73.8264990  96.0639997  70.4039992  74.3004990  97.4529997
  70.4518969  74.4320920  96.5946475  70.0689992  74.4964990  99.2839997
  69.1339992  74.5964990  99.4629997  70.3489992  73.7864990  99.8619997
  69.9789270  74.4142300  99.3865984  10.2469992  26.1064990  85.4469997
  10.8109992  25.5604990  84.8999997  10.0989992  25.5854990  86.2359997
  10.3043037  25.9611798  85.4787212  60.2059992  69.9474990 109.3269997
  60.4219992  69.5854990 110.1869997  59.3509992  69.5724990 109.1169997
  60.1199349  69.8472914 109.4162134  62.8249992  58.4174990 105.3229997
  61.9629992  58.3304990 104.9149997  62.8029992  59.2734990 105.7499997
  62.7040953  58.5213558 105.3249262  67.4879992  58.1394990 108.6969997
  67.9079992  57.7244990 109.4499997  66.5549992  57.9604990 108.8139997
  67.4193736  58.0584921 108.8158950  70.8139992  61.8944990 109.5509997
  70.2999992  61.7694990 110.3479997  70.6589992  62.8074990 109.3059997
  70.7226643  62.0007068 109.6270624  71.5769992  66.7554990  95.3119997
  71.6189992  66.5334990  94.3819997  72.4259992  67.1544990  95.5019997
  71.6975253  66.7790510  95.2103804  67.1499992  60.6314990  95.9819997
  66.8959992  60.6504990  96.9049997  66.8929992  59.7604990  95.6809997
  67.0805133  60.5163121  96.0675065  62.9159992  63.3824990 106.4179997
  62.2739992  63.3424990 107.1269997  62.9529992  64.3094990 106.1799997
  62.8331659  63.5022540 106.4828463  62.9129992  63.6034990 101.3299997
  62.0199992  63.2634990 101.2709997  63.3639992  63.2264990 100.5739997
  62.8517185  63.5060220 101.2197698  68.4489992  64.0194990 100.1469997
  68.0399992  64.8344990  99.8549997  69.1689992  63.8794990  99.5319997
  68.4903946  64.1119963 100.0239616  69.4529992  63.4654990 102.9609997
  69.2579992  64.0714990 102.2459997  69.6349992  62.6324990 102.5259997
  69.4509272  63.4357955 102.8044075   5.2489992  22.2434990  81.8649997
   4.9309992  21.3404990  81.8299997   6.0299992  22.2454990  81.3129997
   5.3111560  22.1201148  81.7854975  60.6659992  63.7034990 108.2849997
  60.6279992  64.1034990 109.1529997  60.1749992  62.8864990 108.3749997
  60.5944246  63.6478842 108.4161171  64.0319992  61.0774990  95.0829997
  63.6009992  60.6324990  95.8129997  63.3139992  61.4484990  94.5709997
  63.8759363  61.0667979  95.1136194  57.2739992  60.8194990 102.1349997
  57.9049992  60.7904990 102.8549997  57.7239992  60.3944990 101.4049997
  57.4210905  60.7580839 102.1347479  58.5479992  61.5654990  97.5589997
  59.0229992  62.1564990  96.9739997  57.8309992  62.0954990  97.9059997
  58.5160406  61.7181011  97.5258495  68.7169992  65.1034990 107.6319997
  69.0409992  64.4724990 106.9889997  68.2769992  64.5694990 108.2929997
  68.7018707  64.9448261 107.6333195  65.4949992  61.0314990 102.4159997
  64.5839992  61.0884990 102.7049997  65.9999992  60.9714990 103.2269997
  65.4386873  61.0311838 102.5651190  60.3229992  62.6604990 101.2429997
  59.4339992  62.7594990 100.9029997  60.6189992  61.8184990 100.8969997
  60.2414001  62.5602473 101.1497318  63.9759992  62.6604990  98.8989997
  64.9079992  62.7894990  99.0769997  63.7609992  63.3294990  98.2499997
  64.0744245  62.7686452  98.8355602  69.8999992  60.2664990 105.6799997
  69.2229992  60.3974990 106.3439997  69.4139992  60.1114990 104.8699997
  69.7417265  60.2634665 105.6613380  62.6499992  63.8544990  96.4659997
  62.1079992  63.4754990  95.7749997  63.4839992  64.0494990  96.0369997
  62.6884283  63.8289383  96.3134298   8.8729992  24.4954990  87.8609997
   8.0379992  24.9494990  87.9709997   9.3969992  24.7714990  88.6129997
   8.8295070  24.5949677  87.9777134  66.8149992  63.8184990 104.3029997
  67.3789992  63.2724990 103.7559997  66.6669992  63.2974990 105.0919997
  66.8723037  63.6731798 104.3347212  61.8169992  59.9554990 100.7209997
  61.4989992  59.0524990 100.6859997  62.5979992  59.9574990 100.1689997
  61.8791560  59.8321148 100.6414975  65.4409992  62.2074990 106.7169997
  64.6059992  62.6614990 106.8269997  65.9649992  62.4834990 107.4689997
  65.3975070  62.3069677 106.8337134  65.9849992  68.4204990  98.4019997
  65.2399992  67.9124990  98.0789997  65.8509992  68.4694990  99.3479997
  65.8648633  68.3575714  98.4857563  73.1349992  67.5534990 107.1879997
  73.7769992  68.0094990 106.6449997  72.3049992  67.6664990 106.7259997
  73.1107352  67.6313223 107.0510234  69.8829992  61.2344990  96.6009997
  68.9439992  61.3454990  96.4499997  70.1799992  62.0904990  96.9069997
  69.7946371  61.3655327  96.6217362  67.5049992  68.6044990 109.6389997
  67.1589992  68.2224990 110.4449997  67.3049992  69.5374990 109.7099997
  67.4305400  68.6783489 109.7590401  70.6009992  63.1014990  98.2619997
  71.4929992  62.9634990  98.5809997  70.6579992  63.8924990  97.7249997
  70.7307380  63.1894777  98.2330981  61.1099992  67.7154990 104.1709997
  61.8549992  67.7124990 103.5699997  61.1879992  66.8914990 104.6529997
  61.2224158  67.6037928 104.1539136  68.1109992  69.8784990  97.4269997
  67.8159992  70.7054990  97.8089997  67.4079992  69.2594990  97.6229997
  67.9755855  69.9079458  97.5057634   9.4169992  30.7084990  79.5459997
   8.6719992  30.2004990  79.2229997   9.2829992  30.7574990  80.4919997
   9.2968633  30.6455714  79.6297563  58.1179992  66.1754990 109.4859997
  58.3409992  65.7574990 110.3179997  57.5159992  65.5634990 109.0639997
  58.0670802  66.0355216 109.5427561  69.7549992  71.0664990 109.5889997
  68.8539992  71.2494990 109.3209997  69.7889992  71.3254990 110.5099997
  69.6363021  71.1265505 109.6768206  75.4859992  63.3104990  97.9559997
  74.9319992  62.9144990  97.2839997  75.5869992  64.2214990  97.6789997
  75.4237084  63.3793565  97.8264381  73.7809992  72.0964990  98.4209997
  73.4089992  71.2714990  98.7309997  74.0589992  71.9134990  97.5239997
  73.7675997  71.9586160  98.3421551  70.9419992  66.9044990 105.4429997
  70.0139992  66.6734990 105.4159997  71.3929992  66.1274990 105.1129997
  70.8758165  66.7677785 105.3946772  63.4849992  71.2334990 101.5759997
  64.0119992  72.0064990 101.3749997  62.6049992  71.4574990 101.2739997
  63.4381793  71.3696652 101.5076304  59.2399992  66.0954990  96.1629997
  59.8559992  66.7224990  96.5419997  58.3779992  66.4114990  96.4339997
  59.2078195  66.2240810  96.2515369  64.9119992  68.8964990 101.1519997
  64.6709992  69.8214990 101.1939997  64.1719992  68.4374990 101.5479997
  64.7788934  68.9610881 101.2113191  65.4269992  73.0454990 107.4669997
  65.7899992  73.8994990 107.2339997  65.9589992  72.7534990 108.2079997
  65.5485141  73.1228907 107.5352079  63.5949992  73.9174990 100.6969997
  62.6459992  74.0234990 100.7489997  63.9469992  74.7384990 101.0419997
  63.5126214  74.0429361 100.7507317  16.5669992  29.8414990  88.3319997
  17.2089992  30.2974990  87.7889997  15.7369992  29.9544990  87.8699997
  16.5427352  29.9193223  88.1950234  68.9709992  69.1444990 107.1679997
  68.5449992  68.9164990 107.9939997  69.5519992  68.4054990 106.9849997
  68.9911587  69.0134084 107.2564111  71.1739992  70.0734990  96.2419997
  71.5269992  69.6934990  97.0459997  70.2249992  69.9794990  96.3279997
  71.0940985  70.0087330  96.3637738  71.6299992  73.6964990 109.6369997
  71.0279992  73.1404990 109.1419997  71.9109992  74.3634990 109.0109997
  71.5855757  73.7105755 109.4845657  75.6769992  74.5524990  96.4429997
  76.4209992  75.1384990  96.3029997  74.9829992  75.1214990  96.7759997
  75.6849809  74.7095830  96.4688572  59.7519992  60.9294990 109.0439997
  58.8589992  61.2674990 108.9769997  59.6529992  60.0734990 109.4619997
  59.6165241  60.8600941 109.0912982  72.0399992  68.7454990  98.4679997
  71.7629992  68.0174990  99.0239997  72.9669992  68.8644990  98.6739997
  72.1274181  68.6620068  98.5718972  59.4029992  72.7334990 107.4789997
  59.6199992  71.8014990 107.4479997  59.6499992  73.0084990 108.3629997
  59.4660543  72.6430877 107.5941412  65.2649992  71.1854990  94.6889997
  65.5039992  70.4364990  94.1409997  64.9959992  70.7974990  95.5209997
  65.2612804  71.0306524  94.7266352  64.2019992  70.7554990  97.1449997
  64.3489992  70.2354990  97.9349997  64.1989992  71.6624990  97.4509997
  64.2217300  70.8068975  97.2945877  60.6549992  68.0074990  97.6549997
  59.9689992  68.3604990  98.2219997  61.1779992  68.7704990  97.4089997
  60.6319033  68.1588757  97.6992644  13.3149992  23.5224990  77.7449997
  12.3759992  23.6334990  77.5939997  13.6119992  24.3784990  78.0509997
  13.2266371  23.6535327  77.7657362  68.4859992  60.6704990 107.9339997
  69.1849992  60.7444990 108.5839997  68.1059992  59.8054990 108.0889997
  68.5302095  60.5637402 108.0437982  69.2709992  60.3224990  99.0309997
  69.4909992  60.7934990  98.2279997  69.8289992  60.7164990  99.7019997
  69.3765851  60.4403272  99.0116134  66.9399992  72.4524990  97.8939997
  66.1229992  72.9494990  97.9469997  67.4689992  72.9284990  97.2539997
  66.8997898  72.5848123  97.8147274  66.4709992  62.0504990  99.8659997
  67.2829992  62.5544990  99.9119997  66.2259992  61.9054990 100.7799997
  66.5491091  62.0999366  99.9958552  67.0069992  63.0364990 109.0509997
  67.1259992  63.6104990 109.8079997  67.6619992  62.3484990 109.1659997
  67.1118684  63.0220205 109.1701656  67.3549992  59.1314990 100.8039997
  67.0079992  59.7484990 101.4489997  68.0129992  59.6324990 100.3229997
  67.3965290  59.2836384 100.8271635  64.2779992  73.4964990  97.8759997
  64.4389992  74.2964990  97.3749997  64.0809992  73.8034990  98.7609997
  64.2733919  73.6474140  97.9270988  63.0119992  60.1944990  97.4919997
  62.9289992  61.0824990  97.8379997  63.9019992  59.9294990  97.7229997
  63.1209751  60.2802482  97.5706066  73.2109992  60.9434990 109.8859997
  72.2949992  61.2054990 109.7979997  73.5469992  60.9404990 108.9889997
  73.1309789  60.9789637 109.7527829  71.8129992  64.6934990 103.9819997
  71.0159992  64.2784990 103.6529997  72.2579992  64.0034990 104.4729997
  71.7640317  64.5433197 104.0033556  10.9369992  30.8924990  90.7829997
  10.5909992  30.5104990  91.5889997  10.7369992  31.8254990  90.8539997
  10.8625400  30.9663489  90.9030401  61.2709992  70.6214990  96.5519997
  61.8629992  71.3214990  96.8279997  61.7299992  70.1884990  95.8329997
  61.4141172  70.6587371  96.4925163  59.5869992  63.2864990  95.6679997
  59.5419992  64.2254990  95.8469997  58.6989992  63.0504990  95.3979997
  59.4608472  63.3831946  95.6560282  72.8999992  73.9494990 105.6039997
  72.7439992  74.6284990 104.9469997  73.8319992  74.0214990 105.8069997
  73.0047328  74.0521586 105.5415529  60.3949992  58.0674990 104.3409997
  60.1659992  58.1264990 103.4139997  59.9519992  57.2764990 104.6479997
  60.3037387  57.9686413 104.2555223  59.3249992  72.0084990 100.5019997
  58.4929992  72.4804990 100.5289997  59.8709992  72.5184990  99.9029997
  59.2848710  72.1420317 100.4247570  67.3029992  73.0484990  94.8269997
  66.6589992  72.4174990  95.1489997  68.0649992  72.5174990  94.5949997
  67.3178260  72.8903035  94.8397298  71.9069992  72.8654990  95.0609997
  72.1899992  72.0704990  95.5139997  72.6469992  73.0984990  94.4999997
  72.0457295  72.7882349  95.0471469  62.8619992  68.7744990  94.9179997
  62.9259992  67.9804990  95.4489997  63.5149992  68.6564990  94.2289997
  62.9591168  68.6497748  94.8975119  68.2139992  69.8214990  94.6539997
  67.9459992  70.0024990  95.5549997  68.0079992  68.8964990  94.5229997
  68.1494251  69.7211528  94.7596809  70.9109992  68.3164990 109.6019997
  71.6559992  68.9054990 109.4819997  70.1529992  68.8984990 109.6649997
  70.9105185  68.4757000 109.5940940  14.0329992  25.3894990  79.4059997
  14.9249992  25.2514990  79.7249997  14.0899992  26.1804990  78.8689997
  14.1627380  25.4774777  79.3770981  64.0109992  66.7474990  97.2239997
  63.5519992  66.2634990  97.9099997  64.2659992  66.0784990  96.5879997
  63.9826178  66.5908511  97.2319785  63.2999992  64.6404990 109.5799997
  62.6819992  65.3144990 109.8609997  63.6439992  64.9614990 108.7469997
  63.2618181  64.7763233 109.5058266  65.0819992  64.9904990  95.4869997
  64.9019992  64.8354990  94.5589997  66.0319992  65.0984990  95.5309997
  65.1858016  64.9839264  95.3662123  74.4719992  67.3444990  94.9319997
  74.1989992  66.9204990  94.1189997  74.5119992  68.2764990  94.7149997
  74.4400201  67.4123523  94.7913548  64.0519992  60.3644990 108.1549997
  64.5879992  60.8164990 107.5029997  63.1999992  60.2564990 107.7329997
  64.0101648  60.4117883 108.0086395  65.6339992  65.8044990 108.3949997
  66.3849992  65.6484990 107.8219997  65.2949992  66.6564990 108.1189997
  65.6909052  65.8982745 108.2793469  64.8579992  57.8214990 108.5869997
  64.7599992  58.7674990 108.4809997  64.1149992  57.4484990 108.1109997
  64.7442363  57.9005987 108.5082029  64.9799992  75.6804990  96.4879997
  65.9129992  75.8384990  96.6319997  64.7149992  76.3564990  95.8629997
  65.0719846  75.7934567  96.4232930  58.5479992  70.3174990  95.9709997
  59.4619992  70.3964990  96.2439997  58.5549992  69.6304990  95.3039997
  58.6740769  70.2354735  95.9182366  57.1969992  75.7104990 101.0479997
  56.5499992  75.2484990 100.5149997  57.5519992  75.0384990 101.6309997
  57.1563861  75.5564707 101.0537939   4.5419992  30.0034990  85.3149997
   5.2869992  30.0004990  84.7139997   4.6199992  29.1794990  85.7969997
   4.6544158  29.8917928  85.2979136  58.0669992  73.7904990 102.8529997
  57.7329992  72.9104990 103.0249997  58.2889992  74.1364990 103.7169997
  58.0512677  73.7167366 102.9934252  75.6159992  74.6004990 105.8329997
  75.5939992  74.7854990 106.7719997  76.3059992  75.1684990 105.4919997
  75.7063439  74.7026898 105.9154774  75.1789992  74.1674990 108.7549997
  74.6919992  73.4314990 108.3839997  75.7279992  73.7734990 109.4329997
  75.1866101  74.0136267 108.7959034  74.9309992  68.2134990  98.9069997
  75.7809992  68.6344990  99.0349997  74.9359992  67.4734990  99.5149997
  75.0479745  68.1711347  99.0066479  75.3249992  66.2674990 100.7309997
  74.5989992  65.7874990 101.1289997  75.9059992  66.4724990 101.4629997
  75.3042504  66.2295592 100.8844199  75.0839992  69.0524990 105.6789997
  75.9179992  68.6744990 105.3979997  75.1959992  69.9954990 105.5599997
  75.2131917  69.1282954 105.6244844  73.5699992  71.9304990 107.9859997
  72.9229992  72.2554990 108.6109997  73.0529992  71.4894990 107.3109997
  73.4114068  71.9154726 107.9804918  75.5929992  66.1684990  97.1219997
  75.0719992  66.5244990  96.4029997  75.5599992  66.8434990  97.7999997
  75.5171525  66.3085273  97.1151408  73.9419992  63.4074990  95.6729997
  74.0389992  64.0744990  94.9929997  73.8019992  62.5924990  95.1909997
  73.9363428  63.3885667  95.5148311  73.1119992  64.7884990 101.2939997
  72.9619992  63.8434990 101.2739997  72.7579992  65.0694990 102.1379997
  73.0436351  64.6971656 101.4053202  11.5429992  32.1664990  78.5709997
  11.2479992  32.9934990  78.9529997  10.8399992  31.5474990  78.7669997
  11.4075855  32.1959458  78.6497634  58.1469992  66.8664990 105.3039997
  58.3309992  66.7844990 104.3689997  58.9959992  66.7424990 105.7279997
  58.2870259  66.8384915 105.2331771  73.1899992  60.8154990  94.7899997
  73.7999992  60.4444990  95.4269997  72.3529992  60.3944990  94.9859997
  73.1603704  60.7077942  94.9037077  72.8219992  62.3704990  99.7559997
  73.1019992  61.4634990  99.8809997  73.5809992  62.8044990  99.3669997
  72.9629471  62.3050654  99.7205052  73.4339992  62.9524990 105.1919997
  74.3669992  63.1644990 105.1579997  73.1989992  63.0534990 106.1149997
  73.5298357  62.9951303 105.3120232  73.4629992  63.6894990 107.9679997
  72.6199992  63.9574990 108.3339997  73.9059992  64.5114990 107.7569997
  73.4074358  63.8373294 107.9895999  73.4359992  59.6334990  99.8049997
  73.6179992  59.1844990 100.6299997  72.8359992  59.0494990  99.3409997
  73.3798187  59.4930563  99.8552721  58.9659992  60.4494990 104.3359997
  59.4109992  59.6574990 104.6379997  59.4319992  61.1654990 104.7669997
  59.0899059  60.4379485 104.4356061  57.2699992  63.4484990 105.4049997
  57.7619992  63.2274990 104.6149997  57.6319992  64.2884990 105.6859997
  57.3863428  63.5318220 105.3347918  75.3019992  59.7014990  96.3329997
  75.7149992  58.9804990  95.8569997  75.9839992  60.3704990  96.3909997
  75.4505712  59.6934304  96.2758247  57.5829992  59.7064990  99.4599997
  56.6579992  59.9144990  99.3299997  58.0369992  60.1904990  98.7699997
  57.5177401  59.8003895  99.3489433   1.5499992  28.4634990  90.6299997
   1.7729992  28.0454990  91.4619997   0.9479992  27.8514990  90.2079997
   1.4990802  28.3235216  90.6867561  72.3539992  74.6904990 101.4049997
  73.0059992  74.3424990 100.7969997  72.8649992  75.1784990 102.0509997
  72.5122872  74.7088248 101.4090964  57.5469992  58.4444990 107.8039997
  56.8819992  58.1984990 108.4469997  57.1039992  59.0664990 107.2269997
  57.3961168  58.4949225 107.8139830  62.6929992  72.5934990 108.2069997
  62.2679992  73.4034990 107.9239997  63.5969992  72.6794990 107.9049997
  62.7571002  72.7158728 108.1274798  74.2669992  57.8684990 109.4899997
  73.4539992  58.1934990 109.1019997  74.4999992  57.1074990 108.9569997
  74.1872566  57.8101570 109.3649196  60.0949992  75.8504990 108.2539997
  59.3739992  76.2904990 107.8029997  59.7289992  75.5994990 109.1029997
  59.9469785  75.8767691 108.3069849  62.5619992  75.4504990 107.2839997
  61.6969992  75.5224990 107.6879997  62.5069992  75.9974990 106.4999997
  62.4362066  75.5342678 107.2333371  67.2729992  75.3384990 106.4599997
  66.8159992  75.8674990 105.8059997  67.4349992  75.9414990 107.1849997
  67.2323919  75.4923990 106.4685740  69.5999992  74.2164990 107.4049997
  68.6959992  74.3814990 107.1389997  70.0289992  75.0694990 107.3389997
  69.5342017  74.3544184 107.3596495  72.2039992  75.7864990 107.6999997
  72.0229992  76.7024990 107.4889997  72.3809992  75.3754990 106.8529997
  72.2031377  75.8563365 107.5567178  59.5099992  74.4734990 105.1649997
  59.4909992  74.0474990 106.0219997  60.3139992  74.1544990 104.7559997
  59.6161393  74.3720297 105.2270155   8.5669992  27.9804990  92.8429997
   8.2709992  27.8154990  91.9479997   9.4979992  27.7604990  92.8329997
   8.6523909  27.9281274  92.7190110  61.6509992  73.1834990 103.8199997
  61.4319992  72.2664990 103.9889997  62.4749992  73.3234990 104.2859997
  61.7324637  73.0769586 103.9061414  64.1879992  73.6534990 104.6679997
  64.4009992  72.7654990 104.3809997  64.2529992  73.6184990 105.6229997
  64.2259075  73.5273318 104.7577355  67.6969992  59.3174990 103.8129997
  67.0219992  58.6874990 104.0679997  68.2609992  58.8334990 103.2099997
  67.6809558  59.1659283 103.7663451  72.8389992  57.4244990 103.9249997
  73.4429992  57.9724990 103.4239997  71.9699992  57.7434990 103.6849997
  72.8041126  57.5427070 103.8239180  74.5659992  58.5634990 102.2589997
  75.1779992  58.0494990 101.7319997  74.9489992  59.4404990 102.2819997
  74.7013867  58.6117613 102.1900888  60.0229992  57.9514990 101.6349997
  59.2459992  57.7164990 101.1269997  60.5539992  57.1544990 101.6439997
  59.9884443  57.8116721 101.5667200  58.8599992  57.7494990  97.4379997
  59.2989992  58.3604990  96.8469997  58.2259992  58.2874990  97.9119997
  58.8344103  57.9059233  97.4211376  64.6029992  57.8774990 101.4479997
  65.4769992  58.2664990 101.4179997  64.4669992  57.6624990 102.3709997
  64.7043125  57.9017120 101.5686523  70.1589992  57.9074990 103.0969997
  70.2359992  58.0034990 102.1479997  69.8839992  57.0004990 103.2259997
  70.1323407  57.7979188 102.9843532  71.5129992  57.9334990  98.7899997
  70.8099992  58.5484990  98.5799997  71.0679992  57.0964990  98.9209997
  71.3566550  57.9044679  98.7789819  13.1869992  33.3544990  90.7329997
  12.2859992  33.5374990  90.4649997  13.2209992  33.6134990  91.6539997
  13.0683021  33.4145505  90.8208206  58.7609992  73.6974990  98.3359997
  58.0759992  73.6594990  97.6679997  58.7639992  74.6094990  98.6239997
  58.6677358  73.8156744  98.2836145  60.7209992  59.6654990  95.8809997
  61.2119992  59.0354990  95.3529997  61.3439992  59.9614990  96.5439997
  60.8725459  59.6192419  95.8983667  65.7469992  59.9584990  98.3379997
  65.9249992  59.3114990  99.0209997  65.6929992  60.7924990  98.8049997
  65.7640678  59.9826615  98.4946283  67.6249992  74.9064990  96.7329997
  68.4909992  75.2734990  96.5549997  67.3779992  74.4674990  95.9199997
  67.7102041  74.8973648  96.5985958  74.3339992  74.4694990  99.4129997
  74.1399992  73.7214990  98.8479997  74.2949992  75.2274990  98.8289997
  74.3021907  74.4695770  99.2568077  60.5789992  74.6174990  95.3609997
  60.3109992  74.9034990  96.2339997  61.3499992  74.0714990  95.5129997
  60.6465600  74.5828341  95.5011482  87.9579992  67.1074990 101.5929997
  88.0469992  68.0514990 101.4609997  87.3189992  66.8324990 100.9349997
  87.8838319  67.1994984 101.4860276  86.8909992  66.3624990 105.0119997
  86.8519992  65.7164990 105.7169997  86.5679992  65.8954990 104.2409997
  86.8420199  66.2110089 105.0042865  79.2589992  65.9764990 106.6049997
  79.2999992  65.3514990 107.3289997  79.9619992  66.6004990 106.7869997
  79.3596054  65.9753262 106.7286311  90.5969992  69.3014990 103.3139997
  90.1559992  68.5814990 103.7639997  90.5839992  70.0224990 103.9439997
  90.5348398  69.3003187 103.4607734  18.9179992  25.5984990  79.0999997
  18.3639992  25.2024990  78.4279997  19.0189992  26.5094990  78.8229997
  18.8557084  25.6673565  78.9704381  80.1829992  70.4264990 105.1399997
  79.8129992  69.6244990 104.7709997  81.1239992  70.2584990 105.1869997
  80.2595630  70.2938680 105.0957873  76.7929992  64.0864990 100.5329997
  76.3449992  64.9324990 100.5149997  76.2319992  63.5074990 100.0179997
  76.6558546  64.1239004 100.4608874  77.5029992  66.2484990 102.6589997
  77.7169992  65.4784990 103.1859997  78.2409992  66.3384990 102.0559997
  77.6320073  66.1553546 102.6495786  87.7079992  74.4054990 103.5259997
  88.3279992  73.7294990 103.2529997  87.4999992  74.1874990 104.4339997
  87.7647360  74.2834792 103.6114387  85.2799992  68.7944990 105.4179997
  85.5839992  68.1084990 104.8239997  86.0019992  68.9134990 106.0359997
  85.4191152  68.7167201 105.4202106  93.9429992  60.3964990 106.2789997
  93.9919992  61.0064990 107.0149997  94.3689992  60.8574990 105.5559997
  94.0072851  60.5423266 106.2820532  88.4209992  63.1884990 105.7459997
  88.5629992  62.2424990 105.7659997  88.3149992  63.3954990 104.8169997
  88.4261158  63.0869722 105.6232241  81.5759992  61.2904990 103.0179997
  81.6189992  62.1504990 102.5999997  81.1179992  60.7374990 102.3849997
  81.5199613  61.3335689 102.8751276  89.2979992  61.4214990 101.4189997
  89.9439992  61.0924990 102.0439997  89.8079992  61.9384990 100.7959997
  89.4554392  61.4463710 101.4203248  78.1959992  63.6874990 103.7799997
  78.8499992  63.1374990 104.2119997  78.2199992  63.4134990 102.8639997
  78.2887022  63.5752005 103.7151698  18.8809992  31.3994990  91.9369997
  18.0299992  31.6374990  91.5699997  19.4719992  31.3824990  91.1839997
  18.8442468  31.4298251  91.7848902  83.3519992  65.2374990 102.9959997
  83.9679992  64.7104990 103.5049997  82.7659992  64.5974990 102.5919997
  83.3570652  65.0788919 103.0110277  94.3349992  61.8744990 108.5149997
  93.6459992  62.5324990 108.4199997  94.3499992  61.6764990 109.4519997
  94.2427756  61.9377614 108.6285795  80.3859992  60.2084990 107.0919997
  80.1669992  60.7384990 106.3259997  79.7179992  60.4344990 107.7399997
  80.2657271  60.3116508 107.0746206  87.7549992  69.7084990 100.6359997
  87.4589992  69.3854990  99.7849997  87.4309992  70.6084990 100.6779997
  87.6706501  69.7859058 100.5250893  82.9549992  67.8834990 107.3799997
  82.2149992  68.4824990 107.4829997  83.6689992  68.4374990 107.0639997
  82.9503288  68.0402368 107.3513787  91.0619992  60.7124990 103.3999997
  90.8469992  59.9464990 103.9319997  91.7179992  61.1844990 103.9129997
  91.1212451  60.6714472 103.5421699  79.9799992  62.1004990 105.0449997
  80.5929992  62.7334990 105.4179997  80.4919992  61.6284990 104.3879997
  80.1331680  62.1234006 105.0072830  81.3619992  69.8484990 108.1669997
  81.3569992  70.7274990 107.7889997  80.5089992  69.7644990 108.5919997
  81.2459199  69.9575901 108.1726942  77.4839992  69.5194990  98.9489997
  77.2119992  69.7484990  98.0599997  77.5289992  70.3564990  99.4089997
  77.4528709  69.6641069  98.8896089  91.1089992  71.1404990 105.6619997
  90.1669992  71.1994990 105.8229997  91.3849992  72.0464990 105.5249997
  91.0175771  71.2710270 105.6654827  17.2129992  34.3844990  79.5649997
  16.8409992  33.5594990  79.8749997  17.4909992  34.2014990  78.6679997
  17.1995997  34.2466160  79.4861551  91.4089992  59.4274990 107.0789997
  90.6729992  60.0374990 107.0409997  92.0929992  59.8424990 106.5529997
  91.4005885  59.5671924 107.0026931  84.4119992  57.5134990 104.5449997
  84.2949992  56.5654990 104.4909997  83.5569992  57.8464990 104.8179997
  84.2803691  57.4285842 104.5745072  89.3609992  72.9214990 102.2869997
  89.7859992  72.2144990 101.8019997  89.6779992  73.7234990 101.8699997
  89.4620266  72.9330201 102.1642461  90.5199992  70.8224990 100.7959997
  90.2629992  70.1324990 100.1839997  90.5909992  70.3794990 101.6409997
  90.4944322  70.6681568 100.8265372  92.2059992  69.3894990 109.2729997
  92.3459992  68.7974990 108.5339997  92.3739992  70.2624990 108.9169997
  92.2478734  69.4264041 109.1236937  86.6789992  66.3514990  99.0449997
  85.9669992  66.8864990  98.6939997  87.3699992  66.4064990  98.3849997
  86.6748696  66.4322591  98.9076372  86.7329992  64.8084990  96.0839997
  87.4339992  64.8314990  96.7349997  87.0349992  64.1804990  95.4279997
  86.8698282  64.7267350  96.0844478  94.0479992  65.7294990 107.3389997
  93.3959992  66.4234990 107.4279997  94.5129992  65.9394990 106.5289997
  94.0215357  65.8529544 107.2417056  90.0849992  66.5604990  99.9969997
  89.3529992  66.7894990 100.5699997  90.5319992  65.8474990 100.4519997
  90.0452753  66.4953984 100.1369698  89.9819992  64.7354990 109.0649997
  90.0619992  65.4984990 109.6369997  89.3809992  65.0144990 108.3739997
  89.9117115  64.8777707 109.0499631  14.3739992  29.1924990  86.5869997
  13.4459992  28.9614990  86.5599997  14.8249992  28.4154990  86.2569997
  14.3078165  29.0557785  86.5386772  81.7299992  67.1914990 101.8799997
  81.3999992  66.8204990 101.0609997  82.3179992  66.5204990 102.2259997
  81.7644056  67.0501257 101.8149035  83.0969992  70.6194990 104.5609997
  83.0019992  70.0404990 103.8039997  83.8259992  70.2484990 105.0569997
  83.1826161  70.4900902 104.5245192  82.0969992  65.9594990 105.5129997
  82.6619992  66.0814990 104.7499997  82.4149992  66.5974990 106.1519997
  82.2173430  66.0624448 105.4949094  88.4059992  71.4634990 106.2469997
  88.1649992  72.1254990 106.8949997  88.2079992  70.6284990 106.6719997
  88.3462662  71.4412704 106.3931008  88.9559992  65.7234990  97.6819997
  89.5349992  65.8734990  98.4289997  89.3699992  66.1934990  96.9589997
  89.0913122  65.8076288  97.6865024  79.8969992  66.5574990 109.4589997
  79.9669992  67.2084990 110.1569997  79.0059992  66.6604990 109.1239997
  79.7861802  66.6604769 109.5092231  86.6819992  72.4594990 101.1179997
  87.1559992  72.7554990 101.8949997  86.1189992  73.1984990 100.8839997
  86.6708460  72.5998336 101.1927626  92.6539992  57.4734990  97.4949997
  91.7539992  57.6114990  97.7899997  92.9059992  58.3044990  97.0929997
  92.5647355  57.6048200  97.4810539  80.7199992  66.2604990  99.4689997
  80.4279992  67.0284990  98.9779997  80.0459992  65.6014990  99.3059997
  80.5888843  66.2764537  99.3797695  93.8439992  71.8394990  95.8719997
  93.9169992  72.7784990  96.0419997  94.7489992  71.5344990  95.8149997
  93.9764168  71.9268531  95.8875736   6.9169992  33.5214990  82.7199997
   7.4439992  34.2944990  82.5189997   6.0369992  33.7454990  82.4179997
   6.8701793  33.6576652  82.6516304  76.8129992  68.6234990 108.2839997
  76.3119992  68.5954990 107.4689997  76.8189992  67.7184990 108.5939997
  76.7451690  68.4972234 108.2142770  76.5639992  71.4044990 105.1679997
  77.5099992  71.2594990 105.1489997  76.4509992  72.1884990 105.7049997
  76.6783578  71.4906708 105.2380300  85.7399992  71.6444990 109.7259997
  85.8269992  72.4704990 110.2009997  84.8759992  71.3144990 109.9749997
  85.6351944  71.7129871 109.8246558  86.1539992  75.4164990  99.5319997
  86.0789992  75.2954990  98.5859997  86.1869992  76.3654990  99.6509997
  86.1481862  75.5282492  99.4184840  79.8079992  74.2054990 101.3129997
  79.9599992  73.8574990 102.1919997  78.9569992  73.8484990 101.0579997
  79.7137899  74.1096749 101.3987322  89.2559992  74.5704990  96.5349997
  89.6309992  73.8264990  96.0639997  89.2599992  74.3004990  97.4529997
  89.3078969  74.4320920  96.5946475  88.9249992  74.4964990  99.2839997
  87.9899992  74.5964990  99.4629997  89.2049992  73.7864990  99.8619997
  88.8349270  74.4142300  99.3865984  79.0619992  69.9474990 109.3269997
  79.2779992  69.5854990 110.1869997  78.2069992  69.5724990 109.1169997
  78.9759349  69.8472914 109.4162134  81.6809992  58.4174990 105.3229997
  80.8189992  58.3304990 104.9149997  81.6589992  59.2734990 105.7499997
  81.5600953  58.5213558 105.3249262  86.3439992  58.1394990 108.6969997
  86.7639992  57.7244990 109.4499997  85.4109992  57.9604990 108.8139997
  86.2753736  58.0584921 108.8158950   2.6719992  28.3834990  77.3069997
   3.2879992  29.0104990  77.6859997   1.8099992  28.6994990  77.5779997
   2.6398195  28.5120810  77.3955369  89.6699992  61.8944990 109.5509997
  89.1559992  61.7694990 110.3479997  89.5149992  62.8074990 109.3059997
  89.5786643  62.0007068 109.6270624  90.4329992  66.7554990  95.3119997
  90.4749992  66.5334990  94.3819997  91.2819992  67.1544990  95.5019997
  90.5535253  66.7790510  95.2103804  86.0059992  60.6314990  95.9819997
  85.7519992  60.6504990  96.9049997  85.7489992  59.7604990  95.6809997
  85.9365133  60.5163121  96.0675065  81.7719992  63.3824990 106.4179997
  81.1299992  63.3424990 107.1269997  81.8089992  64.3094990 106.1799997
  81.6891659  63.5022540 106.4828463  81.7689992  63.6034990 101.3299997
  80.8759992  63.2634990 101.2709997  82.2199992  63.2264990 100.5739997
  81.7077185  63.5060220 101.2197698  87.3049992  64.0194990 100.1469997
  86.8959992  64.8344990  99.8549997  88.0249992  63.8794990  99.5319997
  87.3463946  64.1119963 100.0239616  88.3089992  63.4654990 102.9609997
  88.1139992  64.0714990 102.2459997  88.4909992  62.6324990 102.5259997
  88.3069272  63.4357955 102.8044075  79.5219992  63.7034990 108.2849997
  79.4839992  64.1034990 109.1529997  79.0309992  62.8864990 108.3749997
  79.4504246  63.6478842 108.4161171  82.8879992  61.0774990  95.0829997
  82.4569992  60.6324990  95.8129997  82.1699992  61.4484990  94.5709997
  82.7319363  61.0667979  95.1136194  76.1299992  60.8194990 102.1349997
  76.7609992  60.7904990 102.8549997  76.5799992  60.3944990 101.4049997
  76.2770905  60.7580839 102.1347479   8.3439992  31.1844990  82.2959997
   8.1029992  32.1094990  82.3379997   7.6039992  30.7254990  82.6919997
   8.2108934  31.2490881  82.3553191  77.4039992  61.5654990  97.5589997
  77.8789992  62.1564990  96.9739997  76.6869992  62.0954990  97.9059997
  77.3720406  61.7181011  97.5258495  87.5729992  65.1034990 107.6319997
  87.8969992  64.4724990 106.9889997  87.1329992  64.5694990 108.2929997
  87.5578707  64.9448261 107.6333195  84.3509992  61.0314990 102.4159997
  83.4399992  61.0884990 102.7049997  84.8559992  60.9714990 103.2269997
  84.2946873  61.0311838 102.5651190  79.1789992  62.6604990 101.2429997
  78.2899992  62.7594990 100.9029997  79.4749992  61.8184990 100.8969997
  79.0974001  62.5602473 101.1497318  82.8319992  62.6604990  98.8989997
  83.7639992  62.7894990  99.0769997  82.6169992  63.3294990  98.2499997
  82.9304245  62.7686452  98.8355602  88.7559992  60.2664990 105.6799997
  88.0789992  60.3974990 106.3439997  88.2699992  60.1114990 104.8699997
  88.5977265  60.2634665 105.6613380  81.5059992  63.8544990  96.4659997
  80.9639992  63.4754990  95.7749997  82.3399992  64.0494990  96.0369997
  81.5444283  63.8289383  96.3134298  85.6709992  63.8184990 104.3029997
  86.2349992  63.2724990 103.7559997  85.5229992  63.2974990 105.0919997
  85.7283037  63.6731798 104.3347212  80.6729992  59.9554990 100.7209997
  80.3549992  59.0524990 100.6859997  81.4539992  59.9574990 100.1689997
  80.7351560  59.8321148 100.6414975  84.2969992  62.2074990 106.7169997
  83.4619992  62.6614990 106.8269997  84.8209992  62.4834990 107.4689997
  84.2535070  62.3069677 106.8337134   8.8589992  35.3334990  88.6109997
   9.2219992  36.1874990  88.3779997   9.3909992  35.0414990  89.3519997
   8.9805141  35.4108907  88.6792079  84.8409992  68.4204990  98.4019997
  84.0959992  67.9124990  98.0789997  84.7069992  68.4694990  99.3479997
  84.7208633  68.3575714  98.4857563  91.9909992  67.5534990 107.1879997
  92.6329992  68.0094990 106.6449997  91.1609992  67.6664990 106.7259997
  91.9667352  67.6313223 107.0510234  88.7389992  61.2344990  96.6009997
  87.7999992  61.3454990  96.4499997  89.0359992  62.0904990  96.9069997
  88.6506371  61.3655327  96.6217362  86.3609992  68.6044990 109.6389997
  86.0149992  68.2224990 110.4449997  86.1609992  69.5374990 109.7099997
  86.2865399  68.6783489 109.7590401  89.4569992  63.1014990  98.2619997
  90.3489992  62.9634990  98.5809997  89.5139992  63.8924990  97.7249997
  89.5867380  63.1894777  98.2330981  79.9659992  67.7154990 104.1709997
  80.7109992  67.7124990 103.5699997  80.0439992  66.8914990 104.6529997
  80.0784158  67.6037928 104.1539136  86.9669992  69.8784990  97.4269997
  86.6719992  70.7054990  97.8089997  86.2639992  69.2594990  97.6229997
  86.8315855  69.9079458  97.5057634  76.9739992  66.1754990 109.4859997
  77.1969992  65.7574990 110.3179997  76.3719992  65.5634990 109.0639997
  76.9230802  66.0355216 109.5427561  88.6109992  71.0664990 109.5889997
  87.7099992  71.2494990 109.3209997  88.6449992  71.3254990 110.5099997
  88.4923021  71.1265505 109.6768206  94.3419992  63.3104990  97.9559997
  93.7879992  62.9144990  97.2839997  94.4429992  64.2214990  97.6789997
  94.2797084  63.3793565  97.8264381   7.0269992  36.2054990  81.8409997
   6.0779992  36.3114990  81.8929997   7.3789992  37.0264990  82.1859997
   6.9446214  36.3309361  81.8947317  92.6369992  72.0964990  98.4209997
  92.2649992  71.2714990  98.7309997  92.9149992  71.9134990  97.5239997
  92.6235997  71.9586160  98.3421551  89.7979992  66.9044990 105.4429997
  88.8699992  66.6734990 105.4159997  90.2489992  66.1274990 105.1129997
  89.7318165  66.7677785 105.3946772  82.3409992  71.2334990 101.5759997
  82.8679992  72.0064990 101.3749997  81.4609992  71.4574990 101.2739997
  82.2941793  71.3696652 101.5076304  78.0959992  66.0954990  96.1629997
  78.7119992  66.7224990  96.5419997  77.2339992  66.4114990  96.4339997
  78.0638195  66.2240810  96.2515369  83.7679992  68.8964990 101.1519997
  83.5269992  69.8214990 101.1939997  83.0279992  68.4374990 101.5479997
  83.6348934  68.9610881 101.2113191  84.2829992  73.0454990 107.4669997
  84.6459992  73.8994990 107.2339997  84.8149992  72.7534990 108.2079997
  84.4045141  73.1228907 107.5352079  82.4509992  73.9174990 100.6969997
  81.5019992  74.0234990 100.7489997  82.8029992  74.7384990 101.0419997
  82.3686214  74.0429361 100.7507317  87.8269992  69.1444990 107.1679997
  87.4009992  68.9164990 107.9939997  88.4079992  68.4054990 106.9849997
  87.8471587  69.0134084 107.2564111  90.0299992  70.0734990  96.2419997
  90.3829992  69.6934990  97.0459997  89.0809992  69.9794990  96.3279997
  89.9500985  70.0087330  96.3637738  90.4859992  73.6964990 109.6369997
  89.8839992  73.1404990 109.1419997  90.7669992  74.3634990 109.0109997
  90.4415757  73.7105755 109.4845657  12.4029992  31.4324990  88.3119997
  11.9769992  31.2044990  89.1379997  12.9839992  30.6934990  88.1289997
  12.4231587  31.3014084  88.4004111  94.5329992  74.5524990  96.4429997
  95.2769992  75.1384990  96.3029997  93.8389992  75.1214990  96.7759997
  94.5409809  74.7095830  96.4688572  78.6079992  60.9294990 109.0439997
  77.7149992  61.2674990 108.9769997  78.5089992  60.0734990 109.4619997
  78.4725241  60.8600941 109.0912982  90.8959992  68.7454990  98.4679997
  90.6189992  68.0174990  99.0239997  91.8229992  68.8644990  98.6739997
  90.9834181  68.6620068  98.5718972  78.2589992  72.7334990 107.4789997
  78.4759992  71.8014990 107.4479997  78.5059992  73.0084990 108.3629997
  78.3220543  72.6430877 107.5941412  84.1209992  71.1854990  94.6889997
  84.3599992  70.4364990  94.1409997  83.8519992  70.7974990  95.5209997
  84.1172804  71.0306524  94.7266352  83.0579992  70.7554990  97.1449997
  83.2049992  70.2354990  97.9349997  83.0549992  71.6624990  97.4509997
  83.0777300  70.8068975  97.2945877  79.5109992  68.0074990  97.6549997
  78.8249992  68.3604990  98.2219997  80.0339992  68.7704990  97.4089997
  79.4879033  68.1588757  97.6992644  87.3419992  60.6704990 107.9339997
  88.0409992  60.7444990 108.5839997  86.9619992  59.8054990 108.0889997
  87.3862095  60.5637402 108.0437982  88.1269992  60.3224990  99.0309997
  88.3469992  60.7934990  98.2279997  88.6849992  60.7164990  99.7019997
  88.2325851  60.4403272  99.0116134  85.7959992  72.4524990  97.8939997
  84.9789992  72.9494990  97.9469997  86.3249992  72.9284990  97.2539997
  85.7557898  72.5848123  97.8147274  14.6059992  32.3614990  77.3859997
  14.9589992  31.9814990  78.1899997  13.6569992  32.2674990  77.4719997
  14.5260985  32.2967330  77.5077738  85.3269992  62.0504990  99.8659997
  86.1389992  62.5544990  99.9119997  85.0819992  61.9054990 100.7799997
  85.4051091  62.0999366  99.9958552  85.8629992  63.0364990 109.0509997
  85.9819992  63.6104990 109.8079997  86.5179992  62.3484990 109.1659997
  85.9678684  63.0220205 109.1701656  86.2109992  59.1314990 100.8039997
  85.8639992  59.7484990 101.4489997  86.8689992  59.6324990 100.3229997
  86.2525290  59.2836384 100.8271635  83.1339992  73.4964990  97.8759997
  83.2949992  74.2964990  97.3749997  82.9369992  73.8034990  98.7609997
  83.1293919  73.6474140  97.9270988  81.8679992  60.1944990  97.4919997
  81.7849992  61.0824990  97.8379997  82.7579992  59.9294990  97.7229997
  81.9769751  60.2802482  97.5706066  92.0669992  60.9434990 109.8859997
  91.1509992  61.2054990 109.7979997  92.4029992  60.9404990 108.9889997
  91.9869789  60.9789637 109.7527829  90.6689992  64.6934990 103.9819997
  89.8719992  64.2784990 103.6529997  91.1139992  64.0034990 104.4729997
  90.6200317  64.5433197 104.0033557  80.1269992  70.6214990  96.5519997
  80.7189992  71.3214990  96.8279997  80.5859992  70.1884990  95.8329997
  80.2701172  70.6587371  96.4925163  78.4429992  63.2864990  95.6679997
  78.3979992  64.2254990  95.8469997  77.5549992  63.0504990  95.3979997
  78.3168472  63.3831946  95.6560282  91.7559992  73.9494990 105.6039997
  91.5999992  74.6284990 104.9469997  92.6879992  74.0214990 105.8069997
  91.8607328  74.0521586 105.5415529  15.0619992  35.9844990  90.7809997
  14.4599992  35.4284990  90.2859997  15.3429992  36.6514990  90.1549997
  15.0175757  35.9985755  90.6285657  79.2509992  58.0674990 104.3409997
  79.0219992  58.1264990 103.4139997  78.8079992  57.2764990 104.6479997
  79.1597387  57.9686413 104.2555223  78.1809992  72.0084990 100.5019997
  77.3489992  72.4804990 100.5289997  78.7269992  72.5184990  99.9029997
  78.1408710  72.1420317 100.4247570  86.1589992  73.0484990  94.8269997
  85.5149992  72.4174990  95.1489997  86.9209992  72.5174990  94.5949997
  86.1738260  72.8903035  94.8397298  90.7629992  72.8654990  95.0609997
  91.0459992  72.0704990  95.5139997  91.5029992  73.0984990  94.4999997
  90.9017295  72.7882349  95.0471469  81.7179992  68.7744990  94.9179997
  81.7819992  67.9804990  95.4489997  82.3709992  68.6564990  94.2289997
  81.8151168  68.6497748  94.8975119  87.0699992  69.8214990  94.6539997
  86.8019992  70.0024990  95.5549997  86.8639992  68.8964990  94.5229997
  87.0054251  69.7211528  94.7596809  89.7669992  68.3164990 109.6019997
  90.5119992  68.9054990 109.4819997  89.0089992  68.8984990 109.6649997
  89.7665185  68.4757000 109.5940940  82.8669992  66.7474990  97.2239997
  82.4079992  66.2634990  97.9099997  83.1219992  66.0784990  96.5879997
  82.8386178  66.5908511  97.2319785  82.1559992  64.6404990 109.5799997
  81.5379992  65.3144990 109.8609997  82.4999992  64.9614990 108.7469997
  82.1178181  64.7763233 109.5058266  83.9379992  64.9904990  95.4869997
  83.7579992  64.8354990  94.5589997  84.8879992  65.0984990  95.5309997
  84.0418016  64.9839264  95.3662123  19.1089992  36.8404990  77.5869997
  19.8529992  37.4264990  77.4469997  18.4149992  37.4094990  77.9199997
  19.1169809  36.9975830  77.6128572  93.3279992  67.3444990  94.9319997
  93.0549992  66.9204990  94.1189997  93.3679992  68.2764990  94.7149997
  93.2960201  67.4123523  94.7913548  82.9079992  60.3644990 108.1549997
  83.4439992  60.8164990 107.5029997  82.0559992  60.2564990 107.7329997
  82.8661648  60.4117883 108.0086395  84.4899992  65.8044990 108.3949997
  85.2409992  65.6484990 107.8219997  84.1509992  66.6564990 108.1189997
  84.5469052  65.8982745 108.2793469  83.7139992  57.8214990 108.5869997
  83.6159992  58.7674990 108.4809997  82.9709992  57.4484990 108.1109997
  83.6002363  57.9005987 108.5082029  83.8359992  75.6804990  96.4879997
  84.7689992  75.8384990  96.6319997  83.5709992  76.3564990  95.8629997
  83.9279846  75.7934567  96.4232930  77.4039992  70.3174990  95.9709997
  78.3179992  70.3964990  96.2439997  77.4109992  69.6304990  95.3039997
  77.5300769  70.2354735  95.9182366  76.0529992  75.7104990 101.0479997
  75.4059992  75.2484990 100.5149997  76.4079992  75.0384990 101.6309997
  76.0123861  75.5564707 101.0537939  76.9229992  73.7904990 102.8529997
  76.5889992  72.9104990 103.0249997  77.1449992  74.1364990 103.7169997
  76.9072677  73.7167366 102.9934252  94.4719992  74.6004990 105.8329997
  94.4499992  74.7854990 106.7719997  95.1619992  75.1684990 105.4919997
  94.5623439  74.7026898 105.9154774  94.0349992  74.1674990 108.7549997
  93.5479992  73.4314990 108.3839997  94.5839992  73.7734990 109.4329997
  94.0426101  74.0136267 108.7959034   3.1839992  23.2174990  90.1879997
   2.2909992  23.5554990  90.1209997   3.0849992  22.3614990  90.6059997
   3.0485241  23.1480941  90.2352982  93.7869992  68.2134990  98.9069997
  94.6369992  68.6344990  99.0349997  93.7919992  67.4734990  99.5149997
  93.9039745  68.1711347  99.0066479  94.1809992  66.2674990 100.7309997
  93.4549992  65.7874990 101.1289997  94.7619992  66.4724990 101.4629997
  94.1602504  66.2295592 100.8844199  93.9399992  69.0524990 105.6789997
  94.7739992  68.6744990 105.3979997  94.0519992  69.9954990 105.5599997
  94.0691917  69.1282954 105.6244844  92.4259992  71.9304990 107.9859997
  91.7789992  72.2554990 108.6109997  91.9089992  71.4894990 107.3109997
  92.2674068  71.9154726 107.9804918  94.4489992  66.1684990  97.1219997
  93.9279992  66.5244990  96.4029997  94.4159992  66.8434990  97.7999997
  94.3731525  66.3085273  97.1151408  92.7979992  63.4074990  95.6729997
  92.8949992  64.0744990  94.9929997  92.6579992  62.5924990  95.1909997
  92.7923428  63.3885667  95.5148311  91.9679992  64.7884990 101.2939997
  91.8179992  63.8434990 101.2739997  91.6139992  65.0694990 102.1379997
  91.8996351  64.6971656 101.4053202  77.0029992  66.8664990 105.3039997
  77.1869992  66.7844990 104.3689997  77.8519992  66.7424990 105.7279997
  77.1430259  66.8384915 105.2331771  92.0459992  60.8154990  94.7899997
  92.6559992  60.4444990  95.4269997  91.2089992  60.3944990  94.9859997
  92.0163704  60.7077942  94.9037077  91.6779992  62.3704990  99.7559997
  91.9579992  61.4634990  99.8809997  92.4369992  62.8044990  99.3669997
  91.8189471  62.3050654  99.7205052  15.4719992  31.0334990  79.6119997
  15.1949992  30.3054990  80.1679997  16.3989992  31.1524990  79.8179997
  15.5594181  30.9500068  79.7158972  92.2899992  62.9524990 105.1919997
  93.2229992  63.1644990 105.1579997  92.0549992  63.0534990 106.1149997
  92.3858357  62.9951303 105.3120232  92.3189992  63.6894990 107.9679997
  91.4759992  63.9574990 108.3339997  92.7619992  64.5114990 107.7569997
  92.2634358  63.8373294 107.9895999  92.2919992  59.6334990  99.8049997
  92.4739992  59.1844990 100.6299997  91.6919992  59.0494990  99.3409997
  92.2358187  59.4930563  99.8552721  77.8219992  60.4494990 104.3359997
  78.2669992  59.6574990 104.6379997  78.2879992  61.1654990 104.7669997
  77.9459059  60.4379485 104.4356061  76.1259992  63.4484990 105.4049997
  76.6179992  63.2274990 104.6149997  76.4879992  64.2884990 105.6859997
  76.2423429  63.5318220 105.3347918  94.1579992  59.7014990  96.3329997
  94.5709992  58.9804990  95.8569997  94.8399992  60.3704990  96.3909997
  94.3065712  59.6934304  96.2758247  76.4389992  59.7064990  99.4599997
  75.5139992  59.9144990  99.3299997  76.8929992  60.1904990  98.7699997
  76.3737401  59.8003895  99.3489433  91.2099992  74.6904990 101.4049997
  91.8619992  74.3424990 100.7969997  91.7209992  75.1784990 102.0509997
  91.3682872  74.7088248 101.4090964  76.4029992  58.4444990 107.8039997
  75.7379992  58.1984990 108.4469997  75.9599992  59.0664990 107.2269997
  76.2521168  58.4949225 107.8139830  81.5489992  72.5934990 108.2069997
  81.1239992  73.4034990 107.9239997  82.4529992  72.6794990 107.9049997
  81.6131002  72.7158728 108.1274798   2.8349992  35.0214990  88.6229997
   3.0519992  34.0894990  88.5919997   3.0819992  35.2964990  89.5069997
   2.8980543  34.9310877  88.7381412  93.1229992  57.8684990 109.4899997
  92.3099992  58.1934990 109.1019997  93.3559992  57.1074990 108.9569997
  93.0432566  57.8101570 109.3649196  78.9509992  75.8504990 108.2539997
  78.2299992  76.2904990 107.8029997  78.5849992  75.5994990 109.1029997
  78.8029785  75.8767691 108.3069849  81.4179992  75.4504990 107.2839997
  80.5529992  75.5224990 107.6879997  81.3629992  75.9974990 106.4999997
  81.2922066  75.5342678 107.2333371  86.1289992  75.3384990 106.4599997
  85.6719992  75.8674990 105.8059997  86.2909992  75.9414990 107.1849997
  86.0883919  75.4923990 106.4685740  88.4559992  74.2164990 107.4049997
  87.5519992  74.3814990 107.1389997  88.8849992  75.0694990 107.3389997
  88.3902017  74.3544184 107.3596495  91.0599992  75.7864990 107.6999997
  90.8789992  76.7024990 107.4889997  91.2369992  75.3754990 106.8529997
  91.0591377  75.8563365 107.5567178  78.3659992  74.4734990 105.1649997
  78.3469992  74.0474990 106.0219997  79.1699992  74.1544990 104.7559997
  78.4721393  74.3720297 105.2270155  80.5069992  73.1834990 103.8199997
  80.2879992  72.2664990 103.9889997  81.3309992  73.3234990 104.2859997
  80.5884637  73.0769586 103.9061414  83.0439992  73.6534990 104.6679997
  83.2569992  72.7654990 104.3809997  83.1089992  73.6184990 105.6229997
  83.0819075  73.5273318 104.7577355  86.5529992  59.3174990 103.8129997
  85.8779992  58.6874990 104.0679997  87.1169992  58.8334990 103.2099997
  86.5369558  59.1659283 103.7663451   7.6339992  33.0434990  78.2889997
   7.7809992  32.5234990  79.0789997   7.6309992  33.9504990  78.5949997
   7.6537300  33.0948975  78.4385877  91.6949992  57.4244990 103.9249997
  92.2989992  57.9724990 103.4239997  90.8259992  57.7434990 103.6849997
  91.6601126  57.5427070 103.8239180  93.4219992  58.5634990 102.2589997
  94.0339992  58.0494990 101.7319997  93.8049992  59.4404990 102.2819997
  93.5573867  58.6117613 102.1900888  78.8789992  57.9514990 101.6349997
  78.1019992  57.7164990 101.1269997  79.4099992  57.1544990 101.6439997
  78.8444443  57.8116721 101.5667200  77.7159992  57.7494990  97.4379997
  78.1549992  58.3604990  96.8469997  77.0819992  58.2874990  97.9119997
  77.6904103  57.9059233  97.4211376  83.4589992  57.8774990 101.4479997
  84.3329992  58.2664990 101.4179997  83.3229992  57.6624990 102.3709997
  83.5603125  57.9017120 101.5686523  89.0149992  57.9074990 103.0969997
  89.0919992  58.0034990 102.1479997  88.7399992  57.0004990 103.2259997
  88.9883407  57.7979188 102.9843532  90.3689992  57.9334990  98.7899997
  89.6659992  58.5484990  98.5799997  89.9239992  57.0964990  98.9209997
  90.2126550  57.9044679  98.7789819  77.6169992  73.6974990  98.3359997
  76.9319992  73.6594990  97.6679997  77.6199992  74.6094990  98.6239997
  77.5237358  73.8156744  98.2836145  79.5769992  59.6654990  95.8809997
  80.0679992  59.0354990  95.3529997  80.1999992  59.9614990  96.5439997
  79.7285459  59.6192419  95.8983667  84.6029992  59.9584990  98.3379997
  84.7809992  59.3114990  99.0209997  84.5489992  60.7924990  98.8049997
  84.6200678  59.9826615  98.4946283  11.9179992  22.9584990  89.0779997
  12.6169992  23.0324990  89.7279997  11.5379992  22.0934990  89.2329997
  11.9622095  22.8517402  89.1877982  86.4809992  74.9064990  96.7329997
  87.3469992  75.2734990  96.5549997  86.2339992  74.4674990  95.9199997
  86.5662041  74.8973648  96.5985958  93.1899992  74.4694990  99.4129997
  92.9959992  73.7214990  98.8479997  93.1509992  75.2274990  98.8289997
  93.1581907  74.4695770  99.2568077  79.4349992  74.6174990  95.3609997
  79.1669992  74.9034990  96.2339997  80.2059992  74.0714990  95.5129997
  79.5025600  74.5828341  95.5011482 106.8139992  67.1074990 101.5929997
 106.9029992  68.0514990 101.4609997 106.1749992  66.8324990 100.9349997
 106.7398319  67.1994984 101.4860276 105.7469992  66.3624990 105.0119997
 105.7079992  65.7164990 105.7169997 105.4239992  65.8954990 104.2409997
 105.6980199  66.2110089 105.0042865  98.1149992  65.9764990 106.6049997
  98.1559992  65.3514990 107.3289997  98.8179992  66.6004990 106.7869997
  98.2156054  65.9753262 106.7286311 109.4529992  69.3014990 103.3139997
 109.0119992  68.5814990 103.7639997 109.4399992  70.0224990 103.9439997
 109.3908398  69.3003187 103.4607734  99.0389992  70.4264990 105.1399997
  98.6689992  69.6244990 104.7709997  99.9799992  70.2584990 105.1869997
  99.1155630  70.2938680 105.0957873  95.6489992  64.0864990 100.5329997
  95.2009992  64.9324990 100.5149997  95.0879992  63.5074990 100.0179997
  95.5118546  64.1239004 100.4608874  96.3589992  66.2484990 102.6589997
  96.5729992  65.4784990 103.1859997  97.0969992  66.3384990 102.0559997
  96.4880073  66.1553546 102.6495786  12.7029992  22.6104990  80.1749997
  12.9229992  23.0814990  79.3719997  13.2609992  23.0044990  80.8459997
  12.8085851  22.7283272  80.1556134 106.5639992  74.4054990 103.5259997
 107.1839992  73.7294990 103.2529997 106.3559992  74.1874990 104.4339997
 106.6207360  74.2834792 103.6114387 104.1359992  68.7944990 105.4179997
 104.4399992  68.1084990 104.8239997 104.8579992  68.9134990 106.0359997
 104.2751152  68.7167201 105.4202106 112.7989992  60.3964990 106.2789997
 112.8479992  61.0064990 107.0149997 113.2249992  60.8574990 105.5559997
 112.8632851  60.5423266 106.2820532 107.2769992  63.1884990 105.7459997
 107.4189992  62.2424990 105.7659997 107.1709992  63.3954990 104.8169997
 107.2821158  63.0869722 105.6232241 100.4319992  61.2904990 103.0179997
 100.4749992  62.1504990 102.5999997  99.9739992  60.7374990 102.3849997
 100.3759613  61.3335689 102.8751276 108.1539992  61.4214990 101.4189997
 108.7999992  61.0924990 102.0439997 108.6639992  61.9384990 100.7959997
 108.3114392  61.4463710 101.4203248  97.0519992  63.6874990 103.7799997
  97.7059992  63.1374990 104.2119997  97.0759992  63.4134990 102.8639997
  97.1447022  63.5752005 103.7151698 102.2079992  65.2374990 102.9959997
 102.8239992  64.7104990 103.5049997 101.6219992  64.5974990 102.5919997
 102.2130652  65.0788919 103.0110277 113.1909992  61.8744990 108.5149997
 112.5019992  62.5324990 108.4199997 113.2059992  61.6764990 109.4519997
 113.0987756  61.9377614 108.6285795  99.2419992  60.2084990 107.0919997
  99.0229992  60.7384990 106.3259997  98.5739992  60.4344990 107.7399997
  99.1217271  60.3116508 107.0746206   9.9029992  24.3384990  81.0099997
  10.7149992  24.8424990  81.0559997   9.6579992  24.1934990  81.9239997
   9.9811091  24.3879366  81.1398552 106.6109992  69.7084990 100.6359997
 106.3149992  69.3854990  99.7849997 106.2869992  70.6084990 100.6779997
 106.5266501  69.7859058 100.5250893 101.8109992  67.8834990 107.3799997
 101.0709992  68.4824990 107.4829997 102.5249992  68.4374990 107.0639997
 101.8063288  68.0402368 107.3513787 109.9179992  60.7124990 103.3999997
 109.7029992  59.9464990 103.9319997 110.5739992  61.1844990 103.9129997
 109.9772451  60.6714472 103.5421699  98.8359992  62.1004990 105.0449997
  99.4489992  62.7334990 105.4179997  99.3479992  61.6284990 104.3879997
  98.9891680  62.1234006 105.0072830 100.2179992  69.8484990 108.1669997
 100.2129992  70.7274990 107.7889997  99.3649992  69.7644990 108.5919997
 100.1019199  69.9575901 108.1726942  96.3399992  69.5194990  98.9489997
  96.0679992  69.7484990  98.0599997  96.3849992  70.3564990  99.4089997
  96.3088709  69.6641069  98.8896089 109.9649992  71.1404990 105.6619997
 109.0229992  71.1994990 105.8229997 110.2409992  72.0464990 105.5249997
 109.8735771  71.2710270 105.6654827 110.2649992  59.4274990 107.0789997
 109.5289992  60.0374990 107.0409997 110.9489992  59.8424990 106.5529997
 110.2565885  59.5671924 107.0026931 103.2679992  57.5134990 104.5449997
 103.1509992  56.5654990 104.4909997 102.4129992  57.8464990 104.8179997
 103.1363691  57.4285842 104.5745072 108.2169992  72.9214990 102.2869997
 108.6419992  72.2144990 101.8019997 108.5339992  73.7234990 101.8699997
 108.3180266  72.9330201 102.1642461  10.4389992  25.3244990  90.1949997
  10.5579992  25.8984990  90.9519997  11.0939992  24.6364990  90.3099997
  10.5438684  25.3100205  90.3141656 109.3759992  70.8224990 100.7959997
 109.1189992  70.1324990 100.1839997 109.4469992  70.3794990 101.6409997
 109.3504322  70.6681568 100.8265372 111.0619992  69.3894990 109.2729997
 111.2019992  68.7974990 108.5339997 111.2299992  70.2624990 108.9169997
 111.1038734  69.4264041 109.1236937 105.5349992  66.3514990  99.0449997
 104.8229992  66.8864990  98.6939997 106.2259992  66.4064990  98.3849997
 105.5308696  66.4322591  98.9076372 105.5889992  64.8084990  96.0839997
 106.2899992  64.8314990  96.7349997 105.8909992  64.1804990  95.4279997
 105.7258282  64.7267350  96.0844478 112.9039992  65.7294990 107.3389997
 112.2519992  66.4234990 107.4279997 113.3689992  65.9394990 106.5289997
 112.8775357  65.8529544 107.2417056 108.9409992  66.5604990  99.9969997
 108.2089992  66.7894990 100.5699997 109.3879992  65.8474990 100.4519997
 108.9012753  66.4953984 100.1369698 108.8379992  64.7354990 109.0649997
 108.9179992  65.4984990 109.6369997 108.2369992  65.0144990 108.3739997
 108.7677115  64.8777707 109.0499631 100.5859992  67.1914990 101.8799997
 100.2559992  66.8204990 101.0609997 101.1739992  66.5204990 102.2259997
 100.6204056  67.0501257 101.8149035 101.9529992  70.6194990 104.5609997
 101.8579992  70.0404990 103.8039997 102.6819992  70.2484990 105.0569997
 102.0386161  70.4900902 104.5245192 100.9529992  65.9594990 105.5129997
 101.5179992  66.0814990 104.7499997 101.2709992  66.5974990 106.1519997
 101.0733430  66.0624448 105.4949094  10.7869992  21.4194990  81.9479997
  10.4399992  22.0364990  82.5929997  11.4449992  21.9204990  81.4669997
  10.8285290  21.5716384  81.9711635 107.2619992  71.4634990 106.2469997
 107.0209992  72.1254990 106.8949997 107.0639992  70.6284990 106.6719997
 107.2022662  71.4412704 106.3931008 107.8119992  65.7234990  97.6819997
 108.3909992  65.8734990  98.4289997 108.2259992  66.1934990  96.9589997
 107.9473122  65.8076288  97.6865024  98.7529992  66.5574990 109.4589997
  98.8229992  67.2084990 110.1569997  97.8619992  66.6604990 109.1239997
  98.6421802  66.6604769 109.5092231 105.5379992  72.4594990 101.1179997
 106.0119992  72.7554990 101.8949997 104.9749992  73.1984990 100.8839997
 105.5268460  72.5998336 101.1927626 111.5099992  57.4734990  97.4949997
 110.6099992  57.6114990  97.7899997 111.7619992  58.3044990  97.0929997
 111.4207355  57.6048200  97.4810539  99.5759992  66.2604990  99.4689997
  99.2839992  67.0284990  98.9779997  98.9019992  65.6014990  99.3059997
  99.4448843  66.2764537  99.3797695 112.6999992  71.8394990  95.8719997
 112.7729992  72.7784990  96.0419997 113.6049992  71.5344990  95.8149997
 112.8324168  71.9268531  95.8875736  95.6689992  68.6234990 108.2839997
  95.1679992  68.5954990 107.4689997  95.6749992  67.7184990 108.5939997
  95.6011690  68.4972234 108.2142770  95.4199992  71.4044990 105.1679997
  96.3659992  71.2594990 105.1489997  95.3069992  72.1884990 105.7049997
  95.5343578  71.4906708 105.2380300 104.5959992  71.6444990 109.7259997
 104.6829992  72.4704990 110.2009997 103.7319992  71.3144990 109.9749997
 104.4911944  71.7129871 109.8246558   7.7099992  35.7844990  79.0199997
   7.8709992  36.5844990  78.5189997   7.5129992  36.0914990  79.9049997
   7.7053919  35.9354140  79.0710988 105.0099992  75.4164990  99.5319997
 104.9349992  75.2954990  98.5859997 105.0429992  76.3654990  99.6509997
 105.0041862  75.5282492  99.4184840  98.6639992  74.2054990 101.3129997
  98.8159992  73.8574990 102.1919997  97.8129992  73.8484990 101.0579997
  98.5697899  74.1096749 101.3987322 108.1119992  74.5704990  96.5349997
 108.4869992  73.8264990  96.0639997 108.1159992  74.3004990  97.4529997
 108.1638969  74.4320920  96.5946475 107.7809992  74.4964990  99.2839997
 106.8459992  74.5964990  99.4629997 108.0609992  73.7864990  99.8619997
 107.6909270  74.4142300  99.3865984  97.9179992  69.9474990 109.3269997
  98.1339992  69.5854990 110.1869997  97.0629992  69.5724990 109.1169997
  97.8319349  69.8472914 109.4162134 100.5369992  58.4174990 105.3229997
  99.6749992  58.3304990 104.9149997 100.5149992  59.2734990 105.7499997
 100.4160953  58.5213558 105.3249262 105.1999992  58.1394990 108.6969997
 105.6199992  57.7244990 109.4499997 104.2669992  57.9604990 108.8139997
 105.1313736  58.0584921 108.8158950 108.5259992  61.8944990 109.5509997
 108.0119992  61.7694990 110.3479997 108.3709992  62.8074990 109.3059997
 108.4346643  62.0007068 109.6270624 109.2889992  66.7554990  95.3119997
 109.3309992  66.5334990  94.3819997 110.1379992  67.1544990  95.5019997
 109.4095253  66.7790510  95.2103804 104.8619992  60.6314990  95.9819997
 104.6079992  60.6504990  96.9049997 104.6049992  59.7604990  95.6809997
 104.7925133  60.5163121  96.0675065  16.6429992  23.2314990  91.0299997
  15.7269992  23.4934990  90.9419997  16.9789992  23.2284990  90.1329997
  16.5629789  23.2669637  90.8967829 100.6279992  63.3824990 106.4179997
  99.9859992  63.3424990 107.1269997 100.6649992  64.3094990 106.1799997
 100.5451659  63.5022540 106.4828463 100.6249992  63.6034990 101.3299997
  99.7319992  63.2634990 101.2709997 101.0759992  63.2264990 100.5739997
 100.5637185  63.5060220 101.2197698 106.1609992  64.0194990 100.1469997
 105.7519992  64.8344990  99.8549997 106.8809992  63.8794990  99.5319997
 106.2023946  64.1119963 100.0239616 107.1649992  63.4654990 102.9609997
 106.9699992  64.0714990 102.2459997 107.3469992  62.6324990 102.5259997
 107.1629272  63.4357955 102.8044075  98.3779992  63.7034990 108.2849997
  98.3399992  64.1034990 109.1529997  97.8869992  62.8864990 108.3749997
  98.3064246  63.6478842 108.4161171 101.7439992  61.0774990  95.0829997
 101.3129992  60.6324990  95.8129997 101.0259992  61.4484990  94.5709997
 101.5879363  61.0667979  95.1136194  94.9859992  60.8194990 102.1349997
  95.6169992  60.7904990 102.8549997  95.4359992  60.3944990 101.4049997
  95.1330905  60.7580839 102.1347479  96.2599992  61.5654990  97.5589997
  96.7349992  62.1564990  96.9739997  95.5429992  62.0954990  97.9059997
  96.2280406  61.7181011  97.5258495 106.4289992  65.1034990 107.6319997
 106.7529992  64.4724990 106.9889997 105.9889992  64.5694990 108.2929997
 106.4138707  64.9448261 107.6333195 103.2069992  61.0314990 102.4159997
 102.2959992  61.0884990 102.7049997 103.7119992  60.9714990 103.2269997
 103.1506873  61.0311838 102.5651190  15.2449992  26.9814990  85.1259997
  14.4479992  26.5664990  84.7969997  15.6899992  26.2914990  85.6169997
  15.1960317  26.8313197  85.1473556  98.0349992  62.6604990 101.2429997
  97.1459992  62.7594990 100.9029997  98.3309992  61.8184990 100.8969997
  97.9534001  62.5602473 101.1497318 101.6879992  62.6604990  98.8989997
 102.6199992  62.7894990  99.0769997 101.4729992  63.3294990  98.2499997
 101.7864245  62.7686452  98.8355602 107.6119992  60.2664990 105.6799997
 106.9349992  60.3974990 106.3439997 107.1259992  60.1114990 104.8699997
 107.4537265  60.2634665 105.6613380 100.3619992  63.8544990  96.4659997
  99.8199992  63.4754990  95.7749997 101.1959992  64.0494990  96.0369997
 100.4004283  63.8289383  96.3134298 104.5269992  63.8184990 104.3029997
 105.0909992  63.2724990 103.7559997 104.3789992  63.2974990 105.0919997
 104.5843037  63.6731798 104.3347212  99.5289992  59.9554990 100.7209997
  99.2109992  59.0524990 100.6859997 100.3099992  59.9574990 100.1689997
  99.5911560  59.8321148 100.6414975 103.1529992  62.2074990 106.7169997
 102.3179992  62.6614990 106.8269997 103.6769992  62.4834990 107.4689997
 103.1095070  62.3069677 106.8337134 103.6969992  68.4204990  98.4019997
 102.9519992  67.9124990  98.0789997 103.5629992  68.4694990  99.3479997
 103.5768633  68.3575714  98.4857563 110.8469992  67.5534990 107.1879997
 111.4889992  68.0094990 106.6449997 110.0169992  67.6664990 106.7259997
 110.8227352  67.6313223 107.0510234 107.5949992  61.2344990  96.6009997
 106.6559992  61.3454990  96.4499997 107.8919992  62.0904990  96.9069997
 107.5066371  61.3655327  96.6217362  16.3319992  36.2374990  86.7479997
  16.1759992  36.9164990  86.0909997  17.2639992  36.3094990  86.9509997
  16.4367328  36.3401586  86.6855529 105.2169992  68.6044990 109.6389997
 104.8709992  68.2224990 110.4449997 105.0169992  69.5374990 109.7099997
 105.1425400  68.6783489 109.7590401 108.3129992  63.1014990  98.2619997
 109.2049992  62.9634990  98.5809997 108.3699992  63.8924990  97.7249997
 108.4427380  63.1894777  98.2330981  98.8219992  67.7154990 104.1709997
  99.5669992  67.7124990 103.5699997  98.8999992  66.8914990 104.6529997
  98.9344158  67.6037928 104.1539136 105.8229992  69.8784990  97.4269997
 105.5279992  70.7054990  97.8089997 105.1199992  69.2594990  97.6229997
 105.6875855  69.9079458  97.5057634  95.8299992  66.1754990 109.4859997
  96.0529992  65.7574990 110.3179997  95.2279992  65.5634990 109.0639997
  95.7790802  66.0355216 109.5427561 107.4669992  71.0664990 109.5889997
 106.5659992  71.2494990 109.3209997 107.5009992  71.3254990 110.5099997
 107.3483021  71.1265505 109.6768206 113.1979992  63.3104990  97.9559997
 112.6439992  62.9144990  97.2839997 113.2989992  64.2214990  97.6789997
 113.1357084  63.3793565  97.8264381 111.4929992  72.0964990  98.4209997
 111.1209992  71.2714990  98.7309997 111.7709992  71.9134990  97.5239997
 111.4795997  71.9586160  98.3421551 108.6539992  66.9044990 105.4429997
 107.7259992  66.6734990 105.4159997 109.1049992  66.1274990 105.1129997
 108.5878165  66.7677785 105.3946772 101.1969992  71.2334990 101.5759997
 101.7239992  72.0064990 101.3749997 100.3169992  71.4574990 101.2739997
 101.1501793  71.3696652 101.5076304   3.8269992  20.3554990  85.4849997
   3.5979992  20.4144990  84.5579997   3.3839992  19.5644990  85.7919997
   3.7357387  20.2566412  85.3995223  96.9519992  66.0954990  96.1629997
  97.5679992  66.7224990  96.5419997  96.0899992  66.4114990  96.4339997
  96.9198195  66.2240810  96.2515369 102.6239992  68.8964990 101.1519997
 102.3829992  69.8214990 101.1939997 101.8839992  68.4374990 101.5479997
 102.4908934  68.9610881 101.2113191 103.1389992  73.0454990 107.4669997
 103.5019992  73.8994990 107.2339997 103.6709992  72.7534990 108.2079997
 103.2605141  73.1228907 107.5352079 101.3069992  73.9174990 100.6969997
 100.3579992  74.0234990 100.7489997 101.6589992  74.7384990 101.0419997
 101.2246214  74.0429361 100.7507317 106.6829992  69.1444990 107.1679997
 106.2569992  68.9164990 107.9939997 107.2639992  68.4054990 106.9849997
 106.7031587  69.0134084 107.2564111 108.8859992  70.0734990  96.2419997
 109.2389992  69.6934990  97.0459997 107.9369992  69.9794990  96.3279997
 108.8060985  70.0087330  96.3637738 109.3419992  73.6964990 109.6369997
 108.7399992  73.1404990 109.1419997 109.6229992  74.3634990 109.0109997
 109.2975757  73.7105755 109.4845657 113.3889992  74.5524990  96.4429997
 114.1329992  75.1384990  96.3029997 112.6949992  75.1214990  96.7759997
 113.3969809  74.7095830  96.4688572  97.4639992  60.9294990 109.0439997
  96.5709992  61.2674990 108.9769997  97.3649992  60.0734990 109.4619997
  97.3285241  60.8600941 109.0912982 109.7519992  68.7454990  98.4679997
 109.4749992  68.0174990  99.0239997 110.6789992  68.8644990  98.6739997
 109.8394181  68.6620068  98.5718972   2.7569992  34.2964990  81.6459997
   1.9249992  34.7684990  81.6729997   3.3029992  34.8064990  81.0469997
   2.7168710  34.4300317  81.5687570  97.1149992  72.7334990 107.4789997
  97.3319992  71.8014990 107.4479997  97.3619992  73.0084990 108.3629997
  97.1780543  72.6430877 107.5941412 102.9769992  71.1854990  94.6889997
 103.2159992  70.4364990  94.1409997 102.7079992  70.7974990  95.5209997
 102.9732804  71.0306524  94.7266352 101.9139992  70.7554990  97.1449997
 102.0609992  70.2354990  97.9349997 101.9109992  71.6624990  97.4509997
 101.9337300  70.8068975  97.2945877  98.3669992  68.0074990  97.6549997
  97.6809992  68.3604990  98.2219997  98.8899992  68.7704990  97.4089997
  98.3439033  68.1588757  97.6992644 106.1979992  60.6704990 107.9339997
 106.8969992  60.7444990 108.5839997 105.8179992  59.8054990 108.0889997
 106.2422095  60.5637402 108.0437982 106.9829992  60.3224990  99.0309997
 107.2029992  60.7934990  98.2279997 107.5409992  60.7164990  99.7019997
 107.0885851  60.4403272  99.0116134 104.6519992  72.4524990  97.8939997
 103.8349992  72.9494990  97.9469997 105.1809992  72.9284990  97.2539997
 104.6117898  72.5848123  97.8147274 104.1829992  62.0504990  99.8659997
 104.9949992  62.5544990  99.9119997 103.9379992  61.9054990 100.7799997
 104.2611091  62.0999366  99.9958552 104.7189992  63.0364990 109.0509997
 104.8379992  63.6104990 109.8079997 105.3739992  62.3484990 109.1659997
 104.8238684  63.0220205 109.1701656 105.0669992  59.1314990 100.8039997
 104.7199992  59.7484990 101.4489997 105.7249992  59.6324990 100.3229997
 105.1085290  59.2836384 100.8271635   2.0459992  36.9084990  92.9759997
   2.5859992  36.6924990  93.7349997   1.5639992  36.1034990  92.7859997
   2.0549101  36.7700216  93.0544364 101.9899992  73.4964990  97.8759997
 102.1509992  74.2964990  97.3749997 101.7929992  73.8034990  98.7609997
 101.9853919  73.6474140  97.9270988 100.7239992  60.1944990  97.4919997
 100.6409992  61.0824990  97.8379997 101.6139992  59.9294990  97.7229997
 100.8329751  60.2802482  97.5706066 110.9229992  60.9434990 109.8859997
 110.0069992  61.2054990 109.7979997 111.2589992  60.9404990 108.9889997
 110.8429789  60.9789637 109.7527829 109.5249992  64.6934990 103.9819997
 108.7279992  64.2784990 103.6529997 109.9699992  64.0034990 104.4729997
 109.4760317  64.5433197 104.0033556  98.9829992  70.6214990  96.5519997
  99.5749992  71.3214990  96.8279997  99.4419992  70.1884990  95.8329997
  99.1261172  70.6587371  96.4925163  97.2989992  63.2864990  95.6679997
  97.2539992  64.2254990  95.8469997  96.4109992  63.0504990  95.3979997
  97.1728472  63.3831946  95.6560282 110.6119992  73.9494990 105.6039997
 110.4559992  74.6284990 104.9469997 111.5439992  74.0214990 105.8069997
 110.7167328  74.0521586 105.5415529  98.1069992  58.0674990 104.3409997
  97.8779992  58.1264990 103.4139997  97.6639992  57.2764990 104.6479997
  98.0157387  57.9686413 104.2555223  97.0369992  72.0084990 100.5019997
  96.2049992  72.4804990 100.5289997  97.5829992  72.5184990  99.9029997
  96.9968710  72.1420317 100.4247570 105.0149992  73.0484990  94.8269997
 104.3709992  72.4174990  95.1489997 105.7769992  72.5174990  94.5949997
 105.0298260  72.8903035  94.8397298   6.6429992  35.8284990  94.5959997
   7.4109992  35.3694990  94.9369997   6.6219992  35.6024990  93.6659997
   6.7452135  35.7351680  94.5169473 109.6189992  72.8654990  95.0609997
 109.9019992  72.0704990  95.5139997 110.3589992  73.0984990  94.4999997
 109.7577295  72.7882349  95.0471469 100.5739992  68.7744990  94.9179997
 100.6379992  67.9804990  95.4489997 101.2269992  68.6564990  94.2289997
 100.6711168  68.6497747  94.8975119 105.9259992  69.8214990  94.6539997
 105.6579992  70.0024990  95.5549997 105.7199992  68.8964990  94.5229997
 105.8614251  69.7211528  94.7596809 108.6229992  68.3164990 109.6019997
 109.3679992  68.9054990 109.4819997 107.8649992  68.8984990 109.6649997
 108.6225185  68.4757000 109.5940940 101.7229992  66.7474990  97.2239997
 101.2639992  66.2634990  97.9099997 101.9779992  66.0784990  96.5879997
 101.6946178  66.5908511  97.2319785 101.0119992  64.6404990 109.5799997
 100.3939992  65.3144990 109.8609997 101.3559992  64.9614990 108.7469997
 100.9738181  64.7763233 109.5058266 102.7939992  64.9904990  95.4869997
 102.6139992  64.8354990  94.5589997 103.7439992  65.0984990  95.5309997
 102.8978016  64.9839264  95.3662123 112.1839992  67.3444990  94.9319997
 111.9109992  66.9204990  94.1189997 112.2239992  68.2764990  94.7149997
 112.1520201  67.4123523  94.7913548 101.7639992  60.3644990 108.1549997
 102.2999992  60.8164990 107.5029997 100.9119992  60.2564990 107.7329997
 101.7221648  60.4117883 108.0086395 103.3459992  65.8044990 108.3949997
 104.0969992  65.6484990 107.8219997 103.0069992  66.6564990 108.1189997
 103.4029052  65.8982745 108.2793469  13.2199992  34.2084990  93.3249997
  12.8689992  33.3514990  93.5679997  13.9459992  34.3504990  93.9319997
  13.2701590  34.1105189  93.4402889 102.5699992  57.8214990 108.5869997
 102.4719992  58.7674990 108.4809997 101.8269992  57.4484990 108.1109997
 102.4562363  57.9005987 108.5082029 102.6919992  75.6804990  96.4879997
 103.6249992  75.8384990  96.6319997 102.4269992  76.3564990  95.8629997
 102.7839846  75.7934567  96.4232930  96.2599992  70.3174990  95.9709997
  97.1739992  70.3964990  96.2439997  96.2669992  69.6304990  95.3039997
  96.3860769  70.2354734  95.9182366  94.9089992  75.7104990 101.0479997
  94.2619992  75.2484990 100.5149997  95.2639992  75.0384990 101.6309997
  94.8683861  75.5564707 101.0537939  95.7789992  73.7904990 102.8529997
  95.4449992  72.9104990 103.0249997  96.0009992  74.1364990 103.7169997
  95.7632677  73.7167366 102.9934252 113.3279992  74.6004990 105.8329997
 113.3059992  74.7854990 106.7719997 114.0179992  75.1684990 105.4919997
 113.4183439  74.7026898 105.9154774 112.8909992  74.1674990 108.7549997
 112.4039992  73.4314990 108.3839997 113.4399992  73.7734990 109.4329997
 112.8986101  74.0136267 108.7959034 112.6429992  68.2134990  98.9069997
 113.4929992  68.6344990  99.0349997 112.6479992  67.4734990  99.5149997
 112.7599745  68.1711347  99.0066479 113.0369992  66.2674990 100.7309997
 112.3109992  65.7874990 101.1289997 113.6179992  66.4724990 101.4629997
 113.0162504  66.2295592 100.8844199 112.7959992  69.0524990 105.6789997
 113.6299992  68.6744990 105.3979997 112.9079992  69.9954990 105.5599997
 112.9251917  69.1282954 105.6244844  15.3389992  35.1534990  76.2049997
  15.6219992  34.3584990  76.6579997  16.0789992  35.3864990  75.6439997
  15.4777295  35.0762349  76.1911469 111.2819992  71.9304990 107.9859997
 110.6349992  72.2554990 108.6109997 110.7649992  71.4894990 107.3109997
 111.1234068  71.9154726 107.9804918 113.3049992  66.1684990  97.1219997
 112.7839992  66.5244990  96.4029997 113.2719992  66.8434990  97.7999997
 113.2291525  66.3085273  97.1151408 111.6539992  63.4074990  95.6729997
 111.7509992  64.0744990  94.9929997 111.5139992  62.5924990  95.1909997
 111.6483428  63.3885667  95.5148311 110.8239992  64.7884990 101.2939997
 110.6739992  63.8434990 101.2739997 110.4699992  65.0694990 102.1379997
 110.7556351  64.6971656 101.4053202  95.8589992  66.8664990 105.3039997
  96.0429992  66.7844990 104.3689997  96.7079992  66.7424990 105.7279997
  95.9990259  66.8384915 105.2331771 110.9019992  60.8154990  94.7899997
 111.5119992  60.4444990  95.4269997 110.0649992  60.3944990  94.9859997
 110.8723704  60.7077942  94.9037077 110.5339992  62.3704990  99.7559997
 110.8139992  61.4634990  99.8809997 111.2929992  62.8044990  99.3669997
 110.6749471  62.3050654  99.7205052 111.1459992  62.9524990 105.1919997
 112.0789992  63.1644990 105.1579997 110.9109992  63.0534990 106.1149997
 111.2418357  62.9951303 105.3120232 111.1749992  63.6894990 107.9679997
 110.3319992  63.9574990 108.3339997 111.6179992  64.5114990 107.7569997
 111.1194358  63.8373294 107.9895999 111.1479992  59.6334990  99.8049997
 111.3299992  59.1844990 100.6299997 110.5479992  59.0494990  99.3409997
 111.0918187  59.4930563  99.8552721   1.9529992  30.7194990  93.9299997
   2.0969992  29.8174990  93.6439997   1.1799992  31.0054990  93.4419997
   1.8682854  30.6346876  93.8249363  96.6779992  60.4494990 104.3359997
  97.1229992  59.6574990 104.6379997  97.1439992  61.1654990 104.7669997
  96.8019059  60.4379485 104.4356061  94.9819992  63.4484990 105.4049997
  95.4739992  63.2274990 104.6149997  95.3439992  64.2884990 105.6859997
  95.0983429  63.5318220 105.3347918 113.0139992  59.7014990  96.3329997
 113.4269992  58.9804990  95.8569997 113.6959992  60.3704990  96.3909997
 113.1625712  59.6934304  96.2758247  95.2949992  59.7064990  99.4599997
  94.3699992  59.9144990  99.3299997  95.7489992  60.1904990  98.7699997
  95.2297401  59.8003895  99.3489433 110.0659992  74.6904990 101.4049997
 110.7179992  74.3424990 100.7969997 110.5769992  75.1784990 102.0509997
 110.2242872  74.7088248 101.4090964  95.2589992  58.4444990 107.8039997
  94.5939992  58.1984990 108.4469997  94.8159992  59.0664990 107.2269997
  95.1081168  58.4949225 107.8139830 100.4049992  72.5934990 108.2069997
  99.9799992  73.4034990 107.9239997 101.3089992  72.6794990 107.9049997
 100.4691002  72.7158728 108.1274798 111.9789992  57.8684990 109.4899997
 111.1659992  58.1934990 109.1019997 112.2119992  57.1074990 108.9569997
 111.8992566  57.8101570 109.3649196  97.8069992  75.8504990 108.2539997
  97.0859992  76.2904990 107.8029997  97.4409992  75.5994990 109.1029997
  97.6589785  75.8767691 108.3069849 100.2739992  75.4504990 107.2839997
  99.4089992  75.5224990 107.6879997 100.2189992  75.9974990 106.4999997
 100.1482066  75.5342678 107.2333371   8.6079992  30.6884990  93.3629997
   8.2799992  30.9594990  92.5049997   8.7599992  29.7474990  93.2749997
   8.5836970  30.5983694  93.2337953 104.9849992  75.3384990 106.4599997
 104.5279992  75.8674990 105.8059997 105.1469992  75.9414990 107.1849997
 104.9443919  75.4923990 106.4685740 107.3119992  74.2164990 107.4049997
 106.4079992  74.3814990 107.1389997 107.7409992  75.0694990 107.3389997
 107.2462017  74.3544184 107.3596495 109.9159992  75.7864990 107.6999997
 109.7349992  76.7024990 107.4889997 110.0929992  75.3754990 106.8529997
 109.9151377  75.8563365 107.5567178  97.2219992  74.4734990 105.1649997
  97.2029992  74.0474990 106.0219997  98.0259992  74.1544990 104.7559997
  97.3281393  74.3720297 105.2270155  99.3629992  73.1834990 103.8199997
  99.1439992  72.2664990 103.9889997 100.1869992  73.3234990 104.2859997
  99.4444637  73.0769586 103.9061414 101.8999992  73.6534990 104.6679997
 102.1129992  72.7654990 104.3809997 101.9649992  73.6184990 105.6229997
 101.9379075  73.5273318 104.7577355 105.4089992  59.3174990 103.8129997
 104.7339992  58.6874990 104.0679997 105.9729992  58.8334990 103.2099997
 105.3929558  59.1659283 103.7663451 110.5509992  57.4244990 103.9249997
 111.1549992  57.9724990 103.4239997 109.6819992  57.7434990 103.6849997
 110.5161126  57.5427070 103.8239180 112.2779992  58.5634990 102.2589997
 112.8899992  58.0494990 101.7319997 112.6609992  59.4404990 102.2819997
 112.4133867  58.6117613 102.1900888  97.7349992  57.9514990 101.6349997
  96.9579992  57.7164990 101.1269997  98.2659992  57.1544990 101.6439997
  97.7004443  57.8116721 101.5667200  11.6459992  32.1094990  75.7979997
  11.3779992  32.2904990  76.6989997  11.4399992  31.1844990  75.6669997
  11.5814251  32.0091528  75.9036809  96.5719992  57.7494990  97.4379997
  97.0109992  58.3604990  96.8469997  95.9379992  58.2874990  97.9119997
  96.5464103  57.9059233  97.4211376 102.3149992  57.8774990 101.4479997
 103.1889992  58.2664990 101.4179997 102.1789992  57.6624990 102.3709997
 102.4163125  57.9017120 101.5686523 107.8709992  57.9074990 103.0969997
 107.9479992  58.0034990 102.1479997 107.5959992  57.0004990 103.2259997
 107.8443407  57.7979188 102.9843532 109.2249992  57.9334990  98.7899997
 108.5219992  58.5484990  98.5799997 108.7799992  57.0964990  98.9209997
 109.0686550  57.9044679  98.7789819  96.4729992  73.6974990  98.3359997
  95.7879992  73.6594990  97.6679997  96.4759992  74.6094990  98.6239997
  96.3797358  73.8156744  98.2836145  98.4329992  59.6654990  95.8809997
  98.9239992  59.0354990  95.3529997  99.0559992  59.9614990  96.5439997
  98.5845459  59.6192419  95.8983667 103.4589992  59.9584990  98.3379997
 103.6369992  59.3114990  99.0209997 103.4049992  60.7924990  98.8049997
 103.4760678  59.9826615  98.4946283 105.3369992  74.9064990  96.7329997
 106.2029992  75.2734990  96.5549997 105.0899992  74.4674990  95.9199997
 105.4222041  74.8973648  96.5985958 112.0459992  74.4694990  99.4129997
 111.8519992  73.7214990  98.8479997 112.0069992  75.2274990  98.8289997
 112.0141907  74.4695770  99.2568077  98.2909992  74.6174990  95.3609997
  98.0229992  74.9034990  96.2339997  99.0619992  74.0714990  95.5129997
  98.3585600  74.5828341  95.5011482  14.3429992  30.6044990  90.7459997
  15.0879992  31.1934990  90.6259997  13.5849992  31.1864990  90.8089997
  14.3425185  30.7637000  90.7380940 125.6699992  67.1074990 101.5929997
 125.7589992  68.0514990 101.4609997 125.0309992  66.8324990 100.9349997
 125.5958319  67.1994984 101.4860276 124.6029992  66.3624990 105.0119997
 124.5639992  65.7164990 105.7169997 124.2799992  65.8954990 104.2409997
 124.5540199  66.2110089 105.0042865 116.9709992  65.9764990 106.6049997
 117.0119992  65.3514990 107.3289997 117.6739992  66.6004990 106.7869997
 117.0716054  65.9753262 106.7286311 128.3089992  69.3014990 103.3139997
 127.8679992  68.5814990 103.7639997 128.2959992  70.0224990 103.9439997
 128.2468398  69.3003187 103.4607734 117.8949992  70.4264990 105.1399997
 117.5249992  69.6244990 104.7709997 118.8359992  70.2584990 105.1869997
 117.9715630  70.2938680 105.0957873 114.5049992  64.0864990 100.5329997
 114.0569992  64.9324990 100.5149997 113.9439992  63.5074990 100.0179997
 114.3678546  64.1239004 100.4608874 115.2149992  66.2484990 102.6589997
 115.4289992  65.4784990 103.1859997 115.9529992  66.3384990 102.0559997
 115.3440073  66.1553546 102.6495786 125.4199992  74.4054990 103.5259997
 126.0399992  73.7294990 103.2529997 125.2119992  74.1874990 104.4339997
 125.4767360  74.2834792 103.6114387 122.9919992  68.7944990 105.4179997
 123.2959992  68.1084990 104.8239997 123.7139992  68.9134990 106.0359997
 123.1311152  68.7167201 105.4202106 131.6549992  60.3964990 106.2789997
 131.7039992  61.0064990 107.0149997 132.0809992  60.8574990 105.5559997
 131.7192851  60.5423266 106.2820532   2.7849992  27.9194990  93.3499997
   3.1929992  27.0624990  93.2289997   2.5249992  27.9334990  94.2709997
   2.8057082  27.8040596  93.4579469 126.1329992  63.1884990 105.7459997
 126.2749992  62.2424990 105.7659997 126.0269992  63.3954990 104.8169997
 126.1381158  63.0869722 105.6232241 119.2879992  61.2904990 103.0179997
 119.3309992  62.1504990 102.5999997 118.8299992  60.7374990 102.3849997
 119.2319613  61.3335689 102.8751276 127.0099992  61.4214990 101.4189997
 127.6559992  61.0924990 102.0439997 127.5199992  61.9384990 100.7959997
 127.1674392  61.4463710 101.4203248 115.9079992  63.6874990 103.7799997
 116.5619992  63.1374990 104.2119997 115.9319992  63.4134990 102.8639997
 116.0007022  63.5752005 103.7151698 121.0639992  65.2374990 102.9959997
 121.6799992  64.7104990 103.5049997 120.4779992  64.5974990 102.5919997
 121.0690652  65.0788919 103.0110277 132.0469992  61.8744990 108.5149997
 131.3579992  62.5324990 108.4199997 132.0619992  61.6764990 109.4519997
 131.9547756  61.9377614 108.6285795 118.0979992  60.2084990 107.0919997
 117.8789992  60.7384990 106.3259997 117.4299992  60.4344990 107.7399997
 117.9777271  60.3116508 107.0746206 125.4669992  69.7084990 100.6359997
 125.1709992  69.3854990  99.7849997 125.1429992  70.6084990 100.6779997
 125.3826501  69.7859058 100.5250893 120.6669992  67.8834990 107.3799997
 119.9269992  68.4824990 107.4829997 121.3809992  68.4374990 107.0639997
 120.6623288  68.0402368 107.3513787 128.7739992  60.7124990 103.3999997
 128.5589992  59.9464990 103.9319997 129.4299992  61.1844990 103.9129997
 128.8332451  60.6714472 103.5421699   6.7319992  26.9284990  90.7239997
   6.1139992  27.6024990  91.0049997   7.0759992  27.2494990  89.8909997
   6.6938181  27.0643233  90.6498266 117.6919992  62.1004990 105.0449997
 118.3049992  62.7334990 105.4179997 118.2039992  61.6284990 104.3879997
 117.8451680  62.1234006 105.0072830 119.0739992  69.8484990 108.1669997
 119.0689992  70.7274990 107.7889997 118.2209992  69.7644990 108.5919997
 118.9579199  69.9575901 108.1726942 115.1959992  69.5194990  98.9489997
 114.9239992  69.7484990  98.0599997 115.2409992  70.3564990  99.4089997
 115.1648709  69.6641069  98.8896089 128.8209992  71.1404990 105.6619997
 127.8789992  71.1994990 105.8229997 129.0969992  72.0464990 105.5249997
 128.7295771  71.2710270 105.6654827 129.1209992  59.4274990 107.0789997
 128.3849992  60.0374990 107.0409997 129.8049992  59.8424990 106.5529997
 129.1125885  59.5671924 107.0026931 122.1239992  57.5134990 104.5449997
 122.0069992  56.5654990 104.4909997 121.2689992  57.8464990 104.8179997
 121.9923691  57.4285842 104.5745072 127.0729992  72.9214990 102.2869997
 127.4979992  72.2144990 101.8019997 127.3899992  73.7234990 101.8699997
 127.1740266  72.9330201 102.1642461 128.2319992  70.8224990 100.7959997
 127.9749992  70.1324990 100.1839997 128.3029992  70.3794990 101.6409997
 128.2064322  70.6681568 100.8265372 129.9179992  69.3894990 109.2729997
 130.0579992  68.7974990 108.5339997 130.0859992  70.2624990 108.9169997
 129.9598734  69.4264041 109.1236937 124.3909992  66.3514990  99.0449997
 123.6789992  66.8864990  98.6939997 125.0819992  66.4064990  98.3849997
 124.3868696  66.4322591  98.9076372  11.7519992  29.3994990  94.0019997
  12.7049992  29.4834990  93.9739997  11.5919992  28.6874990  94.6209997
  11.8608161  29.3147198  94.0818689 124.4449992  64.8084990  96.0839997
 125.1459992  64.8314990  96.7349997 124.7469992  64.1804990  95.4279997
 124.5818282  64.7267350  96.0844478 131.7599992  65.7294990 107.3389997
 131.1079992  66.4234990 107.4279997 132.2249992  65.9394990 106.5289997
 131.7335357  65.8529544 107.2417056 127.7969992  66.5604990  99.9969997
 127.0649992  66.7894990 100.5699997 128.2439992  65.8474990 100.4519997
 127.7572753  66.4953984 100.1369698 127.6939992  64.7354990 109.0649997
 127.7739992  65.4984990 109.6369997 127.0929992  65.0144990 108.3739997
 127.6237115  64.8777707 109.0499631 119.4419992  67.1914990 101.8799997
 119.1119992  66.8204990 101.0609997 120.0299992  66.5204990 102.2259997
 119.4764056  67.0501257 101.8149035 120.8089992  70.6194990 104.5609997
 120.7139992  70.0404990 103.8039997 121.5379992  70.2484990 105.0569997
 120.8946161  70.4900902 104.5245192 119.8089992  65.9594990 105.5129997
 120.3739992  66.0814990 104.7499997 120.1269992  66.5974990 106.1519997
 119.9293430  66.0624448 105.4949094 126.1179992  71.4634990 106.2469997
 125.8769992  72.1254990 106.8949997 125.9199992  70.6284990 106.6719997
 126.0582662  71.4412704 106.3931008 126.6679992  65.7234990  97.6819997
 127.2469992  65.8734990  98.4289997 127.0819992  66.1934990  96.9589997
 126.8033122  65.8076288  97.6865024 117.6089992  66.5574990 109.4589997
 117.6789992  67.2084990 110.1569997 116.7179992  66.6604990 109.1239997
 117.4981802  66.6604769 109.5092231   7.0719992  24.2834990  91.8069997
   7.2219992  23.5544990  91.2039997   7.0739992  25.0604990  91.2479997
   7.0927664  24.2888971  91.6490525 124.3939992  72.4594990 101.1179997
 124.8679992  72.7554990 101.8949997 123.8309992  73.1984990 100.8839997
 124.3828460  72.5998336 101.1927626 130.3659992  57.4734990  97.4949997
 129.4659992  57.6114990  97.7899997 130.6179992  58.3044990  97.0929997
 130.2767355  57.6048200  97.4810539 118.4319992  66.2604990  99.4689997
 118.1399992  67.0284990  98.9779997 117.7579992  65.6014990  99.3059997
 118.3008843  66.2764537  99.3797695 131.5559992  71.8394990  95.8719997
 131.6289992  72.7784990  96.0419997 132.4609992  71.5344990  95.8149997
 131.6884168  71.9268531  95.8875736 114.5249992  68.6234990 108.2839997
 114.0239992  68.5954990 107.4689997 114.5309992  67.7184990 108.5939997
 114.4571690  68.4972234 108.2142770 114.2759992  71.4044990 105.1679997
 115.2219992  71.2594990 105.1489997 114.1629992  72.1884990 105.7049997
 114.3903578  71.4906708 105.2380300 123.4519992  71.6444990 109.7259997
 123.5389992  72.4704990 110.2009997 122.5879992  71.3144990 109.9749997
 123.3471944  71.7129871 109.8246558 123.8659992  75.4164990  99.5319997
 123.7909992  75.2954990  98.5859997 123.8989992  76.3654990  99.6509997
 123.8601862  75.5282492  99.4184840 117.5199992  74.2054990 101.3129997
 117.6719992  73.8574990 102.1919997 116.6689992  73.8484990 101.0579997
 117.4257899  74.1096749 101.3987322 126.9679992  74.5704990  96.5349997
 127.3429992  73.8264990  96.0639997 126.9719992  74.3004990  97.4529997
 127.0198969  74.4320920  96.5946475   7.4839992  22.6524990  89.2989997
   8.0199992  23.1044990  88.6469997   6.6319992  22.5444990  88.8769997
   7.4421648  22.6997883  89.1526395 126.6369992  74.4964990  99.2839997
 125.7019992  74.5964990  99.4629997 126.9169992  73.7864990  99.8619997
 126.5469270  74.4142300  99.3865984 116.7739992  69.9474990 109.3269997
 116.9899992  69.5854990 110.1869997 115.9189992  69.5724990 109.1169997
 116.6879349  69.8472914 109.4162134 119.3929992  58.4174990 105.3229997
 118.5309992  58.3304990 104.9149997 119.3709992  59.2734990 105.7499997
 119.2720953  58.5213558 105.3249262 124.0559992  58.1394990 108.6969997
 124.4759992  57.7244990 109.4499997 123.1229992  57.9604990 108.8139997
 123.9873736  58.0584921 108.8158950 127.3819992  61.8944990 109.5509997
 126.8679992  61.7694990 110.3479997 127.2269992  62.8074990 109.3059997
 127.2906643  62.0007068 109.6270624 128.1449992  66.7554990  95.3119997
 128.1869992  66.5334990  94.3819997 128.9939992  67.1544990  95.5019997
 128.2655253  66.7790510  95.2103804 123.7179992  60.6314990  95.9819997
 123.4639992  60.6504990  96.9049997 123.4609992  59.7604990  95.6809997
 123.6485133  60.5163121  96.0675065 119.4839992  63.3824990 106.4179997
 118.8419992  63.3424990 107.1269997 119.5209992  64.3094990 106.1799997
 119.4011659  63.5022540 106.4828463 119.4809992  63.6034990 101.3299997
 118.5879992  63.2634990 101.2709997 119.9319992  63.2264990 100.5739997
 119.4197185  63.5060220 101.2197698 125.0169992  64.0194990 100.1469997
 124.6079992  64.8344990  99.8549997 125.7369992  63.8794990  99.5319997
 125.0583946  64.1119963 100.0239616   9.0659992  28.0924990  89.5389997
   9.8169992  27.9364990  88.9659997   8.7269992  28.9444990  89.2629997
   9.1229052  28.1862745  89.4233469 126.0209992  63.4654990 102.9609997
 125.8259992  64.0714990 102.2459997 126.2029992  62.6324990 102.5259997
 126.0189272  63.4357955 102.8044075 117.2339992  63.7034990 108.2849997
 117.1959992  64.1034990 109.1529997 116.7429992  62.8864990 108.3749997
 117.1624246  63.6478842 108.4161171 120.5999992  61.0774990  95.0829997
 120.1689992  60.6324990  95.8129997 119.8819992  61.4484990  94.5709997
 120.4439363  61.0667979  95.1136194 113.8419992  60.8194990 102.1349997
 114.4729992  60.7904990 102.8549997 114.2919992  60.3944990 101.4049997
 113.9890905  60.7580839 102.1347479 115.1159992  61.5654990  97.5589997
 115.5909992  62.1564990  96.9739997 114.3989992  62.0954990  97.9059997
 115.0840406  61.7181011  97.5258495 125.2849992  65.1034990 107.6319997
 125.6089992  64.4724990 106.9889997 124.8449992  64.5694990 108.2929997
 125.2698707  64.9448261 107.6333195 122.0629992  61.0314990 102.4159997
 121.1519992  61.0884990 102.7049997 122.5679992  60.9714990 103.2269997
 122.0066873  61.0311838 102.5651190 116.8909992  62.6604990 101.2429997
 116.0019992  62.7594990 100.9029997 117.1869992  61.8184990 100.8969997
 116.8094001  62.5602473 101.1497318 120.5439992  62.6604990  98.8989997
 121.4759992  62.7894990  99.0769997 120.3289992  63.3294990  98.2499997
 120.6424245  62.7686452  98.8355602 126.4679992  60.2664990 105.6799997
 125.7909992  60.3974990 106.3439997 125.9819992  60.1114990 104.8699997
 126.3097265  60.2634665 105.6613380  13.4819992  25.9074990  94.5669997
  13.6739992  24.9764990  94.4559997  14.3389992  26.3324990  94.5569997
  13.6242320  25.8374743  94.5504433 119.2179992  63.8544990  96.4659997
 118.6759992  63.4754990  95.7749997 120.0519992  64.0494990  96.0369997
 119.2564283  63.8289383  96.3134298 123.3829992  63.8184990 104.3029997
 123.9469992  63.2724990 103.7559997 123.2349992  63.2974990 105.0919997
 123.4403037  63.6731798 104.3347212 118.3849992  59.9554990 100.7209997
 118.0669992  59.0524990 100.6859997 119.1659992  59.9574990 100.1689997
 118.4471560  59.8321148 100.6414975 122.0089992  62.2074990 106.7169997
 121.1739992  62.6614990 106.8269997 122.5329992  62.4834990 107.4689997
 121.9655070  62.3069677 106.8337134 122.5529992  68.4204990  98.4019997
 121.8079992  67.9124990  98.0789997 122.4189992  68.4694990  99.3479997
 122.4328633  68.3575714  98.4857563 129.7029992  67.5534990 107.1879997
 130.3449992  68.0094990 106.6449997 128.8729992  67.6664990 106.7259997
 129.6787352  67.6313223 107.0510234 126.4509992  61.2344990  96.6009997
 125.5119992  61.3454990  96.4499997 126.7479992  62.0904990  96.9069997
 126.3626371  61.3655327  96.6217362 124.0729992  68.6044990 109.6389997
 123.7269992  68.2224990 110.4449997 123.8729992  69.5374990 109.7099997
 123.9985400  68.6783489 109.7590401 127.1689992  63.1014990  98.2619997
 128.0609992  62.9634990  98.5809997 127.2259992  63.8924990  97.7249997
 127.2987380  63.1894777  98.2330981 117.6779992  67.7154990 104.1709997
 118.4229992  67.7124990 103.5699997 117.7559992  66.8914990 104.6529997
 117.7904158  67.6037928 104.1539136  14.7979992  28.6964990  92.6449997
  14.5169992  29.4054990  92.0669997  15.7409992  28.6234990  92.4939997
  14.8869272  28.7836704  92.5454976 124.6789992  69.8784990  97.4269997
 124.3839992  70.7054990  97.8089997 123.9759992  69.2594990  97.6229997
 124.5435855  69.9079458  97.5057633 114.6859992  66.1754990 109.4859997
 114.9089992  65.7574990 110.3179997 114.0839992  65.5634990 109.0639997
 114.6350802  66.0355216 109.5427561 126.3229992  71.0664990 109.5889997
 125.4219992  71.2494990 109.3209997 126.3569992  71.3254990 110.5099997
 126.2043021  71.1265505 109.6768206 132.0539992  63.3104990  97.9559997
 131.4999992  62.9144990  97.2839997 132.1549992  64.2214990  97.6789997
 131.9917084  63.3793565  97.8264381 130.3489992  72.0964990  98.4209997
 129.9769992  71.2714990  98.7309997 130.6269992  71.9134990  97.5239997
 130.3355997  71.9586160  98.3421551 127.5099992  66.9044990 105.4429997
 126.5819992  66.6734990 105.4159997 127.9609992  66.1274990 105.1129997
 127.4438165  66.7677785 105.3946772 120.0529992  71.2334990 101.5759997
 120.5799992  72.0064990 101.3749997 119.1729992  71.4574990 101.2739997
 120.0061793  71.3696652 101.5076304 115.8079992  66.0954990  96.1629997
 116.4239992  66.7224990  96.5419997 114.9459992  66.4114990  96.4339997
 115.7758195  66.2240810  96.2515369 121.4799992  68.8964990 101.1519997
 121.2389992  69.8214990 101.1939997 120.7399992  68.4374990 101.5479997
 121.3468934  68.9610881 101.2113191 121.9949992  73.0454990 107.4669997
 122.3579992  73.8994990 107.2339997 122.5269992  72.7534990 108.2079997
 122.1165141  73.1228907 107.5352079   5.5499992  25.4814990  93.7179997
   4.7829992  24.9484990  93.5079997   6.2289992  25.1714990  93.1189997
   5.5368292  25.3666360  93.6082693 120.1629992  73.9174990 100.6969997
 119.2139992  74.0234990 100.7489997 120.5149992  74.7384990 101.0419997
 120.0806214  74.0429361 100.7507317 125.5389992  69.1444990 107.1679997
 125.1129992  68.9164990 107.9939997 126.1199992  68.4054990 106.9849997
 125.5591587  69.0134084 107.2564111 127.7419992  70.0734990  96.2419997
 128.0949992  69.6934990  97.0459997 126.7929992  69.9794990  96.3279997
 127.6620985  70.0087330  96.3637738 128.1979992  73.6964990 109.6369997
 127.5959992  73.1404990 109.1419997 128.4789992  74.3634990 109.0109997
 128.1535757  73.7105755 109.4845657 132.2449992  74.5524990  96.4429997
 132.9889992  75.1384990  96.3029997 131.5509992  75.1214990  96.7759997
 132.2529809  74.7095830  96.4688572 116.3199992  60.9294990 109.0439997
 115.4269992  61.2674990 108.9769997 116.2209992  60.0734990 109.4619997
 116.1845241  60.8600941 109.0912982 128.6079992  68.7454990  98.4679997
 128.3309992  68.0174990  99.0239997 129.5349992  68.8644990  98.6739997
 128.6954181  68.6620068  98.5718972 115.9709992  72.7334990 107.4789997
 116.1879992  71.8014990 107.4479997 116.2179992  73.0084990 108.3629997
 116.0340543  72.6430877 107.5941412 121.8329992  71.1854990  94.6889997
 122.0719992  70.4364990  94.1409997 121.5639992  70.7974990  95.5209997
 121.8292804  71.0306524  94.7266352 120.7699992  70.7554990  97.1449997
 120.9169992  70.2354990  97.9349997 120.7669992  71.6624990  97.4509997
 120.7897300  70.8068975  97.2945877   8.2899992  20.1094990  89.7309997
   8.1919992  21.0554990  89.6249997   7.5469992  19.7364990  89.2549997
   8.1762363  20.1885987  89.6522029 117.2229992  68.0074990  97.6549997
 116.5369992  68.3604990  98.2219997 117.7459992  68.7704990  97.4089997
 117.1999033  68.1588757  97.6992644 125.0539992  60.6704990 107.9339997
 125.7529992  60.7444990 108.5839997 124.6739992  59.8054990 108.0889997
 125.0982095  60.5637402 108.0437982 125.8389992  60.3224990  99.0309997
 126.0589992  60.7934990  98.2279997 126.3969992  60.7164990  99.7019997
 125.9445851  60.4403272  99.0116134 123.5079992  72.4524990  97.8939997
 122.6909992  72.9494990  97.9469997 124.0369992  72.9284990  97.2539997
 123.4677898  72.5848123  97.8147274 123.0389992  62.0504990  99.8659997
 123.8509992  62.5544990  99.9119997 122.7939992  61.9054990 100.7799997
 123.1171091  62.0999366  99.9958552 123.5749992  63.0364990 109.0509997
 123.6939992  63.6104990 109.8079997 124.2299992  62.3484990 109.1659997
 123.6798684  63.0220205 109.1701656 123.9229992  59.1314990 100.8039997
 123.5759992  59.7484990 101.4489997 124.5809992  59.6324990 100.3229997
 123.9645290  59.2836384 100.8271635 120.8459992  73.4964990  97.8759997
 121.0069992  74.2964990  97.3749997 120.6489992  73.8034990  98.7609997
 120.8413919  73.6474140  97.9270988 119.5799992  60.1944990  97.4919997
 119.4969992  61.0824990  97.8379997 120.4699992  59.9294990  97.7229997
 119.6889751  60.2802482  97.5706066 129.7789992  60.9434990 109.8859997
 128.8629992  61.2054990 109.7979997 130.1149992  60.9404990 108.9889997
 129.6989789  60.9789637 109.7527829   9.5539992  24.4304990  93.2939997
   9.3179992  24.2114990  94.1959997   8.7709992  24.2234990  92.7849997
   9.4158444  24.3725688  93.3484518 128.3809992  64.6934990 103.9819997
 127.5839992  64.2784990 103.6529997 128.8259992  64.0034990 104.4729997
 128.3320317  64.5433197 104.0033556 117.8389992  70.6214990  96.5519997
 118.4309992  71.3214990  96.8279997 118.2979992  70.1884990  95.8329997
 117.9821172  70.6587371  96.4925163 116.1549992  63.2864990  95.6679997
 116.1099992  64.2254990  95.8469997 115.2669992  63.0504990  95.3979997
 116.0288472  63.3831946  95.6560282 129.4679992  73.9494990 105.6039997
 129.3119992  74.6284990 104.9469997 130.3999992  74.0214990 105.8069997
 129.5727328  74.0521586 105.5415529 116.9629992  58.0674990 104.3409997
 116.7339992  58.1264990 103.4139997 116.5199992  57.2764990 104.6479997
 116.8717387  57.9686413 104.2555223 115.8929992  72.0084990 100.5019997
 115.0609992  72.4804990 100.5289997 116.4389992  72.5184990  99.9029997
 115.8528710  72.1420317 100.4247570 123.8709992  73.0484990  94.8269997
 123.2269992  72.4174990  95.1489997 124.6329992  72.5174990  94.5949997
 123.8858260  72.8903035  94.8397298 128.4749992  72.8654990  95.0609997
 128.7579992  72.0704990  95.5139997 129.2149992  73.0984990  94.4999997
 128.6137295  72.7882349  95.0471469 119.4299992  68.7744990  94.9179997
 119.4939992  67.9804990  95.4489997 120.0829992  68.6564990  94.2289997
 119.5271168  68.6497747  94.8975119 124.7819992  69.8214990  94.6539997
 124.5139992  70.0024990  95.5549997 124.5759992  68.8964990  94.5229997
 124.7174251  69.7211528  94.7596809  12.2699992  23.5584990  92.3699997
  11.3219992  23.5904990  92.5019997  12.5819992  22.9324990  93.0239997
  12.1825293  23.4782934  92.4764130 127.4789992  68.3164990 109.6019997
 128.2239992  68.9054990 109.4819997 126.7209992  68.8984990 109.6649997
 127.4785185  68.4757000 109.5940940 120.5789992  66.7474990  97.2239997
 120.1199992  66.2634990  97.9099997 120.8339992  66.0784990  96.5879997
 120.5506178  66.5908511  97.2319785 119.8679992  64.6404990 109.5799997
 119.2499992  65.3144990 109.8609997 120.2119992  64.9614990 108.7469997
 119.8298181  64.7763233 109.5058266 121.6499992  64.9904990  95.4869997
 121.4699992  64.8354990  94.5589997 122.5999992  65.0984990  95.5309997
 121.7538016  64.9839264  95.3662123 131.0399992  67.3444990  94.9319997
 130.7669992  66.9204990  94.1189997 131.0799992  68.2764990  94.7149997
 131.0080201  67.4123523  94.7913548 120.6199992  60.3644990 108.1549997
 121.1559992  60.8164990 107.5029997 119.7679992  60.2564990 107.7329997
 120.5781648  60.4117883 108.0086395 122.2019992  65.8044990 108.3949997
 122.9529992  65.6484990 107.8219997 121.8629992  66.6564990 108.1189997
 122.2589052  65.8982745 108.2793469 121.4259992  57.8214990 108.5869997
 121.3279992  58.7674990 108.4809997 120.6829992  57.4484990 108.1109997
 121.3122363  57.9005987 108.5082029 121.5479992  75.6804990  96.4879997
 122.4809992  75.8384990  96.6319997 121.2829992  76.3564990  95.8629997
 121.6399846  75.7934567  96.4232930 115.1159992  70.3174990  95.9709997
 116.0299992  70.3964990  96.2439997 115.1229992  69.6304990  95.3039997
 115.2420769  70.2354735  95.9182366  13.9039992  22.1924990  94.3749997
  13.8069992  21.2404990  94.3689997  13.5819992  22.4604990  95.2359997
  13.8472229  22.0984706  94.4905108 113.7649992  75.7104990 101.0479997
 113.1179992  75.2484990 100.5149997 114.1199992  75.0384990 101.6309997
 113.7243861  75.5564707 101.0537939 114.6349992  73.7904990 102.8529997
 114.3009992  72.9104990 103.0249997 114.8569992  74.1364990 103.7169997
 114.6192677  73.7167366 102.9934252 132.1839992  74.6004990 105.8329997
 132.1619992  74.7854990 106.7719997 132.8739992  75.1684990 105.4919997
 132.2743439  74.7026898 105.9154774 131.7469992  74.1674990 108.7549997
 131.2599992  73.4314990 108.3839997 132.2959992  73.7734990 109.4329997
 131.7546101  74.0136267 108.7959034 131.4989992  68.2134990  98.9069997
 132.3489992  68.6344990  99.0349997 131.5039992  67.4734990  99.5149997
 131.6159745  68.1711347  99.0066479 131.8929992  66.2674990 100.7309997
 131.1669992  65.7874990 101.1289997 132.4739992  66.4724990 101.4629997
 131.8722504  66.2295592 100.8844199 131.6519992  69.0524990 105.6789997
 132.4859992  68.6744990 105.3979997 131.7639992  69.9954990 105.5599997
 131.7811917  69.1282954 105.6244844 130.1379992  71.9304990 107.9859997
 129.4909992  72.2554990 108.6109997 129.6209992  71.4894990 107.3109997
 129.9794068  71.9154726 107.9804918 132.1609992  66.1684990  97.1219997
 131.6399992  66.5244990  96.4029997 132.1279992  66.8434990  97.7999997
 132.0851525  66.3085273  97.1151408 130.5099992  63.4074990  95.6729997
 130.6069992  64.0744990  94.9929997 130.3699992  62.5924990  95.1909997
 130.5043428  63.3885667  95.5148311   3.7309992  23.4014990  93.4229997
   3.9419992  22.6954990  92.8119997   3.6189992  22.9644990  94.2669997
   3.7447674  23.2456376  93.4534199 129.6799992  64.7884990 101.2939997
 129.5299992  63.8434990 101.2739997 129.3259992  65.0694990 102.1379997
 129.6116351  64.6971656 101.4053202 114.7149992  66.8664990 105.3039997
 114.8989992  66.7844990 104.3689997 115.5639992  66.7424990 105.7279997
 114.8550259  66.8384915 105.2331771 129.7579992  60.8154990  94.7899997
 130.3679992  60.4444990  95.4269997 128.9209992  60.3944990  94.9859997
 129.7283704  60.7077942  94.9037077 129.3899992  62.3704990  99.7559997
 129.6699992  61.4634990  99.8809997 130.1489992  62.8044990  99.3669997
 129.5309471  62.3050654  99.7205052 130.0019992  62.9524990 105.1919997
 130.9349992  63.1644990 105.1579997 129.7669992  63.0534990 106.1149997
 130.0978357  62.9951303 105.3120232 130.0309992  63.6894990 107.9679997
 129.1879992  63.9574990 108.3339997 130.4739992  64.5114990 107.7569997
 129.9754358  63.8373294 107.9895999 130.0039992  59.6334990  99.8049997
 130.1859992  59.1844990 100.6299997 129.4039992  59.0494990  99.3409997
 129.9478187  59.4930563  99.8552721 115.5339992  60.4494990 104.3359997
 115.9789992  59.6574990 104.6379997 115.9999992  61.1654990 104.7669997
 115.6579059  60.4379485 104.4356061 113.8379992  63.4484990 105.4049997
 114.3299992  63.2274990 104.6149997 114.1999992  64.2884990 105.6859997
 113.9543429  63.5318220 105.3347918 131.8699992  59.7014990  96.3329997
 132.2829992  58.9804990  95.8569997 132.5519992  60.3704990  96.3909997
 132.0185712  59.6934304  96.2758247   8.5119992  19.4034990  92.4019997
   9.2229992  18.7634990  92.3879997   8.4109992  19.6694990  91.4879997
   8.5956732  19.3518451  92.2765475 114.1509992  59.7064990  99.4599997
 113.2259992  59.9144990  99.3299997 114.6049992  60.1904990  98.7699997
 114.0857401  59.8003895  99.3489433 128.9219992  74.6904990 101.4049997
 129.5739992  74.3424990 100.7969997 129.4329992  75.1784990 102.0509997
 129.0802872  74.7088248 101.4090964 114.1149992  58.4444990 107.8039997
 113.4499992  58.1984990 108.4469997 113.6719992  59.0664990 107.2269997
 113.9641168  58.4949225 107.8139830 119.2609992  72.5934990 108.2069997
 118.8359992  73.4034990 107.9239997 120.1649992  72.6794990 107.9049997
 119.3251002  72.7158728 108.1274798 130.8349992  57.8684990 109.4899997
 130.0219992  58.1934990 109.1019997 131.0679992  57.1074990 108.9569997
 130.7552566  57.8101570 109.3649196 116.6629992  75.8504990 108.2539997
 115.9419992  76.2904990 107.8029997 116.2969992  75.5994990 109.1029997
 116.5149785  75.8767691 108.3069849 119.1299992  75.4504990 107.2839997
 118.2649992  75.5224990 107.6879997 119.0749992  75.9974990 106.4999997
 119.0042066  75.5342678 107.2333371 123.8409992  75.3384990 106.4599997
 123.3839992  75.8674990 105.8059997 124.0029992  75.9414990 107.1849997
 123.8003919  75.4923990 106.4685740 126.1679992  74.2164990 107.4049997
 125.2639992  74.3814990 107.1389997 126.5969992  75.0694990 107.3389997
 126.1022017  74.3544184 107.3596495 128.7719992  75.7864990 107.6999997
 128.5909992  76.7024990 107.4889997 128.9489992  75.3754990 106.8529997
 128.7711377  75.8563365 107.5567178   8.8649992  21.0854990  94.4559997
   8.7339992  20.6104990  93.6349997   8.2659992  21.8304990  94.3999997
   8.7661524  21.1211968  94.3361553 116.0779992  74.4734990 105.1649997
 116.0589992  74.0474990 106.0219997 116.8819992  74.1544990 104.7559997
 116.1841393  74.3720297 105.2270155 118.2189992  73.1834990 103.8199997
 117.9999992  72.2664990 103.9889997 119.0429992  73.3234990 104.2859997
 118.3004637  73.0769586 103.9061414 120.7559992  73.6534990 104.6679997
 120.9689992  72.7654990 104.3809997 120.8209992  73.6184990 105.6229997
 120.7939075  73.5273318 104.7577355 124.2649992  59.3174990 103.8129997
 123.5899992  58.6874990 104.0679997 124.8289992  58.8334990 103.2099997
 124.2489558  59.1659283 103.7663451 129.4069992  57.4244990 103.9249997
 130.0109992  57.9724990 103.4239997 128.5379992  57.7434990 103.6849997
 129.3721126  57.5427070 103.8239180 131.1339992  58.5634990 102.2589997
 131.7459992  58.0494990 101.7319997 131.5169992  59.4404990 102.2819997
 131.2693867  58.6117613 102.1900888 116.5909992  57.9514990 101.6349997
 115.8139992  57.7164990 101.1269997 117.1219992  57.1544990 101.6439997
 116.5564443  57.8116721 101.5667200 115.4279992  57.7494990  97.4379997
 115.8669992  58.3604990  96.8469997 114.7939992  58.2874990  97.9119997
 115.4024103  57.9059233  97.4211376 121.1709992  57.8774990 101.4479997
 122.0449992  58.2664990 101.4179997 121.0349992  57.6624990 102.3709997
 121.2723125  57.9017120 101.5686523 126.7269992  57.9074990 103.0969997
 126.8039992  58.0034990 102.1479997 126.4519992  57.0004990 103.2259997
 126.7003407  57.7979188 102.9843532   0.6289992  37.9984990  82.1919997
  -0.0180008  37.5364990  81.6589997   0.9839992  37.3264990  82.7749997
   0.5883861  37.8444707  82.1977939 128.0809992  57.9334990  98.7899997
 127.3779992  58.5484990  98.5799997 127.6359992  57.0964990  98.9209997
 127.9246550  57.9044679  98.7789819 115.3289992  73.6974990  98.3359997
 114.6439992  73.6594990  97.6679997 115.3319992  74.6094990  98.6239997
 115.2357358  73.8156744  98.2836145 117.2889992  59.6654990  95.8809997
 117.7799992  59.0354990  95.3529997 117.9119992  59.9614990  96.5439997
 117.4405459  59.6192419  95.8983667 122.3149992  59.9584990  98.3379997
 122.4929992  59.3114990  99.0209997 122.2609992  60.7924990  98.8049997
 122.3320678  59.9826615  98.4946283 124.1929992  74.9064990  96.7329997
 125.0589992  75.2734990  96.5549997 123.9459992  74.4674990  95.9199997
 124.2782041  74.8973648  96.5985958 130.9019992  74.4694990  99.4129997
 130.7079992  73.7214990  98.8479997 130.8629992  75.2274990  98.8289997
 130.8701907  74.4695770  99.2568077 117.1469992  74.6174990  95.3609997
 116.8789992  74.9034990  96.2339997 117.9179992  74.0714990  95.5129997
 117.2145600  74.5828341  95.5011482 135.8269992  65.9764990 106.6049997
 135.8679992  65.3514990 107.3289997 136.5299992  66.6004990 106.7869997
 135.9276054  65.9753262 106.7286311 136.7509992  70.4264990 105.1399997
 136.3809992  69.6244990 104.7709997 137.6919992  70.2584990 105.1869997
 136.8275630  70.2938680 105.0957873 133.3609992  64.0864990 100.5329997
 132.9129992  64.9324990 100.5149997 132.7999992  63.5074990 100.0179997
 133.2238546  64.1239004 100.4608874   1.4989992  36.0784990  83.9969997
   1.1649992  35.1984990  84.1689997   1.7209992  36.4244990  84.8609997
   1.4832677  36.0047365  84.1374252 134.0709992  66.2484990 102.6589997
 134.2849992  65.4784990 103.1859997 134.8089992  66.3384990 102.0559997
 134.2000073  66.1553546 102.6495786 138.1439992  61.2904990 103.0179997
 138.1869992  62.1504990 102.5999997 137.6859992  60.7374990 102.3849997
 138.0879613  61.3335689 102.8751276 134.7639992  63.6874990 103.7799997
 135.4179992  63.1374990 104.2119997 134.7879992  63.4134990 102.8639997
 134.8567022  63.5752005 103.7151698 136.9539992  60.2084990 107.0919997
 136.7349992  60.7384990 106.3259997 136.2859992  60.4344990 107.7399997
 136.8337271  60.3116508 107.0746206 139.5229992  67.8834990 107.3799997
 138.7829992  68.4824990 107.4829997 140.2369992  68.4374990 107.0639997
 139.5183288  68.0402368 107.3513787 136.5479992  62.1004990 105.0449997
 137.1609992  62.7334990 105.4179997 137.0599992  61.6284990 104.3879997
 136.7011680  62.1234006 105.0072830 137.9299992  69.8484990 108.1669997
 137.9249992  70.7274990 107.7889997 137.0769992  69.7644990 108.5919997
 137.8139199  69.9575901 108.1726942 134.0519992  69.5194990  98.9489997
 133.7799992  69.7484990  98.0599997 134.0969992  70.3564990  99.4089997
 134.0208709  69.6641069  98.8896089 138.2979992  67.1914990 101.8799997
 137.9679992  66.8204990 101.0609997 138.8859992  66.5204990 102.2259997
 138.3324056  67.0501257 101.8149035 138.6649992  65.9594990 105.5129997
 139.2299992  66.0814990 104.7499997 138.9829992  66.5974990 106.1519997
 138.7853430  66.0624448 105.4949094  19.0479992  36.8884990  86.9769997
  19.0259992  37.0734990  87.9159997  19.7379992  37.4564990  86.6359997
  19.1383439  36.9906898  87.0594774 136.4649992  66.5574990 109.4589997
 136.5349992  67.2084990 110.1569997 135.5739992  66.6604990 109.1239997
 136.3541802  66.6604769 109.5092231 137.2879992  66.2604990  99.4689997
 136.9959992  67.0284990  98.9779997 136.6139992  65.6014990  99.3059997
 137.1568843  66.2764537  99.3797695 133.3809992  68.6234990 108.2839997
 132.8799992  68.5954990 107.4689997 133.3869992  67.7184990 108.5939997
 133.3131690  68.4972234 108.2142770 133.1319992  71.4044990 105.1679997
 134.0779992  71.2594990 105.1489997 133.0189992  72.1884990 105.7049997
 133.2463578  71.4906708 105.2380300 136.3759992  74.2054990 101.3129997
 136.5279992  73.8574990 102.1919997 135.5249992  73.8484990 101.0579997
 136.2817899  74.1096749 101.3987322 135.6299992  69.9474990 109.3269997
 135.8459992  69.5854990 110.1869997 134.7749992  69.5724990 109.1169997
 135.5439349  69.8472914 109.4162134 138.2489992  58.4174990 105.3229997
 137.3869992  58.3304990 104.9149997 138.2269992  59.2734990 105.7499997
 138.1280953  58.5213558 105.3249262 138.3399992  63.3824990 106.4179997
 137.6979992  63.3424990 107.1269997 138.3769992  64.3094990 106.1799997
 138.2571659  63.5022540 106.4828463 138.3369992  63.6034990 101.3299997
 137.4439992  63.2634990 101.2709997 138.7879992  63.2264990 100.5739997
 138.2757185  63.5060220 101.2197698 136.0899992  63.7034990 108.2849997
 136.0519992  64.1034990 109.1529997 135.5989992  62.8864990 108.3749997
 136.0184246  63.6478842 108.4161171  18.6109992  36.4554990  89.8989997
  18.1239992  35.7194990  89.5279997  19.1599992  36.0614990  90.5769997
  18.6186101  36.3016267  89.9399034 139.4559992  61.0774990  95.0829997
 139.0249992  60.6324990  95.8129997 138.7379992  61.4484990  94.5709997
 139.2999363  61.0667979  95.1136194 132.6979992  60.8194990 102.1349997
 133.3289992  60.7904990 102.8549997 133.1479992  60.3944990 101.4049997
 132.8450905  60.7580839 102.1347479 133.9719992  61.5654990  97.5589997
 134.4469992  62.1564990  96.9739997 133.2549992  62.0954990  97.9059997
 133.9400406  61.7181011  97.5258495 135.7469992  62.6604990 101.2429997
 134.8579992  62.7594990 100.9029997 136.0429992  61.8184990 100.8969997
 135.6654001  62.5602473 101.1497318 139.3999992  62.6604990  98.8989997
 140.3319992  62.7894990  99.0769997 139.1849992  63.3294990  98.2499997
 139.4984245  62.7686452  98.8355602 138.0739992  63.8544990  96.4659997
 137.5319992  63.4754990  95.7749997 138.9079992  64.0494990  96.0369997
 138.1124283  63.8289383  96.3134298 137.2409992  59.9554990 100.7209997
 136.9229992  59.0524990 100.6859997 138.0219992  59.9574990 100.1689997
 137.3031560  59.8321148 100.6414975 136.5339992  67.7154990 104.1709997
 137.2789992  67.7124990 103.5699997 136.6119992  66.8914990 104.6529997
 136.6464159  67.6037928 104.1539136 133.5419992  66.1754990 109.4859997
 133.7649992  65.7574990 110.3179997 132.9399992  65.5634990 109.0639997
 133.4910802  66.0355216 109.5427561 138.9089992  71.2334990 101.5759997
 139.4359992  72.0064990 101.3749997 138.0289992  71.4574990 101.2739997
 138.8621793  71.3696652 101.5076304  17.0619992  32.2454990  94.5369997
  16.1959992  32.1404990  94.9309997  17.4379992  33.0034990  94.9839997
  16.9943768  32.3336151  94.6513258 134.6639992  66.0954990  96.1629997
 135.2799992  66.7224990  96.5419997 133.8019992  66.4114990  96.4339997
 134.6318195  66.2240810  96.2515369 139.0189992  73.9174990 100.6969997
 138.0699992  74.0234990 100.7489997 139.3709992  74.7384990 101.0419997
 138.9366214  74.0429361 100.7507317 135.1759992  60.9294990 109.0439997
 134.2829992  61.2674990 108.9769997 135.0769992  60.0734990 109.4619997
 135.0405241  60.8600941 109.0912982 134.8269992  72.7334990 107.4789997
 135.0439992  71.8014990 107.4479997 135.0739992  73.0084990 108.3629997
 134.8900543  72.6430877 107.5941412 136.0789992  68.0074990  97.6549997
 135.3929992  68.3604990  98.2219997 136.6019992  68.7704990  97.4089997
 136.0559033  68.1588757  97.6992644 138.4359992  60.1944990  97.4919997
 138.3529992  61.0824990  97.8379997 139.3259992  59.9294990  97.7229997
 138.5449751  60.2802482  97.5706066 136.6949992  70.6214990  96.5519997
 137.2869992  71.3214990  96.8279997 137.1539992  70.1884990  95.8329997
 136.8381172  70.6587371  96.4925163 135.0109992  63.2864990  95.6679997
 134.9659992  64.2254990  95.8469997 134.1229992  63.0504990  95.3979997
 134.8848472  63.3831946  95.6560282 135.8189992  58.0674990 104.3409997
 135.5899992  58.1264990 103.4139997 135.3759992  57.2764990 104.6479997
 135.7277387  57.9686412 104.2555223 134.7489992  72.0084990 100.5019997
 133.9169992  72.4804990 100.5289997 135.2949992  72.5184990  99.9029997
 134.7088710  72.1420317 100.4247570  18.3629992  30.5014990  80.0509997
  19.2129992  30.9224990  80.1789997  18.3679992  29.7614990  80.6589997
  18.4799745  30.4591347  80.1506479 138.2859992  68.7744990  94.9179997
 138.3499992  67.9804990  95.4489997 138.9389992  68.6564990  94.2289997
 138.3831168  68.6497748  94.8975119 139.4349992  66.7474990  97.2239997
 138.9759992  66.2634990  97.9099997 139.6899992  66.0784990  96.5879997
 139.4066178  66.5908511  97.2319785 138.7239992  64.6404990 109.5799997
 138.1059992  65.3144990 109.8609997 139.0679992  64.9614990 108.7469997
 138.6858181  64.7763233 109.5058266 139.4759992  60.3644990 108.1549997
 140.0119992  60.8164990 107.5029997 138.6239992  60.2564990 107.7329997
 139.4341648  60.4117883 108.0086395 133.9719992  70.3174990  95.9709997
 134.8859992  70.3964990  96.2439997 133.9789992  69.6304990  95.3039997
 134.0980769  70.2354735  95.9182366 132.6209992  75.7104990 101.0479997
 131.9739992  75.2484990 100.5149997 132.9759992  75.0384990 101.6309997
 132.5803861  75.5564707 101.0537939 133.4909992  73.7904990 102.8529997
 133.1569992  72.9104990 103.0249997 133.7129992  74.1364990 103.7169997
 133.4752677  73.7167366 102.9934252 133.5709992  66.8664990 105.3039997
 133.7549992  66.7844990 104.3689997 134.4199992  66.7424990 105.7279997
 133.7110259  66.8384915 105.2331771 134.3899992  60.4494990 104.3359997
 134.8349992  59.6574990 104.6379997 134.8559992  61.1654990 104.7669997
 134.5139059  60.4379485 104.4356061 132.6939992  63.4484990 105.4049997
 133.1859992  63.2274990 104.6149997 133.0559992  64.2884990 105.6859997
 132.8103429  63.5318220 105.3347918  18.7569992  28.5554990  81.8749997
  18.0309992  28.0754990  82.2729997  19.3379992  28.7604990  82.6069997
  18.7362504  28.5175592  82.0284199 133.0069992  59.7064990  99.4599997
 132.0819992  59.9144990  99.3299997 133.4609992  60.1904990  98.7699997
 132.9417401  59.8003895  99.3489433 132.9709992  58.4444990 107.8039997
 132.3059992  58.1984990 108.4469997 132.5279992  59.0664990 107.2269997
 132.8201168  58.4949225 107.8139830 138.1169992  72.5934990 108.2069997
 137.6919992  73.4034990 107.9239997 139.0209992  72.6794990 107.9049997
 138.1811002  72.7158728 108.1274797 135.5189992  75.8504990 108.2539997
 134.7979992  76.2904990 107.8029997 135.1529992  75.5994990 109.1029997
 135.3709785  75.8767691 108.3069849 137.9859992  75.4504990 107.2839997
 137.1209992  75.5224990 107.6879997 137.9309992  75.9974990 106.4999997
 137.8602066  75.5342678 107.2333371 134.9339992  74.4734990 105.1649997
 134.9149992  74.0474990 106.0219997 135.7379992  74.1544990 104.7559997
 135.0401393  74.3720297 105.2270155 137.0749992  73.1834990 103.8199997
 136.8559992  72.2664990 103.9889997 137.8989992  73.3234990 104.2859997
 137.1564637  73.0769586 103.9061414 135.4469992  57.9514990 101.6349997
 134.6699992  57.7164990 101.1269997 135.9779992  57.1544990 101.6439997
 135.4124443  57.8116721 101.5667200 134.2839992  57.7494990  97.4379997
 134.7229992  58.3604990  96.8469997 133.6499992  58.2874990  97.9119997
 134.2584103  57.9059233  97.4211376 134.1849992  73.6974990  98.3359997
 133.4999992  73.6594990  97.6679997 134.1879992  74.6094990  98.6239997
 134.0917358  73.8156744  98.2836145  18.5159992  31.3404990  86.8229997
  19.3499992  30.9624990  86.5419997  18.6279992  32.2834990  86.7039997
  18.6451917  31.4162954  86.7684844 136.1449992  59.6654990  95.8809997
 136.6359992  59.0354990  95.3529997 136.7679992  59.9614990  96.5439997
 136.2965459  59.6192419  95.8983667 136.0029992  74.6174990  95.3609997
 135.7349992  74.9034990  96.2339997 136.7739992  74.0714990  95.5129997
 136.0705600  74.5828341  95.5011482  12.5339992  85.9634990 101.5929997
  12.6229992  86.9074990 101.4609997  11.8949992  85.6884990 100.9349997
  12.4598319  86.0554984 101.4860276  11.4669992  85.2184990 105.0119997
  11.4279992  84.5724990 105.7169997  11.1439992  84.7514990 104.2409997
  11.4180199  85.0670089 105.0042865   3.8349992  84.8324990 106.6049997
   3.8759992  84.2074990 107.3289997   4.5379992  85.4564990 106.7869997
   3.9356054  84.8313262 106.7286311  15.1729992  88.1574990 103.3139997
  14.7319992  87.4374990 103.7639997  15.1599992  88.8784990 103.9439997
  15.1108398  88.1563187 103.4607734   4.7589992  89.2824990 105.1399997
   4.3889992  88.4804990 104.7709997   5.6999992  89.1144990 105.1869997
   4.8355630  89.1498680 105.0957873   1.3689992  82.9424990 100.5329997
   0.9209992  83.7884990 100.5149997   0.8079992  82.3634990 100.0179997
   1.2318546  82.9799004 100.4608874   2.0789992  85.1044990 102.6589997
   2.2929992  84.3344990 103.1859997   2.8169992  85.1944990 102.0559997
   2.2080073  85.0113546 102.6495786  12.2839992  93.2614990 103.5259997
  12.9039992  92.5854990 103.2529997  12.0759992  93.0434990 104.4339997
  12.3407360  93.1394792 103.6114387  17.0019992  34.2184990  89.1299997
  16.3549992  34.5434990  89.7549997  16.4849992  33.7774990  88.4549997
  16.8434068  34.2034726  89.1244918   9.8559992  87.6504990 105.4179997
  10.1599992  86.9644990 104.8239997  10.5779992  87.7694990 106.0359997
   9.9951152  87.5727201 105.4202106  18.5189992  79.2524990 106.2789997
  18.5679992  79.8624990 107.0149997  18.9449992  79.7134990 105.5559997
  18.5832851  79.3983266 106.2820532  12.9969992  82.0444990 105.7459997
  13.1389992  81.0984990 105.7659997  12.8909992  82.2514990 104.8169997
  13.0021158  81.9429722 105.6232241   6.1519992  80.1464990 103.0179997
   6.1949992  81.0064990 102.5999997   5.6939992  79.5934990 102.3849997
   6.0959613  80.1895689 102.8751276  13.8739992  80.2774990 101.4189997
  14.5199992  79.9484990 102.0439997  14.3839992  80.7944990 100.7959997
  14.0314392  80.3023710 101.4203248   2.7719992  82.5434990 103.7799997
   3.4259992  81.9934990 104.2119997   2.7959992  82.2694990 102.8639997
   2.8647022  82.4312005 103.7151698   7.9279992  84.0934990 102.9959997
   8.5439992  83.5664990 103.5049997   7.3419992  83.4534990 102.5919997
   7.9330652  83.9348919 103.0110277  18.9109992  80.7304990 108.5149997
  18.2219992  81.3884990 108.4199997  18.9259992  80.5324990 109.4519997
  18.8187756  80.7937614 108.6285795   4.9619992  79.0644990 107.0919997
   4.7429992  79.5944990 106.3259997   4.2939992  79.2904990 107.7399997
   4.8417271  79.1676508 107.0746206  12.3309992  88.5644990 100.6359997
  12.0349992  88.2414990  99.7849997  12.0069992  89.4644990 100.6779997
  12.2466501  88.6419058 100.5250893  19.0249992  28.4564990  78.2659997
  18.5039992  28.8124990  77.5469997  18.9919992  29.1314990  78.9439997
  18.9491525  28.5965273  78.2591408   7.5309992  86.7394990 107.3799997
   6.7909992  87.3384990 107.4829997   8.2449992  87.2934990 107.0639997
   7.5263288  86.8962368 107.3513787  15.6379992  79.5684990 103.3999997
  15.4229992  78.8024990 103.9319997  16.2939992  80.0404990 103.9129997
  15.6972451  79.5274472 103.5421699   4.5559992  80.9564990 105.0449997
   5.1689992  81.5894990 105.4179997   5.0679992  80.4844990 104.3879997
   4.7091680  80.9794006 105.0072830   5.9379992  88.7044990 108.1669997
   5.9329992  89.5834990 107.7889997   5.0849992  88.6204990 108.5919997
   5.8219199  88.8135901 108.1726942   2.0599992  88.3754990  98.9489997
   1.7879992  88.6044990  98.0599997   2.1049992  89.2124990  99.4089997
   2.0288709  88.5201069  98.8896089  15.6849992  89.9964990 105.6619997
  14.7429992  90.0554990 105.8229997  15.9609992  90.9024990 105.5249997
  15.5935771  90.1270270 105.6654827  15.9849992  78.2834990 107.0789997
  15.2489992  78.8934990 107.0409997  16.6689992  78.6984990 106.5529997
  15.9765885  78.4231924 107.0026931   8.9879992  76.3694990 104.5449997
   8.8709992  75.4214990 104.4909997   8.1329992  76.7024990 104.8179997
   8.8563691  76.2845842 104.5745072  13.9369992  91.7774990 102.2869997
  14.3619992  91.0704990 101.8019997  14.2539992  92.5794990 101.8699997
  14.0380266  91.7890201 102.1642461  15.0959992  89.6784990 100.7959997
  14.8389992  88.9884990 100.1839997  15.1669992  89.2354990 101.6409997
  15.0704322  89.5241568 100.8265372  16.5439992  27.0764990  82.4379997
  16.3939992  26.1314990  82.4179997  16.1899992  27.3574990  83.2819997
  16.4756351  26.9851656  82.5493202  16.7819992  88.2454990 109.2729997
  16.9219992  87.6534990 108.5339997  16.9499992  89.1184990 108.9169997
  16.8238734  88.2824041 109.1236937  11.2549992  85.2074990  99.0449997
  10.5429992  85.7424990  98.6939997  11.9459992  85.2624990  98.3849997
  11.2508696  85.2882591  98.9076372  11.3089992  83.6644990  96.0839997
  12.0099992  83.6874990  96.7349997  11.6109992  83.0364990  95.4279997
  11.4458282  83.5827350  96.0844478  18.6239992  84.5854990 107.3389997
  17.9719992  85.2794990 107.4279997  19.0889992  84.7954990 106.5289997
  18.5975357  84.7089544 107.2417056  14.6609992  85.4164990  99.9969997
  13.9289992  85.6454990 100.5699997  15.1079992  84.7034990 100.4519997
  14.6212753  85.3513984 100.1369698  14.5579992  83.5914990 109.0649997
  14.6379992  84.3544990 109.6369997  13.9569992  83.8704990 108.3739997
  14.4877115  83.7337707 109.0499631   6.3059992  86.0474990 101.8799997
   5.9759992  85.6764990 101.0609997   6.8939992  85.3764990 102.2259997
   6.3404056  85.9061257 101.8149035   7.6729992  89.4754990 104.5609997
   7.5779992  88.8964990 103.8039997   8.4019992  89.1044990 105.0569997
   7.7586161  89.3460902 104.5245192   6.6729992  84.8154990 105.5129997
   7.2379992  84.9374990 104.7499997   6.9909992  85.4534990 106.1519997
   6.7933430  84.9184448 105.4949094  12.9819992  90.3194990 106.2469997
  12.7409992  90.9814990 106.8949997  12.7839992  89.4844990 106.6719997
  12.9222662  90.2972704 106.3931008   1.5789992  29.1544990  86.4479997
   1.7629992  29.0724990  85.5129997   2.4279992  29.0304990  86.8719997
   1.7190259  29.1264915  86.3771771  13.5319992  84.5794990  97.6819997
  14.1109992  84.7294990  98.4289997  13.9459992  85.0494990  96.9589997
  13.6673122  84.6636288  97.6865024   4.4729992  85.4134990 109.4589997
   4.5429992  86.0644990 110.1569997   3.5819992  85.5164990 109.1239997
   4.3621802  85.5164769 109.5092231  11.2579992  91.3154990 101.1179997
  11.7319992  91.6114990 101.8949997  10.6949992  92.0544990 100.8839997
  11.2468460  91.4558336 101.1927626  17.2299992  76.3294990  97.4949997
  16.3299992  76.4674990  97.7899997  17.4819992  77.1604990  97.0929997
  17.1407355  76.4608200  97.4810539   5.2959992  85.1164990  99.4689997
   5.0039992  85.8844990  98.9779997   4.6219992  84.4574990  99.3059997
   5.1648843  85.1324537  99.3797695  18.4199992  90.6954990  95.8719997
  18.4929992  91.6344990  96.0419997  19.3249992  90.3904990  95.8149997
  18.5524168  90.7828531  95.8875736   1.3889992  87.4794990 108.2839997
   0.8879992  87.4514990 107.4689997   1.3949992  86.5744990 108.5939997
   1.3211690  87.3532234 108.2142770   1.1399992  90.2604990 105.1679997
   2.0859992  90.1154990 105.1489997   1.0269992  91.0444990 105.7049997
   1.2543578  90.3466708 105.2380300  10.3159992  90.5004990 109.7259997
  10.4029992  91.3264990 110.2009997   9.4519992  90.1704990 109.9749997
  10.2111944  90.5689871 109.8246558  10.7299992  94.2724990  99.5319997
  10.6549992  94.1514990  98.5859997  10.7629992  95.2214990  99.6509997
  10.7241862  94.3842492  99.4184840  17.3999992  29.0464990  92.0769997
  17.9829992  28.3114990  92.2679997  17.9639992  29.8184990  92.1229997
  17.5560326  29.0502746  92.1093579   4.3839992  93.0614990 101.3129997
   4.5359992  92.7134990 102.1919997   3.5329992  92.7044990 101.0579997
   4.2897899  92.9656749 101.3987322  13.8319992  93.4264990  96.5349997
  14.2069992  92.6824990  96.0639997  13.8359992  93.1564990  97.4529997
  13.8838969  93.2880920  96.5946475  13.5009992  93.3524990  99.2839997
  12.5659992  93.4524990  99.4629997  13.7809992  92.6424990  99.8619997
  13.4109270  93.2702300  99.3865984   3.6379992  88.8034990 109.3269997
   3.8539992  88.4414990 110.1869997   2.7829992  88.4284990 109.1169997
   3.5519349  88.7032914 109.4162134   6.2569992  77.2734990 105.3229997
   5.3949992  77.1864990 104.9149997   6.2349992  78.1294990 105.7499997
   6.1360953  77.3773558 105.3249262  10.9199992  76.9954990 108.6969997
  11.3399992  76.5804990 109.4499997   9.9869992  76.8164990 108.8139997
  10.8513736  76.9144921 108.8158950  14.2459992  80.7504990 109.5509997
  13.7319992  80.6254990 110.3479997  14.0909992  81.6634990 109.3059997
  14.1546643  80.8567068 109.6270624  15.0089992  85.6114990  95.3119997
  15.0509992  85.3894990  94.3819997  15.8579992  86.0104990  95.5019997
  15.1295253  85.6350510  95.2103804  10.5819992  79.4874990  95.9819997
  10.3279992  79.5064990  96.9049997  10.3249992  78.6164990  95.6809997
  10.5125133  79.3723121  96.0675065   6.3479992  82.2384990 106.4179997
   5.7059992  82.1984990 107.1269997   6.3849992  83.1654990 106.1799997
   6.2651659  82.3582540 106.4828463  18.8969992  26.9494990  92.7609997
  18.0329992  26.5704990  92.5959997  19.5009992  26.2104990  92.6869997
  18.8604912  26.7977937  92.7284360   6.3449992  82.4594990 101.3299997
   5.4519992  82.1194990 101.2709997   6.7959992  82.0824990 100.5739997
   6.2837185  82.3620220 101.2197698  11.8809992  82.8754990 100.1469997
  11.4719992  83.6904990  99.8549997  12.6009992  82.7354990  99.5319997
  11.9223946  82.9679963 100.0239616  12.8849992  82.3214990 102.9609997
  12.6899992  82.9274990 102.2459997  13.0669992  81.4884990 102.5259997
  12.8829272  82.2917955 102.8044075   4.0979992  82.5594990 108.2849997
   4.0599992  82.9594990 109.1529997   3.6069992  81.7424990 108.3749997
   4.0264246  82.5038842 108.4161171   7.4639992  79.9334990  95.0829997
   7.0329992  79.4884990  95.8129997   6.7459992  80.3044990  94.5709997
   7.3079363  79.9227979  95.1136194   0.7059992  79.6754990 102.1349997
   1.3369992  79.6464990 102.8549997   1.1559992  79.2504990 101.4049997
   0.8530905  79.6140839 102.1347479   1.9799992  80.4214990  97.5589997
   2.4549992  81.0124990  96.9739997   1.2629992  80.9514990  97.9059997
   1.9480406  80.5741011  97.5258495  12.1489992  83.9594990 107.6319997
  12.4729992  83.3284990 106.9889997  11.7089992  83.4254990 108.2929997
  12.1338707  83.8008261 107.6333195   8.9269992  79.8874990 102.4159997
   8.0159992  79.9444990 102.7049997   9.4319992  79.8274990 103.2269997
   8.8706873  79.8871838 102.5651190   3.7549992  81.5164990 101.2429997
   2.8659992  81.6154990 100.9029997   4.0509992  80.6744990 100.8969997
   3.6734001  81.4162473 101.1497318  16.2539992  24.6584990  80.8999997
  16.5339992  23.7514990  81.0249997  17.0129992  25.0924990  80.5109997
  16.3949471  24.5930654  80.8645052   7.4079992  81.5164990  98.8989997
   8.3399992  81.6454990  99.0769997   7.1929992  82.1854990  98.2499997
   7.5064245  81.6246452  98.8355602  13.3319992  79.1224990 105.6799997
  12.6549992  79.2534990 106.3439997  12.8459992  78.9674990 104.8699997
  13.1737265  79.1194665 105.6613380   6.0819992  82.7104990  96.4659997
   5.5399992  82.3314990  95.7749997   6.9159992  82.9054990  96.0369997
   6.1204283  82.6849383  96.3134298  10.2469992  82.6744990 104.3029997
  10.8109992  82.1284990 103.7559997  10.0989992  82.1534990 105.0919997
  10.3043037  82.5291798 104.3347212   5.2489992  78.8114990 100.7209997
   4.9309992  77.9084990 100.6859997   6.0299992  78.8134990 100.1689997
   5.3111560  78.6881148 100.6414975   8.8729992  81.0634990 106.7169997
   8.0379992  81.5174990 106.8269997   9.3969992  81.3394990 107.4689997
   8.8295070  81.1629677 106.8337134   9.4169992  87.2764990  98.4019997
   8.6719992  86.7684990  98.0789997   9.2829992  87.3254990  99.3479997
   9.2968633  87.2135714  98.4857563  16.5669992  86.4094990 107.1879997
  17.2089992  86.8654990 106.6449997  15.7369992  86.5224990 106.7259997
  16.5427352  86.4873223 107.0510234  13.3149992  80.0904990  96.6009997
  12.3759992  80.2014990  96.4499997  13.6119992  80.9464990  96.9069997
  13.2266371  80.2215327  96.6217362  10.9369992  87.4604990 109.6389997
  10.5909992  87.0784990 110.4449997  10.7369992  88.3934990 109.7099997
  10.8625400  87.5343489 109.7590401  16.8659992  25.2404990  86.3359997
  17.7989992  25.4524990  86.3019997  16.6309992  25.3414990  87.2589997
  16.9618357  25.2831303  86.4560232  14.0329992  81.9574990  98.2619997
  14.9249992  81.8194990  98.5809997  14.0899992  82.7484990  97.7249997
  14.1627380  82.0454777  98.2330981   4.5419992  86.5714990 104.1709997
   5.2869992  86.5684990 103.5699997   4.6199992  85.7474990 104.6529997
   4.6544159  86.4597928 104.1539136  11.5429992  88.7344990  97.4269997
  11.2479992  89.5614990  97.8089997  10.8399992  88.1154990  97.6229997
  11.4075855  88.7639458  97.5057634   1.5499992  85.0314990 109.4859997
   1.7729992  84.6134990 110.3179997   0.9479992  84.4194990 109.0639997
   1.4990802  84.8915216 109.5427561  13.1869992  89.9224990 109.5889997
  12.2859992  90.1054990 109.3209997  13.2209992  90.1814990 110.5099997
  13.0683021  89.9825505 109.6768206  18.9179992  82.1664990  97.9559997
  18.3639992  81.7704990  97.2839997  19.0189992  83.0774990  97.6789997
  18.8557084  82.2353565  97.8264381  17.2129992  90.9524990  98.4209997
  16.8409992  90.1274990  98.7309997  17.4909992  90.7694990  97.5239997
  17.1995997  90.8146160  98.3421551  14.3739992  85.7604990 105.4429997
  13.4459992  85.5294990 105.4159997  14.8249992  84.9834990 105.1129997
  14.3078165  85.6237785 105.3946772   6.9169992  90.0894990 101.5759997
   7.4439992  90.8624990 101.3749997   6.0369992  90.3134990 101.2739997
   6.8701793  90.2256652 101.5076304   2.6719992  84.9514990  96.1629997
   3.2879992  85.5784990  96.5419997   1.8099992  85.2674990  96.4339997
   2.6398195  85.0800810  96.2515369  16.8949992  25.9774990  89.1119997
  16.0519992  26.2454990  89.4779997  17.3379992  26.7994990  88.9009997
  16.8394358  26.1253294  89.1335999   8.3439992  87.7524990 101.1519997
   8.1029992  88.6774990 101.1939997   7.6039992  87.2934990 101.5479997
   8.2108934  87.8170881 101.2113191   8.8589992  91.9014990 107.4669997
   9.2219992  92.7554990 107.2339997   9.3909992  91.6094990 108.2079997
   8.9805141  91.9788907 107.5352079   7.0269992  92.7734990 100.6969997
   6.0779992  92.8794990 100.7489997   7.3789992  93.5944990 101.0419997
   6.9446214  92.8989361 100.7507317  12.4029992  88.0004990 107.1679997
  11.9769992  87.7724990 107.9939997  12.9839992  87.2614990 106.9849997
  12.4231587  87.8694084 107.2564111  14.6059992  88.9294990  96.2419997
  14.9589992  88.5494990  97.0459997  13.6569992  88.8354990  96.3279997
  14.5260985  88.8647330  96.3637738  15.0619992  92.5524990 109.6369997
  14.4599992  91.9964990 109.1419997  15.3429992  93.2194990 109.0109997
  15.0175757  92.5665755 109.4845657  19.1089992  93.4084990  96.4429997
  19.8529992  93.9944990  96.3029997  18.4149992  93.9774990  96.7759997
  19.1169809  93.5655830  96.4688572   3.1839992  79.7854990 109.0439997
   2.2909992  80.1234990 108.9769997   3.0849992  78.9294990 109.4619997
   3.0485241  79.7160941 109.0912982  15.4719992  87.6014990  98.4679997
  15.1949992  86.8734990  99.0239997  16.3989992  87.7204990  98.6739997
  15.5594181  87.5180068  98.5718972   2.8349992  91.5894990 107.4789997
   3.0519992  90.6574990 107.4479997   3.0819992  91.8644990 108.3629997
   2.8980543  91.4990877 107.5941412   1.1759992  24.4244990  92.5889997
   2.0959992  24.3024990  92.8249997   0.7269992  23.6744990  92.9779997
   1.2411561  24.3063720  92.6739015   8.6969992  90.0414990  94.6889997
   8.9359992  89.2924990  94.1409997   8.4279992  89.6534990  95.5209997
   8.6932804  89.8866524  94.7266352   7.6339992  89.6114990  97.1449997
   7.7809992  89.0914990  97.9349997   7.6309992  90.5184990  97.4509997
   7.6537300  89.6628975  97.2945877   4.0869992  86.8634990  97.6549997
   3.4009992  87.2164990  98.2219997   4.6099992  87.6264990  97.4089997
   4.0639033  87.0148757  97.6992644  11.9179992  79.5264990 107.9339997
  12.6169992  79.6004990 108.5839997  11.5379992  78.6614990 108.0889997
  11.9622095  79.4197402 108.0437982  12.7029992  79.1784990  99.0309997
  12.9229992  79.6494990  98.2279997  13.2609992  79.5724990  99.7019997
  12.8085851  79.2963272  99.0116134  10.3719992  91.3084990  97.8939997
   9.5549992  91.8054990  97.9469997  10.9009992  91.7844990  97.2539997
  10.3317898  91.4408123  97.8147274   9.9029992  80.9064990  99.8659997
  10.7149992  81.4104990  99.9119997   9.6579992  80.7614990 100.7799997
   9.9811091  80.9559366  99.9958552  10.4389992  81.8924990 109.0509997
  10.5579992  82.4664990 109.8079997  11.0939992  81.2044990 109.1659997
  10.5438684  81.8780205 109.1701656  10.7869992  77.9874990 100.8039997
  10.4399992  78.6044990 101.4489997  11.4449992  78.4884990 100.3229997
  10.8285290  78.1396384 100.8271635   7.7099992  92.3524990  97.8759997
   7.8709992  93.1524990  97.3749997   7.5129992  92.6594990  98.7609997
   7.7053919  92.5034140  97.9270988  19.1779992  19.9574990  94.4659997
  19.5279992  19.3034990  93.8599997  19.3249992  20.7944990  94.0259997
  19.2457192  19.9812545  94.3236712   6.4439992  79.0504990  97.4919997
   6.3609992  79.9384990  97.8379997   7.3339992  78.7854990  97.7229997
   6.5529751  79.1362482  97.5706066  16.6429992  79.7994990 109.8859997
  15.7269992  80.0614990 109.7979997  16.9789992  79.7964990 108.9889997
  16.5629789  79.8349637 109.7527829  15.2449992  83.5494990 103.9819997
  14.4479992  83.1344990 103.6529997  15.6899992  82.8594990 104.4729997
  15.1960317  83.3993197 104.0033556   4.7029992  89.4774990  96.5519997
   5.2949992  90.1774990  96.8279997   5.1619992  89.0444990  95.8329997
   4.8461172  89.5147371  96.4925163   3.0189992  82.1424990  95.6679997
   2.9739992  83.0814990  95.8469997   2.1309992  81.9064990  95.3979997
   2.8928472  82.2391946  95.6560282  16.3319992  92.8054990 105.6039997
  16.1759992  93.4844990 104.9469997  17.2639992  92.8774990 105.8069997
  16.4367328  92.9081586 105.5415529   3.8269992  76.9234990 104.3409997
   3.5979992  76.9824990 103.4139997   3.3839992  76.1324990 104.6479997
   3.7357387  76.8246412 104.2555223   2.7569992  90.8644990 100.5019997
   1.9249992  91.3364990 100.5289997   3.3029992  91.3744990  99.9029997
   2.7168710  90.9980317 100.4247570  10.7349992  91.9044990  94.8269997
  10.0909992  91.2734990  95.1489997  11.4969992  91.3734990  94.5949997
  10.7498260  91.7463035  94.8397298  15.3389992  91.7214990  95.0609997
  15.6219992  90.9264990  95.5139997  16.0789992  91.9544990  94.4999997
  15.4777295  91.6442349  95.0471469  16.8679992  21.9214990  80.9489997
  17.0499992  21.4724990  81.7739997  16.2679992  21.3374990  80.4849997
  16.8118187  21.7810563  80.9992721   6.2939992  87.6304990  94.9179997
   6.3579992  86.8364990  95.4489997   6.9469992  87.5124990  94.2289997
   6.3911168  87.5057748  94.8975119  11.6459992  88.6774990  94.6539997
  11.3779992  88.8584990  95.5549997  11.4399992  87.7524990  94.5229997
  11.5814251  88.5771528  94.7596809  14.3429992  87.1724990 109.6019997
  15.0879992  87.7614990 109.4819997  13.5849992  87.7544990 109.6649997
  14.3425185  87.3317000 109.5940940   7.4429992  85.6034990  97.2239997
   6.9839992  85.1194990  97.9099997   7.6979992  84.9344990  96.5879997
   7.4146178  85.4468511  97.2319785   6.7319992  83.4964990 109.5799997
   6.1139992  84.1704990 109.8609997   7.0759992  83.8174990 108.7469997
   6.6938181  83.6323233 109.5058266   8.5139992  83.8464990  95.4869997
   8.3339992  83.6914990  94.5589997   9.4639992  83.9544990  95.5309997
   8.6178016  83.8399264  95.3662123  17.9039992  86.2004990  94.9319997
  17.6309992  85.7764990  94.1189997  17.9439992  87.1324990  94.7149997
  17.8720201  86.2683523  94.7913548   7.4839992  79.2204990 108.1549997
   8.0199992  79.6724990 107.5029997   6.6319992  79.1124990 107.7329997
   7.4421648  79.2677883 108.0086395   9.0659992  84.6604990 108.3949997
   9.8169992  84.5044990 107.8219997   8.7269992  85.5124990 108.1189997
   9.1229052  84.7542745 108.2793469   8.2899992  76.6774990 108.5869997
   8.1919992  77.6234990 108.4809997   7.5469992  76.3044990 108.1109997
   8.1762363  76.7565987 108.5082029   2.3979992  22.7374990  85.4799997
   2.8429992  21.9454990  85.7819997   2.8639992  23.4534990  85.9109997
   2.5219059  22.7259485  85.5796061   8.4119992  94.5364990  96.4879997
   9.3449992  94.6944990  96.6319997   8.1469992  95.2124990  95.8629997
   8.5039846  94.6494567  96.4232930   1.9799992  89.1734990  95.9709997
   2.8939992  89.2524990  96.2439997   1.9869992  88.4864990  95.3039997
   2.1060769  89.0914735  95.9182366   0.6289992  94.5664990 101.0479997
  -0.0180008  94.1044990 100.5149997   0.9839992  93.8944990 101.6309997
   0.5883861  94.4124707 101.0537939   1.4989992  92.6464990 102.8529997
   1.1649992  91.7664990 103.0249997   1.7209992  92.9924990 103.7169997
   1.4832677  92.5727365 102.9934252  19.0479992  93.4564990 105.8329997
  19.0259992  93.6414990 106.7719997  19.7379992  94.0244990 105.4919997
  19.1383439  93.5586898 105.9154774  18.6109992  93.0234990 108.7549997
  18.1239992  92.2874990 108.3839997  19.1599992  92.6294990 109.4329997
  18.6186101  92.8696267 108.7959034  18.3629992  87.0694990  98.9069997
  19.2129992  87.4904990  99.0349997  18.3679992  86.3294990  99.5149997
  18.4799745  87.0271347  99.0066479  18.7569992  85.1234990 100.7309997
  18.0309992  84.6434990 101.1289997  19.3379992  85.3284990 101.4629997
  18.7362504  85.0855592 100.8844199  18.5159992  87.9084990 105.6789997
  19.3499992  87.5304990 105.3979997  18.6279992  88.8514990 105.5599997
  18.6451917  87.9842954 105.6244844  17.0019992  90.7864990 107.9859997
  16.3549992  91.1114990 108.6109997  16.4849992  90.3454990 107.3109997
  16.8434068  90.7714726 107.9804918   0.7019992  25.7364990  86.5489997
   1.1939992  25.5154990  85.7589997   1.0639992  26.5764990  86.8299997
   0.8183429  25.8198220  86.4787918  19.0249992  85.0244990  97.1219997
  18.5039992  85.3804990  96.4029997  18.9919992  85.6994990  97.7999997
  18.9491525  85.1645273  97.1151408  17.3739992  82.2634990  95.6729997
  17.4709992  82.9304990  94.9929997  17.2339992  81.4484990  95.1909997
  17.3683428  82.2445667  95.5148311  16.5439992  83.6444990 101.2939997
  16.3939992  82.6994990 101.2739997  16.1899992  83.9254990 102.1379997
  16.4756351  83.5531656 101.4053202   1.5789992  85.7224990 105.3039997
   1.7629992  85.6404990 104.3689997   2.4279992  85.5984990 105.7279997
   1.7190259  85.6944915 105.2331771  16.6219992  79.6714990  94.7899997
  17.2319992  79.3004990  95.4269997  15.7849992  79.2504990  94.9859997
  16.5923704  79.5637942  94.9037077  16.2539992  81.2264990  99.7559997
  16.5339992  80.3194990  99.8809997  17.0129992  81.6604990  99.3669997
  16.3949471  81.1610654  99.7205052  16.8659992  81.8084990 105.1919997
  17.7989992  82.0204990 105.1579997  16.6309992  81.9094990 106.1149997
  16.9618357  81.8511303 105.3120232  16.8949992  82.5454990 107.9679997
  16.0519992  82.8134990 108.3339997  17.3379992  83.3674990 107.7569997
  16.8394358  82.6933294 107.9895999  16.8679992  78.4894990  99.8049997
  17.0499992  78.0404990 100.6299997  16.2679992  77.9054990  99.3409997
  16.8118187  78.3490563  99.8552721   2.3979992  79.3054990 104.3359997
   2.8429992  78.5134990 104.6379997   2.8639992  80.0214990 104.7669997
   2.5219059  79.2939485 104.4356061  18.6979992  22.0664990  92.8149997
  17.7809992  22.3374990  92.7789997  18.8209992  21.5314990  92.0309997
  18.5890828  22.0312711  92.7040767   0.7019992  82.3044990 105.4049997
   1.1939992  82.0834990 104.6149997   1.0639992  83.1444990 105.6859997
   0.8183429  82.3878220 105.3347918  18.7339992  78.5574990  96.3329997
  19.1469992  77.8364990  95.8569997  19.4159992  79.2264990  96.3909997
  18.8825712  78.5494304  96.2758247   1.0149992  78.5624990  99.4599997
   0.0899992  78.7704990  99.3299997   1.4689992  79.0464990  98.7699997
   0.9497401  78.6563895  99.3489433  15.7859992  93.5464990 101.4049997
  16.4379992  93.1984990 100.7969997  16.2969992  94.0344990 102.0509997
  15.9442872  93.5648248 101.4090964   0.9789992  77.3004990 107.8039997
   0.3139992  77.0544990 108.4469997   0.5359992  77.9224990 107.2269997
   0.8281168  77.3509225 107.8139830   6.1249992  91.4494990 108.2069997
   5.6999992  92.2594990 107.9239997   7.0289992  91.5354990 107.9049997
   6.1891002  91.5718728 108.1274798  17.6989992  76.7244990 109.4899997
  16.8859992  77.0494990 109.1019997  17.9319992  75.9634990 108.9569997
  17.6192566  76.6661570 109.3649196   3.5269992  94.7064990 108.2539997
   2.8059992  95.1464990 107.8029997   3.1609992  94.4554990 109.1029997
   3.3789785  94.7327691 108.3069849   5.9939992  94.3064990 107.2839997
   5.1289992  94.3784990 107.6879997   5.9389992  94.8534990 106.4999997
   5.8682066  94.3902678 107.2333371  10.7049992  94.1944990 106.4599997
  10.2479992  94.7234990 105.8059997  10.8669992  94.7974990 107.1849997
  10.6643919  94.3483990 106.4685740   1.0149992  21.9944990  80.6039997
   0.0899992  22.2024990  80.4739997   1.4689992  22.4784990  79.9139997
   0.9497401  22.0883895  80.4929433  13.0319992  93.0724990 107.4049997
  12.1279992  93.2374990 107.1389997  13.4609992  93.9254990 107.3389997
  12.9662017  93.2104184 107.3596495  15.6359992  94.6424990 107.6999997
  15.4549992  95.5584990 107.4889997  15.8129992  94.2314990 106.8529997
  15.6351377  94.7123365 107.5567178   2.9419992  93.3294990 105.1649997
   2.9229992  92.9034990 106.0219997   3.7459992  93.0104990 104.7559997
   3.0481393  93.2280297 105.2270155   5.0829992  92.0394990 103.8199997
   4.8639992  91.1224990 103.9889997   5.9069992  92.1794990 104.2859997
   5.1644637  91.9329586 103.9061414   7.6199992  92.5094990 104.6679997
   7.8329992  91.6214990 104.3809997   7.6849992  92.4744990 105.6229997
   7.6579075  92.3833318 104.7577355  11.1289992  78.1734990 103.8129997
  10.4539992  77.5434990 104.0679997  11.6929992  77.6894990 103.2099997
  11.1129558  78.0219283 103.7663451  16.2709992  76.2804990 103.9249997
  16.8749992  76.8284990 103.4239997  15.4019992  76.5994990 103.6849997
  16.2361126  76.3987070 103.8239180  17.9979992  77.4194990 102.2589997
  18.6099992  76.9054990 101.7319997  18.3809992  78.2964990 102.2819997
  18.1333867  77.4677613 102.1900888   3.4549992  76.8074990 101.6349997
   2.6779992  76.5724990 101.1269997   3.9859992  76.0104990 101.6439997
   3.4204443  76.6676721 101.5667200   2.2919992  76.6054990  97.4379997
   2.7309992  77.2164990  96.8469997   1.6579992  77.1434990  97.9119997
   2.2664104  76.7619233  97.4211376  15.7859992  36.9784990  82.5489997
  16.4379992  36.6304990  81.9409997  16.2969992  37.4664990  83.1949997
  15.9442872  36.9968248  82.5530964   8.0349992  76.7334990 101.4479997
   8.9089992  77.1224990 101.4179997   7.8989992  76.5184990 102.3709997
   8.1363125  76.7577120 101.5686523  13.5909992  76.7634990 103.0969997
  13.6679992  76.8594990 102.1479997  13.3159992  75.8564990 103.2259997
  13.5643407  76.6539188 102.9843532  14.9449992  76.7894990  98.7899997
  14.2419992  77.4044990  98.5799997  14.4999992  75.9524990  98.9209997
  14.7886550  76.7604679  98.7789819   2.1929992  92.5534990  98.3359997
   1.5079992  92.5154990  97.6679997   2.1959992  93.4654990  98.6239997
   2.0997358  92.6716744  98.2836145   4.1529992  78.5214990  95.8809997
   4.6439992  77.8914990  95.3529997   4.7759992  78.8174990  96.5439997
   4.3045459  78.4752419  95.8983667   9.1789992  78.8144990  98.3379997
   9.3569992  78.1674990  99.0209997   9.1249992  79.6484990  98.8049997
   9.1960678  78.8386615  98.4946283  11.0569992  93.7624990  96.7329997
  11.9229992  94.1294990  96.5549997  10.8099992  93.3234990  95.9199997
  11.1422041  93.7533648  96.5985958  17.7659992  93.3254990  99.4129997
  17.5719992  92.5774990  98.8479997  17.7269992  94.0834990  98.8289997
  17.7341907  93.3255770  99.2568077   4.0109992  93.4734990  95.3609997
   3.7429992  93.7594990  96.2339997   4.7819992  92.9274990  95.5129997
   4.0785600  93.4388341  95.5011482  31.3899992  85.9634990 101.5929997
  31.4789992  86.9074990 101.4609997  30.7509992  85.6884990 100.9349997
  31.3158319  86.0554984 101.4860276   0.9789992  20.7324990  88.9479997
   0.3139992  20.4864990  89.5909997   0.5359992  21.3544990  88.3709997
   0.8281168  20.7829225  88.9579830  30.3229992  85.2184990 105.0119997
  30.2839992  84.5724990 105.7169997  29.9999992  84.7514990 104.2409997
  30.2740199  85.0670089 105.0042865  22.6909992  84.8324990 106.6049997
  22.7319992  84.2074990 107.3289997  23.3939992  85.4564990 106.7869997
  22.7916054  84.8313262 106.7286311  34.0289992  88.1574990 103.3139997
  33.5879992  87.4374990 103.7639997  34.0159992  88.8784990 103.9439997
  33.9668398  88.1563187 103.4607734  23.6149992  89.2824990 105.1399997
  23.2449992  88.4804990 104.7709997  24.5559992  89.1144990 105.1869997
  23.6915630  89.1498680 105.0957873  20.2249992  82.9424990 100.5329997
  19.7769992  83.7884990 100.5149997  19.6639992  82.3634990 100.0179997
  20.0878546  82.9799004 100.4608874  20.9349992  85.1044990 102.6589997
  21.1489992  84.3344990 103.1859997  21.6729992  85.1944990 102.0559997
  21.0640073  85.0113546 102.6495786  31.1399992  93.2614990 103.5259997
  31.7599992  92.5854990 103.2529997  30.9319992  93.0434990 104.4339997
  31.1967360  93.1394792 103.6114387  28.7119992  87.6504990 105.4179997
  29.0159992  86.9644990 104.8239997  29.4339992  87.7694990 106.0359997
  28.8511152  87.5727201 105.4202106  37.3749992  79.2524990 106.2789997
  37.4239992  79.8624990 107.0149997  37.8009992  79.7134990 105.5559997
  37.4392851  79.3983266 106.2820532  31.8529992  82.0444990 105.7459997
  31.9949992  81.0984990 105.7659997  31.7469992  82.2514990 104.8169997
  31.8581158  81.9429722 105.6232241   3.1709992  33.9074990  93.0919997
   2.3499992  34.0824990  92.6319997   2.9189992  33.8344990  94.0129997
   3.0246173  33.9215806  93.1534954  25.0079992  80.1464990 103.0179997
  25.0509992  81.0064990 102.5999997  24.5499992  79.5934990 102.3849997
  24.9519613  80.1895689 102.8751276  32.7299992  80.2774990 101.4189997
  33.3759992  79.9484990 102.0439997  33.2399992  80.7944990 100.7959997
  32.8874392  80.3023710 101.4203248  21.6279992  82.5434990 103.7799997
  22.2819992  81.9934990 104.2119997  21.6519992  82.2694990 102.8639997
  21.7207022  82.4312005 103.7151698  26.7839992  84.0934990 102.9959997
  27.3999992  83.5664990 103.5049997  26.1979992  83.4534990 102.5919997
  26.7890652  83.9348919 103.0110277  37.7669992  80.7304990 108.5149997
  37.0779992  81.3884990 108.4199997  37.7819992  80.5324990 109.4519997
  37.6747756  80.7937614 108.6285795  23.8179992  79.0644990 107.0919997
  23.5989992  79.5944990 106.3259997  23.1499992  79.2904990 107.7399997
  23.6977271  79.1676508 107.0746206  31.1869992  88.5644990 100.6359997
  30.8909992  88.2414990  99.7849997  30.8629992  89.4644990 100.6779997
  31.1026501  88.6419058 100.5250893  26.3869992  86.7394990 107.3799997
  25.6469992  87.3384990 107.4829997  27.1009992  87.2934990 107.0639997
  26.3823288  86.8962368 107.3513787  34.4939992  79.5684990 103.3999997
  34.2789992  78.8024990 103.9319997  35.1499992  80.0404990 103.9129997
  34.5532451  79.5274472 103.5421699  23.4119992  80.9564990 105.0449997
  24.0249992  81.5894990 105.4179997  23.9239992  80.4844990 104.3879997
  23.5651680  80.9794006 105.0072830   6.1249992  34.8814990  89.3509997
   5.6999992  35.6914990  89.0679997   7.0289992  34.9674990  89.0489997
   6.1891002  35.0038728  89.2714798  24.7939992  88.7044990 108.1669997
  24.7889992  89.5834990 107.7889997  23.9409992  88.6204990 108.5919997
  24.6779199  88.8135901 108.1726942  20.9159992  88.3754990  98.9489997
  20.6439992  88.6044990  98.0599997  20.9609992  89.2124990  99.4089997
  20.8848709  88.5201069  98.8896089  34.5409992  89.9964990 105.6619997
  33.5989992  90.0554990 105.8229997  34.8169992  90.9024990 105.5249997
  34.4495771  90.1270270 105.6654827  34.8409992  78.2834990 107.0789997
  34.1049992  78.8934990 107.0409997  35.5249992  78.6984990 106.5529997
  34.8325885  78.4231924 107.0026931  27.8439992  76.3694990 104.5449997
  27.7269992  75.4214990 104.4909997  26.9889992  76.7024990 104.8179997
  27.7123691  76.2845842 104.5745072  32.7929992  91.7774990 102.2869997
  33.2179992  91.0704990 101.8019997  33.1099992  92.5794990 101.8699997
  32.8940266  91.7890201 102.1642461  33.9519992  89.6784990 100.7959997
  33.6949992  88.9884990 100.1839997  34.0229992  89.2354990 101.6409997
  33.9264322  89.5241568 100.8265372  35.6379992  88.2454990 109.2729997
  35.7779992  87.6534990 108.5339997  35.8059992  89.1184990 108.9169997
  35.6798734  88.2824041 109.1236937  30.1109992  85.2074990  99.0449997
  29.3989992  85.7424990  98.6939997  30.8019992  85.2624990  98.3849997
  30.1068696  85.2882591  98.9076372  30.1649992  83.6644990  96.0839997
  30.8659992  83.6874990  96.7349997  30.4669992  83.0364990  95.4279997
  30.3018282  83.5827350  96.0844478  10.4359992  36.2804990  92.3099997
  10.6209992  35.9474990  93.1879997  11.2829992  36.5904990  91.9879997
  10.5757291  36.2768214  92.3866140  37.4799992  84.5854990 107.3389997
  36.8279992  85.2794990 107.4279997  37.9449992  84.7954990 106.5289997
  37.4535357  84.7089544 107.2417056  33.5169992  85.4164990  99.9969997
  32.7849992  85.6454990 100.5699997  33.9639992  84.7034990 100.4519997
  33.4772753  85.3513984 100.1369698  33.4139992  83.5914990 109.0649997
  33.4939992  84.3544990 109.6369997  32.8129992  83.8704990 108.3739997
  33.3437115  83.7337707 109.0499631  25.1619992  86.0474990 101.8799997
  24.8319992  85.6764990 101.0609997  25.7499992  85.3764990 102.2259997
  25.1964056  85.9061257 101.8149035  26.5289992  89.4754990 104.5609997
  26.4339992  88.8964990 103.8039997  27.2579992  89.1044990 105.0569997
  26.6146161  89.3460902 104.5245192  25.5289992  84.8154990 105.5129997
  26.0939992  84.9374990 104.7499997  25.8469992  85.4534990 106.1519997
  25.6493430  84.9184448 105.4949094  31.8379992  90.3194990 106.2469997
  31.5969992  90.9814990 106.8949997  31.6399992  89.4844990 106.6719997
  31.7782662  90.2972704 106.3931008  32.3879992  84.5794990  97.6819997
  32.9669992  84.7294990  98.4289997  32.8019992  85.0494990  96.9589997
  32.5233122  84.6636288  97.6865024  23.3289992  85.4134990 109.4589997
  23.3989992  86.0644990 110.1569997  22.4379992  85.5164990 109.1239997
  23.2181802  85.5164769 109.5092231  30.1139992  91.3154990 101.1179997
  30.5879992  91.6114990 101.8949997  29.5509992  92.0544990 100.8839997
  30.1028460  91.4558336 101.1927626  12.7809992  37.5664990  91.5539997
  13.4579992  36.9334990  91.3139997  13.1029992  37.9674990  92.3619997
  12.9171280  37.5340638  91.6303190  36.0859992  76.3294990  97.4949997
  35.1859992  76.4674990  97.7899997  36.3379992  77.1604990  97.0929997
  35.9967355  76.4608200  97.4810539  24.1519992  85.1164990  99.4689997
  23.8599992  85.8844990  98.9779997  23.4779992  84.4574990  99.3059997
  24.0208843  85.1324537  99.3797695  37.2759992  90.6954990  95.8719997
  37.3489992  91.6344990  96.0419997  38.1809992  90.3904990  95.8149997
  37.4084168  90.7828531  95.8875736  20.2449992  87.4794990 108.2839997
  19.7439992  87.4514990 107.4689997  20.2509992  86.5744990 108.5939997
  20.1771690  87.3532234 108.2142770  19.9959992  90.2604990 105.1679997
  20.9419992  90.1154990 105.1489997  19.8829992  91.0444990 105.7049997
  20.1103578  90.3466708 105.2380300  29.1719992  90.5004990 109.7259997
  29.2589992  91.3264990 110.2009997  28.3079992  90.1704990 109.9749997
  29.0671944  90.5689871 109.8246558  29.5859992  94.2724990  99.5319997
  29.5109992  94.1514990  98.5859997  29.6189992  95.2214990  99.6509997
  29.5801862  94.3842492  99.4184840  23.2399992  93.0614990 101.3129997
  23.3919992  92.7134990 102.1919997  22.3889992  92.7044990 101.0579997
  23.1457899  92.9656749 101.3987322  32.6879992  93.4264990  96.5349997
  33.0629992  92.6824990  96.0639997  32.6919992  93.1564990  97.4529997
  32.7398969  93.2880920  96.5946475  32.3569992  93.3524990  99.2839997
  31.4219992  93.4524990  99.4629997  32.6369992  92.6424990  99.8619997
  32.2669270  93.2702300  99.3865984  17.6989992  20.1564990  90.6339997
  16.8859992  20.4814990  90.2459997  17.9319992  19.3954990  90.1009997
  17.6192566  20.0981570  90.5089196  22.4939992  88.8034990 109.3269997
  22.7099992  88.4414990 110.1869997  21.6389992  88.4284990 109.1169997
  22.4079349  88.7032914 109.4162134  25.1129992  77.2734990 105.3229997
  24.2509992  77.1864990 104.9149997  25.0909992  78.1294990 105.7499997
  24.9920953  77.3773558 105.3249262  29.7759992  76.9954990 108.6969997
  30.1959992  76.5804990 109.4499997  28.8429992  76.8164990 108.8139997
  29.7073736  76.9144921 108.8158950  33.1019992  80.7504990 109.5509997
  32.5879992  80.6254990 110.3479997  32.9469992  81.6634990 109.3059997
  33.0106643  80.8567068 109.6270624  33.8649992  85.6114990  95.3119997
  33.9069992  85.3894990  94.3819997  34.7139992  86.0104990  95.5019997
  33.9855253  85.6350510  95.2103804  29.4379992  79.4874990  95.9819997
  29.1839992  79.5064990  96.9049997  29.1809992  78.6164990  95.6809997
  29.3685133  79.3723121  96.0675065  25.2039992  82.2384990 106.4179997
  24.5619992  82.1984990 107.1269997  25.2409992  83.1654990 106.1799997
  25.1211659  82.3582540 106.4828463  25.2009992  82.4594990 101.3299997
  24.3079992  82.1194990 101.2709997  25.6519992  82.0824990 100.5739997
  25.1397185  82.3620220 101.2197698  30.7369992  82.8754990 100.1469997
  30.3279992  83.6904990  99.8549997  31.4569992  82.7354990  99.5319997
  30.7783946  82.9679963 100.0239616  31.7409992  82.3214990 102.9609997
  31.5459992  82.9274990 102.2459997  31.9229992  81.4884990 102.5259997
  31.7389272  82.2917955 102.8044075   3.5269992  38.1384990  89.3979997
   2.8059992  38.5784990  88.9469997   3.1609992  37.8874990  90.2469997
   3.3789785  38.1647691  89.4509849  22.9539992  82.5594990 108.2849997
  22.9159992  82.9594990 109.1529997  22.4629992  81.7424990 108.3749997
  22.8824246  82.5038842 108.4161171  26.3199992  79.9334990  95.0829997
  25.8889992  79.4884990  95.8129997  25.6019992  80.3044990  94.5709997
  26.1639363  79.9227979  95.1136194  19.5619992  79.6754990 102.1349997
  20.1929992  79.6464990 102.8549997  20.0119992  79.2504990 101.4049997
  19.7090905  79.6140839 102.1347479  20.8359992  80.4214990  97.5589997
  21.3109992  81.0124990  96.9739997  20.1189992  80.9514990  97.9059997
  20.8040406  80.5741011  97.5258495  31.0049992  83.9594990 107.6319997
  31.3289992  83.3284990 106.9889997  30.5649992  83.4254990 108.2929997
  30.9898707  83.8008261 107.6333195  27.7829992  79.8874990 102.4159997
  26.8719992  79.9444990 102.7049997  28.2879992  79.8274990 103.2269997
  27.7266873  79.8871838 102.5651190  22.6109992  81.5164990 101.2429997
  21.7219992  81.6154990 100.9029997  22.9069992  80.6744990 100.8969997
  22.5294001  81.4162473 101.1497318  26.2639992  81.5164990  98.8989997
  27.1959992  81.6454990  99.0769997  26.0489992  82.1854990  98.2499997
  26.3624245  81.6246452  98.8355602  32.1879992  79.1224990 105.6799997
  31.5109992  79.2534990 106.3439997  31.7019992  78.9674990 104.8699997
  32.0297265  79.1194665 105.6613380  24.9379992  82.7104990  96.4659997
  24.3959992  82.3314990  95.7749997  25.7719992  82.9054990  96.0369997
  24.9764283  82.6849383  96.3134298   5.9939992  37.7384990  88.4279997
   5.1289992  37.8104990  88.8319997   5.9389992  38.2854990  87.6439997
   5.8682066  37.8222678  88.3773371  29.1029992  82.6744990 104.3029997
  29.6669992  82.1284990 103.7559997  28.9549992  82.1534990 105.0919997
  29.1603037  82.5291798 104.3347212  24.1049992  78.8114990 100.7209997
  23.7869992  77.9084990 100.6859997  24.8859992  78.8134990 100.1689997
  24.1671560  78.6881148 100.6414975  27.7289992  81.0634990 106.7169997
  26.8939992  81.5174990 106.8269997  28.2529992  81.3394990 107.4689997
  27.6855070  81.1629677 106.8337134  28.2729992  87.2764990  98.4019997
  27.5279992  86.7684990  98.0789997  28.1389992  87.3254990  99.3479997
  28.1528633  87.2135714  98.4857563  35.4229992  86.4094990 107.1879997
  36.0649992  86.8654990 106.6449997  34.5929992  86.5224990 106.7259997
  35.3987352  86.4873223 107.0510234  32.1709992  80.0904990  96.6009997
  31.2319992  80.2014990  96.4499997  32.4679992  80.9464990  96.9069997
  32.0826371  80.2215327  96.6217362  29.7929992  87.4604990 109.6389997
  29.4469992  87.0784990 110.4449997  29.5929992  88.3934990 109.7099997
  29.7185400  87.5343489 109.7590401  32.8889992  81.9574990  98.2619997
  33.7809992  81.8194990  98.5809997  32.9459992  82.7484990  97.7249997
  33.0187380  82.0454777  98.2330981  23.3979992  86.5714990 104.1709997
  24.1429992  86.5684990 103.5699997  23.4759992  85.7474990 104.6529997
  23.5104158  86.4597928 104.1539136  30.3989992  88.7344990  97.4269997
  30.1039992  89.5614990  97.8089997  29.6959992  88.1154990  97.6229997
  30.2635855  88.7639458  97.5057634  10.7049992  37.6264990  87.6039997
  10.2479992  38.1554990  86.9499997  10.8669992  38.2294990  88.3289997
  10.6643919  37.7803990  87.6125740  20.4059992  85.0314990 109.4859997
  20.6289992  84.6134990 110.3179997  19.8039992  84.4194990 109.0639997
  20.3550802  84.8915216 109.5427561  32.0429992  89.9224990 109.5889997
  31.1419992  90.1054990 109.3209997  32.0769992  90.1814990 110.5099997
  31.9243021  89.9825505 109.6768206  37.7739992  82.1664990  97.9559997
  37.2199992  81.7704990  97.2839997  37.8749992  83.0774990  97.6789997
  37.7117084  82.2353565  97.8264381  36.0689992  90.9524990  98.4209997
  35.6969992  90.1274990  98.7309997  36.3469992  90.7694990  97.5239997
  36.0555997  90.8146160  98.3421551  33.2299992  85.7604990 105.4429997
  32.3019992  85.5294990 105.4159997  33.6809992  84.9834990 105.1129997
  33.1638165  85.6237785 105.3946772  25.7729992  90.0894990 101.5759997
  26.2999992  90.8624990 101.3749997  24.8929992  90.3134990 101.2739997
  25.7261793  90.2256652 101.5076304  21.5279992  84.9514990  96.1629997
  22.1439992  85.5784990  96.5419997  20.6659992  85.2674990  96.4339997
  21.4958195  85.0800810  96.2515369  27.1999992  87.7524990 101.1519997
  26.9589992  88.6774990 101.1939997  26.4599992  87.2934990 101.5479997
  27.0668934  87.8170881 101.2113191  27.7149992  91.9014990 107.4669997
  28.0779992  92.7554990 107.2339997  28.2469992  91.6094990 108.2079997
  27.8365141  91.9788907 107.5352079  25.8829992  92.7734990 100.6969997
  24.9339992  92.8794990 100.7489997  26.2349992  93.5944990 101.0419997
  25.8006214  92.8989361 100.7507317  13.0319992  36.5044990  88.5489997
  12.1279992  36.6694990  88.2829997  13.4609992  37.3574990  88.4829997
  12.9662017  36.6424184  88.5036495  31.2589992  88.0004990 107.1679997
  30.8329992  87.7724990 107.9939997  31.8399992  87.2614990 106.9849997
  31.2791587  87.8694084 107.2564111  33.4619992  88.9294990  96.2419997
  33.8149992  88.5494990  97.0459997  32.5129992  88.8354990  96.3279997
  33.3820985  88.8647330  96.3637738  33.9179992  92.5524990 109.6369997
  33.3159992  91.9964990 109.1419997  34.1989992  93.2194990 109.0109997
  33.8735757  92.5665755 109.4845657  37.9649992  93.4084990  96.4429997
  38.7089992  93.9944990  96.3029997  37.2709992  93.9774990  96.7759997
  37.9729809  93.5655830  96.4688572  22.0399992  79.7854990 109.0439997
  21.1469992  80.1234990 108.9769997  21.9409992  78.9294990 109.4619997
  21.9045241  79.7160941 109.0912982  34.3279992  87.6014990  98.4679997
  34.0509992  86.8734990  99.0239997  35.2549992  87.7204990  98.6739997
  34.4154181  87.5180068  98.5718972  21.6909992  91.5894990 107.4789997
  21.9079992  90.6574990 107.4479997  21.9379992  91.8644990 108.3629997
  21.7540543  91.4990877 107.5941412  27.5529992  90.0414990  94.6889997
  27.7919992  89.2924990  94.1409997  27.2839992  89.6534990  95.5209997
  27.5492804  89.8866524  94.7266352  26.4899992  89.6114990  97.1449997
  26.6369992  89.0914990  97.9349997  26.4869992  90.5184990  97.4509997
  26.5097300  89.6628975  97.2945877  22.9429992  86.8634990  97.6549997
  22.2569992  87.2164990  98.2219997  23.4659992  87.6264990  97.4089997
  22.9199033  87.0148757  97.6992644  15.6359992  38.0744990  88.8439997
  15.4549992  38.9904990  88.6329997  15.8129992  37.6634990  87.9969997
  15.6351377  38.1443365  88.7007178  30.7739992  79.5264990 107.9339997
  31.4729992  79.6004990 108.5839997  30.3939992  78.6614990 108.0889997
  30.8182095  79.4197402 108.0437982  31.5589992  79.1784990  99.0309997
  31.7789992  79.6494990  98.2279997  32.1169992  79.5724990  99.7019997
  31.6645851  79.2963272  99.0116134  29.2279992  91.3084990  97.8939997
  28.4109992  91.8054990  97.9469997  29.7569992  91.7844990  97.2539997
  29.1877898  91.4408123  97.8147274  28.7589992  80.9064990  99.8659997
  29.5709992  81.4104990  99.9119997  28.5139992  80.7614990 100.7799997
  28.8371091  80.9559366  99.9958552  29.2949992  81.8924990 109.0509997
  29.4139992  82.4664990 109.8079997  29.9499992  81.2044990 109.1659997
  29.3998684  81.8780205 109.1701656  29.6429992  77.9874990 100.8039997
  29.2959992  78.6044990 101.4489997  30.3009992  78.4884990 100.3229997
  29.6845290  78.1396384 100.8271635  26.5659992  92.3524990  97.8759997
  26.7269992  93.1524990  97.3749997  26.3689992  92.6594990  98.7609997
  26.5613919  92.5034140  97.9270988  25.2999992  79.0504990  97.4919997
  25.2169992  79.9384990  97.8379997  26.1899992  78.7854990  97.7229997
  25.4089751  79.1362482  97.5706066  35.4989992  79.7994990 109.8859997
  34.5829992  80.0614990 109.7979997  35.8349992  79.7964990 108.9889997
  35.4189789  79.8349637 109.7527829  34.1009992  83.5494990 103.9819997
  33.3039992  83.1344990 103.6529997  34.5459992  82.8594990 104.4729997
  34.0520317  83.3993197 104.0033556   2.9419992  36.7614990  86.3089997
   2.9229992  36.3354990  87.1659997   3.7459992  36.4424990  85.8999997
   3.0481393  36.6600297  86.3710155  23.5589992  89.4774990  96.5519997
  24.1509992  90.1774990  96.8279997  24.0179992  89.0444990  95.8329997
  23.7021172  89.5147371  96.4925163  21.8749992  82.1424990  95.6679997
  21.8299992  83.0814990  95.8469997  20.9869992  81.9064990  95.3979997
  21.7488472  82.2391946  95.6560282  35.1879992  92.8054990 105.6039997
  35.0319992  93.4844990 104.9469997  36.1199992  92.8774990 105.8069997
  35.2927328  92.9081586 105.5415529  22.6829992  76.9234990 104.3409997
  22.4539992  76.9824990 103.4139997  22.2399992  76.1324990 104.6479997
  22.5917387  76.8246412 104.2555223  21.6129992  90.8644990 100.5019997
  20.7809992  91.3364990 100.5289997  22.1589992  91.3744990  99.9029997
  21.5728710  90.9980317 100.4247570  29.5909992  91.9044990  94.8269997
  28.9469992  91.2734990  95.1489997  30.3529992  91.3734990  94.5949997
  29.6058260  91.7463035  94.8397298  34.1949992  91.7214990  95.0609997
  34.4779992  90.9264990  95.5139997  34.9349992  91.9544990  94.4999997
  34.3337295  91.6442349  95.0471469  25.1499992  87.6304990  94.9179997
  25.2139992  86.8364990  95.4489997  25.8029992  87.5124990  94.2289997
  25.2471168  87.5057748  94.8975119  30.5019992  88.6774990  94.6539997
  30.2339992  88.8584990  95.5549997  30.2959992  87.7524990  94.5229997
  30.4374251  88.5771528  94.7596809  33.1989992  87.1724990 109.6019997
  33.9439992  87.7614990 109.4819997  32.4409992  87.7544990 109.6649997
  33.1985185  87.3317000 109.5940940   5.0829992  35.4714990  84.9639997
   4.8639992  34.5544990  85.1329997   5.9069992  35.6114990  85.4299997
   5.1644637  35.3649586  85.0501414  26.2989992  85.6034990  97.2239997
  25.8399992  85.1194990  97.9099997  26.5539992  84.9344990  96.5879997
  26.2706178  85.4468511  97.2319785  25.5879992  83.4964990 109.5799997
  24.9699992  84.1704990 109.8609997  25.9319992  83.8174990 108.7469997
  25.5498181  83.6323233 109.5058266  27.3699992  83.8464990  95.4869997
  27.1899992  83.6914990  94.5589997  28.3199992  83.9544990  95.5309997
  27.4738016  83.8399264  95.3662123  36.7599992  86.2004990  94.9319997
  36.4869992  85.7764990  94.1189997  36.7999992  87.1324990  94.7149997
  36.7280201  86.2683523  94.7913548  26.3399992  79.2204990 108.1549997
  26.8759992  79.6724990 107.5029997  25.4879992  79.1124990 107.7329997
  26.2981648  79.2677883 108.0086395  27.9219992  84.6604990 108.3949997
  28.6729992  84.5044990 107.8219997  27.5829992  85.5124990 108.1189997
  27.9789052  84.7542745 108.2793469  27.1459992  76.6774990 108.5869997
  27.0479992  77.6234990 108.4809997  26.4029992  76.3044990 108.1109997
  27.0322363  76.7565987 108.5082029  27.2679992  94.5364990  96.4879997
  28.2009992  94.6944990  96.6319997  27.0029992  95.2124990  95.8629997
  27.3599846  94.6494567  96.4232930  20.8359992  89.1734990  95.9709997
  21.7499992  89.2524990  96.2439997  20.8429992  88.4864990  95.3039997
  20.9620769  89.0914734  95.9182366  19.4849992  94.5664990 101.0479997
  18.8379992  94.1044990 100.5149997  19.8399992  93.8944990 101.6309997
  19.4443861  94.4124707 101.0537939   7.6199992  35.9414990  85.8119997
   7.8329992  35.0534990  85.5249997   7.6849992  35.9064990  86.7669997
   7.6579075  35.8153318  85.9017355  20.3549992  92.6464990 102.8529997
  20.0209992  91.7664990 103.0249997  20.5769992  92.9924990 103.7169997
  20.3392677  92.5727365 102.9934252  37.9039992  93.4564990 105.8329997
  37.8819992  93.6414990 106.7719997  38.5939992  94.0244990 105.4919997
  37.9943439  93.5586898 105.9154774  37.4669992  93.0234990 108.7549997
  36.9799992  92.2874990 108.3839997  38.0159992  92.6294990 109.4329997
  37.4746101  92.8696267 108.7959034  37.2189992  87.0694990  98.9069997
  38.0689992  87.4904990  99.0349997  37.2239992  86.3294990  99.5149997
  37.3359745  87.0271347  99.0066479  37.6129992  85.1234990 100.7309997
  36.8869992  84.6434990 101.1289997  38.1939992  85.3284990 101.4629997
  37.5922504  85.0855592 100.8844199  37.3719992  87.9084990 105.6789997
  38.2059992  87.5304990 105.3979997  37.4839992  88.8514990 105.5599997
  37.5011917  87.9842954 105.6244844  35.8579992  90.7864990 107.9859997
  35.2109992  91.1114990 108.6109997  35.3409992  90.3454990 107.3109997
  35.6994068  90.7714726 107.9804918  37.8809992  85.0244990  97.1219997
  37.3599992  85.3804990  96.4029997  37.8479992  85.6994990  97.7999997
  37.8051525  85.1645273  97.1151408  36.2299992  82.2634990  95.6729997
  36.3269992  82.9304990  94.9929997  36.0899992  81.4484990  95.1909997
  36.2243428  82.2445667  95.5148311  35.3999992  83.6444990 101.2939997
  35.2499992  82.6994990 101.2739997  35.0459992  83.9254990 102.1379997
  35.3316351  83.5531656 101.4053202  11.1289992  21.6054990  84.9569997
  10.4539992  20.9754990  85.2119997  11.6929992  21.1214990  84.3539997
  11.1129558  21.4539283  84.9103451  20.4349992  85.7224990 105.3039997
  20.6189992  85.6404990 104.3689997  21.2839992  85.5984990 105.7279997
  20.5750259  85.6944915 105.2331771  35.4779992  79.6714990  94.7899997
  36.0879992  79.3004990  95.4269997  34.6409992  79.2504990  94.9859997
  35.4483704  79.5637942  94.9037077  35.1099992  81.2264990  99.7559997
  35.3899992  80.3194990  99.8809997  35.8689992  81.6604990  99.3669997
  35.2509471  81.1610654  99.7205052  35.7219992  81.8084990 105.1919997
  36.6549992  82.0204990 105.1579997  35.4869992  81.9094990 106.1149997
  35.8178357  81.8511303 105.3120232  35.7509992  82.5454990 107.9679997
  34.9079992  82.8134990 108.3339997  36.1939992  83.3674990 107.7569997
  35.6954358  82.6933294 107.9895999  35.7239992  78.4894990  99.8049997
  35.9059992  78.0404990 100.6299997  35.1239992  77.9054990  99.3409997
  35.6678187  78.3490563  99.8552721  21.2539992  79.3054990 104.3359997
  21.6989992  78.5134990 104.6379997  21.7199992  80.0214990 104.7669997
  21.3779059  79.2939485 104.4356061  19.5579992  82.3044990 105.4049997
  20.0499992  82.0834990 104.6149997  19.9199992  83.1444990 105.6859997
  19.6743429  82.3878220 105.3347918  37.5899992  78.5574990  96.3329997
  38.0029992  77.8364990  95.8569997  38.2719992  79.2264990  96.3909997
  37.7385712  78.5494304  96.2758247  19.8709992  78.5624990  99.4599997
  18.9459992  78.7704990  99.3299997  20.3249992  79.0464990  98.7699997
  19.8057401  78.6563895  99.3489433  16.2709992  19.7124990  85.0689997
  16.8749992  20.2604990  84.5679997  15.4019992  20.0314990  84.8289997
  16.2361126  19.8307070  84.9679180  34.6419992  93.5464990 101.4049997
  35.2939992  93.1984990 100.7969997  35.1529992  94.0344990 102.0509997
  34.8002872  93.5648248 101.4090964  19.8349992  77.3004990 107.8039997
  19.1699992  77.0544990 108.4469997  19.3919992  77.9224990 107.2269997
  19.6841168  77.3509225 107.8139830  24.9809992  91.4494990 108.2069997
  24.5559992  92.2594990 107.9239997  25.8849992  91.5354990 107.9049997
  25.0451002  91.5718728 108.1274798  36.5549992  76.7244990 109.4899997
  35.7419992  77.0494990 109.1019997  36.7879992  75.9634990 108.9569997
  36.4752566  76.6661570 109.3649196  22.3829992  94.7064990 108.2539997
  21.6619992  95.1464990 107.8029997  22.0169992  94.4554990 109.1029997
  22.2349785  94.7327691 108.3069849  24.8499992  94.3064990 107.2839997
  23.9849992  94.3784990 107.6879997  24.7949992  94.8534990 106.4999997
  24.7242066  94.3902678 107.2333371  29.5609992  94.1944990 106.4599997
  29.1039992  94.7234990 105.8059997  29.7229992  94.7974990 107.1849997
  29.5203919  94.3483990 106.4685740  31.8879992  93.0724990 107.4049997
  30.9839992  93.2374990 107.1389997  32.3169992  93.9254990 107.3389997
  31.8222017  93.2104184 107.3596495  34.4919992  94.6424990 107.6999997
  34.3109992  95.5584990 107.4889997  34.6689992  94.2314990 106.8529997
  34.4911377  94.7123365 107.5567178  21.7979992  93.3294990 105.1649997
  21.7789992  92.9034990 106.0219997  22.6019992  93.0104990 104.7559997
  21.9041393  93.2280297 105.2270155  17.9979992  20.8514990  83.4029997
  18.6099992  20.3374990  82.8759997  18.3809992  21.7284990  83.4259997
  18.1333867  20.8997613  83.3340888  23.9389992  92.0394990 103.8199997
  23.7199992  91.1224990 103.9889997  24.7629992  92.1794990 104.2859997
  24.0204637  91.9329586 103.9061414  26.4759992  92.5094990 104.6679997
  26.6889992  91.6214990 104.3809997  26.5409992  92.4744990 105.6229997
  26.5139075  92.3833318 104.7577355  29.9849992  78.1734990 103.8129997
  29.3099992  77.5434990 104.0679997  30.5489992  77.6894990 103.2099997
  29.9689558  78.0219283 103.7663451  35.1269992  76.2804990 103.9249997
  35.7309992  76.8284990 103.4239997  34.2579992  76.5994990 103.6849997
  35.0921126  76.3987070 103.8239180  36.8539992  77.4194990 102.2589997
  37.4659992  76.9054990 101.7319997  37.2369992  78.2964990 102.2819997
  36.9893867  77.4677613 102.1900888  22.3109992  76.8074990 101.6349997
  21.5339992  76.5724990 101.1269997  22.8419992  76.0104990 101.6439997
  22.2764443  76.6676721 101.5667200  21.1479992  76.6054990  97.4379997
  21.5869992  77.2164990  96.8469997  20.5139992  77.1434990  97.9119997
  21.1224103  76.7619233  97.4211376  26.8909992  76.7334990 101.4479997
  27.7649992  77.1224990 101.4179997  26.7549992  76.5184990 102.3709997
  26.9923125  76.7577120 101.5686523  32.4469992  76.7634990 103.0969997
  32.5239992  76.8594990 102.1479997  32.1719992  75.8564990 103.2259997
  32.4203407  76.6539188 102.9843532  33.8009992  76.7894990  98.7899997
  33.0979992  77.4044990  98.5799997  33.3559992  75.9524990  98.9209997
  33.6446550  76.7604679  98.7789819   3.4549992  20.2394990  82.7789997
   2.6779992  20.0044990  82.2709997   3.9859992  19.4424990  82.7879997
   3.4204443  20.0996721  82.7107200  21.0489992  92.5534990  98.3359997
  20.3639992  92.5154990  97.6679997  21.0519992  93.4654990  98.6239997
  20.9557358  92.6716744  98.2836145  23.0089992  78.5214990  95.8809997
  23.4999992  77.8914990  95.3529997  23.6319992  78.8174990  96.5439997
  23.1605459  78.4752419  95.8983667  28.0349992  78.8144990  98.3379997
  28.2129992  78.1674990  99.0209997  27.9809992  79.6484990  98.8049997
  28.0520678  78.8386615  98.4946283  29.9129992  93.7624990  96.7329997
  30.7789992  94.1294990  96.5549997  29.6659992  93.3234990  95.9199997
  29.9982041  93.7533648  96.5985958  36.6219992  93.3254990  99.4129997
  36.4279992  92.5774990  98.8479997  36.5829992  94.0834990  98.8289997
  36.5901907  93.3255770  99.2568077  22.8669992  93.4734990  95.3609997
  22.5989992  93.7594990  96.2339997  23.6379992  92.9274990  95.5129997
  22.9345600  93.4388341  95.5011482  50.2459992  85.9634990 101.5929997
  50.3349992  86.9074990 101.4609997  49.6069992  85.6884990 100.9349997
  50.1718319  86.0554984 101.4860276  49.1789992  85.2184990 105.0119997
  49.1399992  84.5724990 105.7169997  48.8559992  84.7514990 104.2409997
  49.1300199  85.0670089 105.0042865  41.5469992  84.8324990 106.6049997
  41.5879992  84.2074990 107.3289997  42.2499992  85.4564990 106.7869997
  41.6476054  84.8313262 106.7286311  52.8849992  88.1574990 103.3139997
  52.4439992  87.4374990 103.7639997  52.8719992  88.8784990 103.9439997
  52.8228398  88.1563187 103.4607734   8.0349992  20.1654990  82.5919997
   8.9089992  20.5544990  82.5619997   7.8989992  19.9504990  83.5149997
   8.1363125  20.1897120  82.7126523  42.4709992  89.2824990 105.1399997
  42.1009992  88.4804990 104.7709997  43.4119992  89.1144990 105.1869997
  42.5475630  89.1498680 105.0957873  39.0809992  82.9424990 100.5329997
  38.6329992  83.7884990 100.5149997  38.5199992  82.3634990 100.0179997
  38.9438546  82.9799004 100.4608874  39.7909992  85.1044990 102.6589997
  40.0049992  84.3344990 103.1859997  40.5289992  85.1944990 102.0559997
  39.9200073  85.0113546 102.6495786  49.9959992  93.2614990 103.5259997
  50.6159992  92.5854990 103.2529997  49.7879992  93.0434990 104.4339997
  50.0527360  93.1394792 103.6114387  47.5679992  87.6504990 105.4179997
  47.8719992  86.9644990 104.8239997  48.2899992  87.7694990 106.0359997
  47.7071152  87.5727201 105.4202106  56.2309992  79.2524990 106.2789997
  56.2799992  79.8624990 107.0149997  56.6569992  79.7134990 105.5559997
  56.2952851  79.3983266 106.2820532  50.7089992  82.0444990 105.7459997
  50.8509992  81.0984990 105.7659997  50.6029992  82.2514990 104.8169997
  50.7141158  81.9429722 105.6232241  43.8639992  80.1464990 103.0179997
  43.9069992  81.0064990 102.5999997  43.4059992  79.5934990 102.3849997
  43.8079613  80.1895689 102.8751276  51.5859992  80.2774990 101.4189997
  52.2319992  79.9484990 102.0439997  52.0959992  80.7944990 100.7959997
  51.7434392  80.3023710 101.4203248  40.4839992  82.5434990 103.7799997
  41.1379992  81.9934990 104.2119997  40.5079992  82.2694990 102.8639997
  40.5767022  82.4312005 103.7151698  13.5909992  20.1954990  84.2409997
  13.6679992  20.2914990  83.2919997  13.3159992  19.2884990  84.3699997
  13.5643407  20.0859188  84.1283532  45.6399992  84.0934990 102.9959997
  46.2559992  83.5664990 103.5049997  45.0539992  83.4534990 102.5919997
  45.6450652  83.9348919 103.0110277  56.6229992  80.7304990 108.5149997
  55.9339992  81.3884990 108.4199997  56.6379992  80.5324990 109.4519997
  56.5307756  80.7937614 108.6285795  42.6739992  79.0644990 107.0919997
  42.4549992  79.5944990 106.3259997  42.0059992  79.2904990 107.7399997
  42.5537271  79.1676508 107.0746206  50.0429992  88.5644990 100.6359997
  49.7469992  88.2414990  99.7849997  49.7189992  89.4644990 100.6779997
  49.9586501  88.6419058 100.5250893  45.2429992  86.7394990 107.3799997
  44.5029992  87.3384990 107.4829997  45.9569992  87.2934990 107.0639997
  45.2383288  86.8962368 107.3513787  53.3499992  79.5684990 103.3999997
  53.1349992  78.8024990 103.9319997  54.0059992  80.0404990 103.9129997
  53.4092451  79.5274472 103.5421699  42.2679992  80.9564990 105.0449997
  42.8809992  81.5894990 105.4179997  42.7799992  80.4844990 104.3879997
  42.4211680  80.9794006 105.0072830  43.6499992  88.7044990 108.1669997
  43.6449992  89.5834990 107.7889997  42.7969992  88.6204990 108.5919997
  43.5339199  88.8135901 108.1726942  39.7719992  88.3754990  98.9489997
  39.4999992  88.6044990  98.0599997  39.8169992  89.2124990  99.4089997
  39.7408709  88.5201069  98.8896089  53.3969992  89.9964990 105.6619997
  52.4549992  90.0554990 105.8229997  53.6729992  90.9024990 105.5249997
  53.3055771  90.1270270 105.6654827  14.9449992  20.2214990  79.9339997
  14.2419992  20.8364990  79.7239997  14.4999992  19.3844990  80.0649997
  14.7886550  20.1924679  79.9229819  53.6969992  78.2834990 107.0789997
  52.9609992  78.8934990 107.0409997  54.3809992  78.6984990 106.5529997
  53.6885885  78.4231924 107.0026931  46.6999992  76.3694990 104.5449997
  46.5829992  75.4214990 104.4909997  45.8449992  76.7024990 104.8179997
  46.5683691  76.2845842 104.5745072  51.6489992  91.7774990 102.2869997
  52.0739992  91.0704990 101.8019997  51.9659992  92.5794990 101.8699997
  51.7500266  91.7890201 102.1642461  52.8079992  89.6784990 100.7959997
  52.5509992  88.9884990 100.1839997  52.8789992  89.2354990 101.6409997
  52.7824322  89.5241568 100.8265372  54.4939992  88.2454990 109.2729997
  54.6339992  87.6534990 108.5339997  54.6619992  89.1184990 108.9169997
  54.5358734  88.2824041 109.1236937  48.9669992  85.2074990  99.0449997
  48.2549992  85.7424990  98.6939997  49.6579992  85.2624990  98.3849997
  48.9628696  85.2882591  98.9076372  49.0209992  83.6644990  96.0839997
  49.7219992  83.6874990  96.7349997  49.3229992  83.0364990  95.4279997
  49.1578282  83.5827350  96.0844478  56.3359992  84.5854990 107.3389997
  55.6839992  85.2794990 107.4279997  56.8009992  84.7954990 106.5289997
  56.3095357  84.7089544 107.2417056  52.3729992  85.4164990  99.9969997
  51.6409992  85.6454990 100.5699997  52.8199992  84.7034990 100.4519997
  52.3332753  85.3513984 100.1369698  52.2699992  83.5914990 109.0649997
  52.3499992  84.3544990 109.6369997  51.6689992  83.8704990 108.3739997
  52.1997115  83.7337707 109.0499631   2.1929992  35.9854990  79.4799997
   1.5079992  35.9474990  78.8119997   2.1959992  36.8974990  79.7679997
   2.0997358  36.1036744  79.4276145  44.0179992  86.0474990 101.8799997
  43.6879992  85.6764990 101.0609997  44.6059992  85.3764990 102.2259997
  44.0524056  85.9061257 101.8149035  45.3849992  89.4754990 104.5609997
  45.2899992  88.8964990 103.8039997  46.1139992  89.1044990 105.0569997
  45.4706161  89.3460902 104.5245192  44.3849992  84.8154990 105.5129997
  44.9499992  84.9374990 104.7499997  44.7029992  85.4534990 106.1519997
  44.5053430  84.9184448 105.4949094  50.6939992  90.3194990 106.2469997
  50.4529992  90.9814990 106.8949997  50.4959992  89.4844990 106.6719997
  50.6342661  90.2972704 106.3931008  51.2439992  84.5794990  97.6819997
  51.8229992  84.7294990  98.4289997  51.6579992  85.0494990  96.9589997
  51.3793122  84.6636288  97.6865024  42.1849992  85.4134990 109.4589997
  42.2549992  86.0644990 110.1569997  41.2939992  85.5164990 109.1239997
  42.0741802  85.5164769 109.5092231  48.9699992  91.3154990 101.1179997
  49.4439992  91.6114990 101.8949997  48.4069992  92.0544990 100.8839997
  48.9588460  91.4558336 101.1927626  54.9419992  76.3294990  97.4949997
  54.0419992  76.4674990  97.7899997  55.1939992  77.1604990  97.0929997
  54.8527355  76.4608200  97.4810539  43.0079992  85.1164990  99.4689997
  42.7159992  85.8844990  98.9779997  42.3339992  84.4574990  99.3059997
  42.8768843  85.1324537  99.3797695  56.1319992  90.6954990  95.8719997
  56.2049992  91.6344990  96.0419997  57.0369992  90.3904990  95.8149997
  56.2644168  90.7828531  95.8875736   9.1789992  22.2464990  79.4819997
   9.3569992  21.5994990  80.1649997   9.1249992  23.0804990  79.9489997
   9.1960678  22.2706615  79.6386283  39.1009992  87.4794990 108.2839997
  38.5999992  87.4514990 107.4689997  39.1069992  86.5744990 108.5939997
  39.0331690  87.3532234 108.2142770  38.8519992  90.2604990 105.1679997
  39.7979992  90.1154990 105.1489997  38.7389992  91.0444990 105.7049997
  38.9663578  90.3466708 105.2380300  48.0279992  90.5004990 109.7259997
  48.1149992  91.3264990 110.2009997  47.1639992  90.1704990 109.9749997
  47.9231944  90.5689871 109.8246558  48.4419992  94.2724990  99.5319997
  48.3669992  94.1514990  98.5859997  48.4749992  95.2214990  99.6509997
  48.4361862  94.3842492  99.4184840  42.0959992  93.0614990 101.3129997
  42.2479992  92.7134990 102.1919997  41.2449992  92.7044990 101.0579997
  42.0017899  92.9656749 101.3987322  51.5439992  93.4264990  96.5349997
  51.9189992  92.6824990  96.0639997  51.5479992  93.1564990  97.4529997
  51.5958969  93.2880920  96.5946475  51.2129992  93.3524990  99.2839997
  50.2779992  93.4524990  99.4629997  51.4929992  92.6424990  99.8619997
  51.1229270  93.2702300  99.3865984  41.3499992  88.8034990 109.3269997
  41.5659992  88.4414990 110.1869997  40.4949992  88.4284990 109.1169997
  41.2639349  88.7032914 109.4162134  43.9689992  77.2734990 105.3229997
  43.1069992  77.1864990 104.9149997  43.9469992  78.1294990 105.7499997
  43.8480953  77.3773558 105.3249262  48.6319992  76.9954990 108.6969997
  49.0519992  76.5804990 109.4499997  47.6989992  76.8164990 108.8139997
  48.5633736  76.9144921 108.8158950  17.7659992  36.7574990  80.5569997
  17.5719992  36.0094990  79.9919997  17.7269992  37.5154990  79.9729997
  17.7341907  36.7575770  80.4008077  51.9579992  80.7504990 109.5509997
  51.4439992  80.6254990 110.3479997  51.8029992  81.6634990 109.3059997
  51.8666643  80.8567068 109.6270624  52.7209992  85.6114990  95.3119997
  52.7629992  85.3894990  94.3819997  53.5699992  86.0104990  95.5019997
  52.8415253  85.6350510  95.2103804  48.2939992  79.4874990  95.9819997
  48.0399992  79.5064990  96.9049997  48.0369992  78.6164990  95.6809997
  48.2245133  79.3723121  96.0675065  44.0599992  82.2384990 106.4179997
  43.4179992  82.1984990 107.1269997  44.0969992  83.1654990 106.1799997
  43.9771659  82.3582540 106.4828463  44.0569992  82.4594990 101.3299997
  43.1639992  82.1194990 101.2709997  44.5079992  82.0824990 100.5739997
  43.9957185  82.3620220 101.2197698  49.5929992  82.8754990 100.1469997
  49.1839992  83.6904990  99.8549997  50.3129992  82.7354990  99.5319997
  49.6343946  82.9679963 100.0239616  50.5969992  82.3214990 102.9609997
  50.4019992  82.9274990 102.2459997  50.7789992  81.4884990 102.5259997
  50.5949272  82.2917955 102.8044075  41.8099992  82.5594990 108.2849997
  41.7719992  82.9594990 109.1529997  41.3189992  81.7424990 108.3749997
  41.7384246  82.5038842 108.4161171  45.1759992  79.9334990  95.0829997
  44.7449992  79.4884990  95.8129997  44.4579992  80.3044990  94.5709997
  45.0199363  79.9227979  95.1136194  38.4179992  79.6754990 102.1349997
  39.0489992  79.6464990 102.8549997  38.8679992  79.2504990 101.4049997
  38.5650905  79.6140839 102.1347479   3.4129992  20.7534990  92.2959997
   3.0469992  19.9874990  92.7389997   4.3259992  20.7824990  92.5829997
   3.4863225  20.6526917  92.3953441  39.6919992  80.4214990  97.5589997
  40.1669992  81.0124990  96.9739997  38.9749992  80.9514990  97.9059997
  39.6600406  80.5741011  97.5258495  49.8609992  83.9594990 107.6319997
  50.1849992  83.3284990 106.9889997  49.4209992  83.4254990 108.2929997
  49.8458707  83.8008261 107.6333195  46.6389992  79.8874990 102.4159997
  45.7279992  79.9444990 102.7049997  47.1439992  79.8274990 103.2269997
  46.5826873  79.8871838 102.5651190  41.4669992  81.5164990 101.2429997
  40.5779992  81.6154990 100.9029997  41.7629992  80.6744990 100.8969997
  41.3854001  81.4162473 101.1497318  45.1199992  81.5164990  98.8989997
  46.0519992  81.6454990  99.0769997  44.9049992  82.1854990  98.2499997
  45.2184245  81.6246452  98.8355602  51.0439992  79.1224990 105.6799997
  50.3669992  79.2534990 106.3439997  50.5579992  78.9674990 104.8699997
  50.8857265  79.1194665 105.6613380  43.7939992  82.7104990  96.4659997
  43.2519992  82.3314990  95.7749997  44.6279992  82.9054990  96.0369997
  43.8324283  82.6849383  96.3134298  47.9589992  82.6744990 104.3029997
  48.5229992  82.1284990 103.7559997  47.8109992  82.1534990 105.0919997
  48.0163037  82.5291798 104.3347212  42.9609992  78.8114990 100.7209997
  42.6429992  77.9084990 100.6859997  43.7419992  78.8134990 100.1689997
  43.0231560  78.6881148 100.6414975  46.5849992  81.0634990 106.7169997
  45.7499992  81.5174990 106.8269997  47.1089992  81.3394990 107.4689997
  46.5415070  81.1629677 106.8337134   5.3859992  20.1034990  93.8319997
   6.2849992  19.8294990  93.6469997   4.9999992  19.3614990  94.2959997
   5.4567237  19.9656520  93.8694693  47.1289992  87.2764990  98.4019997
  46.3839992  86.7684990  98.0789997  46.9949992  87.3254990  99.3479997
  47.0088633  87.2135714  98.4857563  54.2789992  86.4094990 107.1879997
  54.9209992  86.8654990 106.6449997  53.4489992  86.5224990 106.7259997
  54.2547352  86.4873223 107.0510234  51.0269992  80.0904990  96.6009997
  50.0879992  80.2014990  96.4499997  51.3239992  80.9464990  96.9069997
  50.9386371  80.2215327  96.6217362  48.6489992  87.4604990 109.6389997
  48.3029992  87.0784990 110.4449997  48.4489992  88.3934990 109.7099997
  48.5745399  87.5343489 109.7590401  51.7449992  81.9574990  98.2619997
  52.6369992  81.8194990  98.5809997  51.8019992  82.7484990  97.7249997
  51.8747380  82.0454777  98.2330981  42.2539992  86.5714990 104.1709997
  42.9989992  86.5684990 103.5699997  42.3319992  85.7474990 104.6529997
  42.3664158  86.4597928 104.1539136  49.2549992  88.7344990  97.4269997
  48.9599992  89.5614990  97.8089997  48.5519992  88.1154990  97.6229997
  49.1195855  88.7639458  97.5057634  39.2619992  85.0314990 109.4859997
  39.4849992  84.6134990 110.3179997  38.6599992  84.4194990 109.0639997
  39.2110802  84.8915216 109.5427561  50.8989992  89.9224990 109.5889997
  49.9979992  90.1054990 109.3209997  50.9329992  90.1814990 110.5099997
  50.7803021  89.9825505 109.6768206  56.6299992  82.1664990  97.9559997
  56.0759992  81.7704990  97.2839997  56.7309992  83.0774990  97.6789997
  56.5677084  82.2353565  97.8264381  13.8069992  19.4364990  94.0139997
  13.8839992  19.0104990  94.8679997  14.7009992  19.4494990  93.6719997
  13.9383315  19.3800320  94.0845052  54.9249992  90.9524990  98.4209997
  54.5529992  90.1274990  98.7309997  55.2029992  90.7694990  97.5239997
  54.9115997  90.8146160  98.3421551  52.0859992  85.7604990 105.4429997
  51.1579992  85.5294990 105.4159997  52.5369992  84.9834990 105.1129997
  52.0198165  85.6237785 105.3946772  44.6289992  90.0894990 101.5759997
  45.1559992  90.8624990 101.3749997  43.7489992  90.3134990 101.2739997
  44.5821793  90.2256652 101.5076304  40.3839992  84.9514990  96.1629997
  40.9999992  85.5784990  96.5419997  39.5219992  85.2674990  96.4339997
  40.3518195  85.0800810  96.2515369  46.0559992  87.7524990 101.1519997
  45.8149992  88.6774990 101.1939997  45.3159992  87.2934990 101.5479997
  45.9228934  87.8170881 101.2113191  46.5709992  91.9014990 107.4669997
  46.9339992  92.7554990 107.2339997  47.1029992  91.6094990 108.2079997
  46.6925141  91.9788907 107.5352079  44.7389992  92.7734990 100.6969997
  43.7899992  92.8794990 100.7489997  45.0909992  93.5944990 101.0419997
  44.6566214  92.8989361 100.7507317  50.1149992  88.0004990 107.1679997
  49.6889992  87.7724990 107.9939997  50.6959992  87.2614990 106.9849997
  50.1351587  87.8694084 107.2564111  52.3179992  88.9294990  96.2419997
  52.6709992  88.5494990  97.0459997  51.3689992  88.8354990  96.3279997
  52.2380985  88.8647330  96.3637738  52.7739992  92.5524990 109.6369997
  52.1719992  91.9964990 109.1419997  53.0549992  93.2194990 109.0109997
  52.7295757  92.5665755 109.4845657  16.9839992  35.5084990  92.7069997
  16.2019992  35.3224990  92.1869997  16.9119992  36.4384990  92.9239997
  16.8672975  35.6086973  92.6651822  56.8209992  93.4084990  96.4429997
  57.5649992  93.9944990  96.3029997  56.1269992  93.9774990  96.7759997
  56.8289809  93.5655830  96.4688572  40.8959992  79.7854990 109.0439997
  40.0029992  80.1234990 108.9769997  40.7969992  78.9294990 109.4619997
  40.7605241  79.7160941 109.0912982  53.1839992  87.6014990  98.4679997
  52.9069992  86.8734990  99.0239997  54.1109992  87.7204990  98.6739997
  53.2714181  87.5180068  98.5718972  40.5469992  91.5894990 107.4789997
  40.7639992  90.6574990 107.4479997  40.7939992  91.8644990 108.3629997
  40.6100543  91.4990877 107.5941412  46.4089992  90.0414990  94.6889997
  46.6479992  89.2924990  94.1409997  46.1399992  89.6534990  95.5209997
  46.4052804  89.8866524  94.7266352  45.3459992  89.6114990  97.1449997
  45.4929992  89.0914990  97.9349997  45.3429992  90.5184990  97.4509997
  45.3657300  89.6628975  97.2945877  41.7989992  86.8634990  97.6549997
  41.1129992  87.2164990  98.2219997  42.3219992  87.6264990  97.4089997
  41.7759033  87.0148757  97.6992644  49.6299992  79.5264990 107.9339997
  50.3289992  79.6004990 108.5839997  49.2499992  78.6614990 108.0889997
  49.6742095  79.4197402 108.0437982  50.4149992  79.1784990  99.0309997
  50.6349992  79.6494990  98.2279997  50.9729992  79.5724990  99.7019997
  50.5205851  79.2963272  99.0116134  48.0839992  91.3084990  97.8939997
  47.2669992  91.8054990  97.9469997  48.6129992  91.7844990  97.2539997
  48.0437898  91.4408123  97.8147274  31.3899992  29.3954990  82.7369997
  31.4789992  30.3394990  82.6049997  30.7509992  29.1204990  82.0789997
  31.3158319  29.4874984  82.6300276  47.6149992  80.9064990  99.8659997
  48.4269992  81.4104990  99.9119997  47.3699992  80.7614990 100.7799997
  47.6931091  80.9559366  99.9958552  48.1509992  81.8924990 109.0509997
  48.2699992  82.4664990 109.8079997  48.8059992  81.2044990 109.1659997
  48.2558684  81.8780205 109.1701656  48.4989992  77.9874990 100.8039997
  48.1519992  78.6044990 101.4489997  49.1569992  78.4884990 100.3229997
  48.5405290  78.1396384 100.8271635  45.4219992  92.3524990  97.8759997
  45.5829992  93.1524990  97.3749997  45.2249992  92.6594990  98.7609997
  45.4173919  92.5034140  97.9270988  44.1559992  79.0504990  97.4919997
  44.0729992  79.9384990  97.8379997  45.0459992  78.7854990  97.7229997
  44.2649751  79.1362482  97.5706066  54.3549992  79.7994990 109.8859997
  53.4389992  80.0614990 109.7979997  54.6909992  79.7964990 108.9889997
  54.2749789  79.8349637 109.7527829  52.9569992  83.5494990 103.9819997
  52.1599992  83.1344990 103.6529997  53.4019992  82.8594990 104.4729997
  52.9080317  83.3993197 104.0033556  42.4149992  89.4774990  96.5519997
  43.0069992  90.1774990  96.8279997  42.8739992  89.0444990  95.8329997
  42.5581172  89.5147371  96.4925163  40.7309992  82.1424990  95.6679997
  40.6859992  83.0814990  95.8469997  39.8429992  81.9064990  95.3979997
  40.6048472  82.2391946  95.6560282  54.0439992  92.8054990 105.6039997
  53.8879992  93.4844990 104.9469997  54.9759992  92.8774990 105.8069997
  54.1487328  92.9081586 105.5415529  30.3229992  28.6504990  86.1559997
  30.2839992  28.0044990  86.8609997  29.9999992  28.1834990  85.3849997
  30.2740199  28.4990089  86.1482865  41.5389992  76.9234990 104.3409997
  41.3099992  76.9824990 103.4139997  41.0959992  76.1324990 104.6479997
  41.4477387  76.8246412 104.2555223  40.4689992  90.8644990 100.5019997
  39.6369992  91.3364990 100.5289997  41.0149992  91.3744990  99.9029997
  40.4288710  90.9980317 100.4247570  48.4469992  91.9044990  94.8269997
  47.8029992  91.2734990  95.1489997  49.2089992  91.3734990  94.5949997
  48.4618260  91.7463035  94.8397298  53.0509992  91.7214990  95.0609997
  53.3339992  90.9264990  95.5139997  53.7909992  91.9544990  94.4999997
  53.1897295  91.6442349  95.0471469  44.0059992  87.6304990  94.9179997
  44.0699992  86.8364990  95.4489997  44.6589992  87.5124990  94.2289997
  44.1031168  87.5057747  94.8975119  49.3579992  88.6774990  94.6539997
  49.0899992  88.8584990  95.5549997  49.1519992  87.7524990  94.5229997
  49.2934251  88.5771528  94.7596809  52.0549992  87.1724990 109.6019997
  52.7999992  87.7614990 109.4819997  51.2969992  87.7544990 109.6649997
  52.0545185  87.3317000 109.5940940  45.1549992  85.6034990  97.2239997
  44.6959992  85.1194990  97.9099997  45.4099992  84.9344990  96.5879997
  45.1266178  85.4468511  97.2319785  44.4439992  83.4964990 109.5799997
  43.8259992  84.1704990 109.8609997  44.7879992  83.8174990 108.7469997
  44.4058181  83.6323233 109.5058266  46.2259992  83.8464990  95.4869997
  46.0459992  83.6914990  94.5589997  47.1759992  83.9544990  95.5309997
  46.3298016  83.8399264  95.3662123  22.6909992  28.2644990  87.7489997
  22.7319992  27.6394990  88.4729997  23.3939992  28.8884990  87.9309997
  22.7916054  28.2633262  87.8726311  55.6159992  86.2004990  94.9319997
  55.3429992  85.7764990  94.1189997  55.6559992  87.1324990  94.7149997
  55.5840201  86.2683523  94.7913548  45.1959992  79.2204990 108.1549997
  45.7319992  79.6724990 107.5029997  44.3439992  79.1124990 107.7329997
  45.1541648  79.2677883 108.0086395  46.7779992  84.6604990 108.3949997
  47.5289992  84.5044990 107.8219997  46.4389992  85.5124990 108.1189997
  46.8349052  84.7542745 108.2793469  46.0019992  76.6774990 108.5869997
  45.9039992  77.6234990 108.4809997  45.2589992  76.3044990 108.1109997
  45.8882363  76.7565987 108.5082029  46.1239992  94.5364990  96.4879997
  47.0569992  94.6944990  96.6319997  45.8589992  95.2124990  95.8629997
  46.2159846  94.6494567  96.4232930  39.6919992  89.1734990  95.9709997
  40.6059992  89.2524990  96.2439997  39.6989992  88.4864990  95.3039997
  39.8180769  89.0914735  95.9182366  38.3409992  94.5664990 101.0479997
  37.6939992  94.1044990 100.5149997  38.6959992  93.8944990 101.6309997
  38.3003861  94.4124707 101.0537939  39.2109992  92.6464990 102.8529997
  38.8769992  91.7664990 103.0249997  39.4329992  92.9924990 103.7169997
  39.1952677  92.5727366 102.9934252  56.7599992  93.4564990 105.8329997
  56.7379992  93.6414990 106.7719997  57.4499992  94.0244990 105.4919997
  56.8503439  93.5586898 105.9154774  56.3229992  93.0234990 108.7549997
  55.8359992  92.2874990 108.3839997  56.8719992  92.6294990 109.4329997
  56.3306101  92.8696267 108.7959034  34.0289992  31.5894990  84.4579997
  33.5879992  30.8694990  84.9079997  34.0159992  32.3104990  85.0879997
  33.9668398  31.5883187  84.6047734  56.0749992  87.0694990  98.9069997
  56.9249992  87.4904990  99.0349997  56.0799992  86.3294990  99.5149997
  56.1919745  87.0271347  99.0066479  56.4689992  85.1234990 100.7309997
  55.7429992  84.6434990 101.1289997  57.0499992  85.3284990 101.4629997
  56.4482504  85.0855592 100.8844199  56.2279992  87.9084990 105.6789997
  57.0619992  87.5304990 105.3979997  56.3399992  88.8514990 105.5599997
  56.3571917  87.9842954 105.6244844  54.7139992  90.7864990 107.9859997
  54.0669992  91.1114990 108.6109997  54.1969992  90.3454990 107.3109997
  54.5554068  90.7714726 107.9804918  56.7369992  85.0244990  97.1219997
  56.2159992  85.3804990  96.4029997  56.7039992  85.6994990  97.7999997
  56.6611525  85.1645273  97.1151408  55.0859992  82.2634990  95.6729997
  55.1829992  82.9304990  94.9929997  54.9459992  81.4484990  95.1909997
  55.0803428  82.2445667  95.5148311  54.2559992  83.6444990 101.2939997
  54.1059992  82.6994990 101.2739997  53.9019992  83.9254990 102.1379997
  54.1876351  83.5531656 101.4053202  39.2909992  85.7224990 105.3039997
  39.4749992  85.6404990 104.3689997  40.1399992  85.5984990 105.7279997
  39.4310259  85.6944915 105.2331771  54.3339992  79.6714990  94.7899997
  54.9439992  79.3004990  95.4269997  53.4969992  79.2504990  94.9859997
  54.3043704  79.5637942  94.9037077  53.9659992  81.2264990  99.7559997
  54.2459992  80.3194990  99.8809997  54.7249992  81.6604990  99.3669997
  54.1069471  81.1610654  99.7205052  23.6149992  32.7144990  86.2839997
  23.2449992  31.9124990  85.9149997  24.5559992  32.5464990  86.3309997
  23.6915630  32.5818680  86.2397873  54.5779992  81.8084990 105.1919997
  55.5109992  82.0204990 105.1579997  54.3429992  81.9094990 106.1149997
  54.6738357  81.8511303 105.3120232  54.6069992  82.5454990 107.9679997
  53.7639992  82.8134990 108.3339997  55.0499992  83.3674990 107.7569997
  54.5514358  82.6933294 107.9895999  54.5799992  78.4894990  99.8049997
  54.7619992  78.0404990 100.6299997  53.9799992  77.9054990  99.3409997
  54.5238187  78.3490563  99.8552721  40.1099992  79.3054990 104.3359997
  40.5549992  78.5134990 104.6379997  40.5759992  80.0214990 104.7669997
  40.2339059  79.2939485 104.4356061  38.4139992  82.3044990 105.4049997
  38.9059992  82.0834990 104.6149997  38.7759992  83.1444990 105.6859997
  38.5303429  82.3878220 105.3347918  56.4459992  78.5574990  96.3329997
  56.8589992  77.8364990  95.8569997  57.1279992  79.2264990  96.3909997
  56.5945712  78.5494304  96.2758247  38.7269992  78.5624990  99.4599997
  37.8019992  78.7704990  99.3299997  39.1809992  79.0464990  98.7699997
  38.6617401  78.6563895  99.3489433  53.4979992  93.5464990 101.4049997
  54.1499992  93.1984990 100.7969997  54.0089992  94.0344990 102.0509997
  53.6562872  93.5648248 101.4090964  38.6909992  77.3004990 107.8039997
  38.0259992  77.0544990 108.4469997  38.2479992  77.9224990 107.2269997
  38.5401168  77.3509225 107.8139830  43.8369992  91.4494990 108.2069997
  43.4119992  92.2594990 107.9239997  44.7409992  91.5354990 107.9049997
  43.9011002  91.5718728 108.1274798  20.2249992  26.3744990  81.6769997
  19.7769992  27.2204990  81.6589997  19.6639992  25.7954990  81.1619997
  20.0878546  26.4119004  81.6048874  55.4109992  76.7244990 109.4899997
  54.5979992  77.0494990 109.1019997  55.6439992  75.9634990 108.9569997
  55.3312566  76.6661570 109.3649196  41.2389992  94.7064990 108.2539997
  40.5179992  95.1464990 107.8029997  40.8729992  94.4554990 109.1029997
  41.0909785  94.7327691 108.3069849  43.7059992  94.3064990 107.2839997
  42.8409992  94.3784990 107.6879997  43.6509992  94.8534990 106.4999997
  43.5802066  94.3902678 107.2333371  48.4169992  94.1944990 106.4599997
  47.9599992  94.7234990 105.8059997  48.5789992  94.7974990 107.1849997
  48.3763919  94.3483990 106.4685740  50.7439992  93.0724990 107.4049997
  49.8399992  93.2374990 107.1389997  51.1729992  93.9254990 107.3389997
  50.6782017  93.2104184 107.3596495  53.3479992  94.6424990 107.6999997
  53.1669992  95.5584990 107.4889997  53.5249992  94.2314990 106.8529997
  53.3471377  94.7123365 107.5567178  40.6539992  93.3294990 105.1649997
  40.6349992  92.9034990 106.0219997  41.4579992  93.0104990 104.7559997
  40.7601393  93.2280297 105.2270155  42.7949992  92.0394990 103.8199997
  42.5759992  91.1224990 103.9889997  43.6189992  92.1794990 104.2859997
  42.8764637  91.9329586 103.9061414  45.3319992  92.5094990 104.6679997
  45.5449992  91.6214990 104.3809997  45.3969992  92.4744990 105.6229997
  45.3699075  92.3833318 104.7577355  48.8409992  78.1734990 103.8129997
  48.1659992  77.5434990 104.0679997  49.4049992  77.6894990 103.2099997
  48.8249558  78.0219283 103.7663451  20.9349992  28.5364990  83.8029997
  21.1489992  27.7664990  84.3299997  21.6729992  28.6264990  83.1999997
  21.0640073  28.4433546  83.7935786  53.9829992  76.2804990 103.9249997
  54.5869992  76.8284990 103.4239997  53.1139992  76.5994990 103.6849997
  53.9481126  76.3987070 103.8239180  55.7099992  77.4194990 102.2589997
  56.3219992  76.9054990 101.7319997  56.0929992  78.2964990 102.2819997
  55.8453867  77.4677613 102.1900888  41.1669992  76.8074990 101.6349997
  40.3899992  76.5724990 101.1269997  41.6979992  76.0104990 101.6439997
  41.1324443  76.6676721 101.5667200  40.0039992  76.6054990  97.4379997
  40.4429992  77.2164990  96.8469997  39.3699992  77.1434990  97.9119997
  39.9784103  76.7619233  97.4211376  45.7469992  76.7334990 101.4479997
  46.6209992  77.1224990 101.4179997  45.6109992  76.5184990 102.3709997
  45.8483125  76.7577120 101.5686523  51.3029992  76.7634990 103.0969997
  51.3799992  76.8594990 102.1479997  51.0279992  75.8564990 103.2259997
  51.2763407  76.6539188 102.9843532  52.6569992  76.7894990  98.7899997
  51.9539992  77.4044990  98.5799997  52.2119992  75.9524990  98.9209997
  52.5006550  76.7604679  98.7789819  39.9049992  92.5534990  98.3359997
  39.2199992  92.5154990  97.6679997  39.9079992  93.4654990  98.6239997
  39.8117358  92.6716744  98.2836145  41.8649992  78.5214990  95.8809997
  42.3559992  77.8914990  95.3529997  42.4879992  78.8174990  96.5439997
  42.0165459  78.4752419  95.8983667  46.8909992  78.8144990  98.3379997
  47.0689992  78.1674990  99.0209997  46.8369992  79.6484990  98.8049997
  46.9080678  78.8386615  98.4946283  31.1399992  36.6934990  84.6699997
  31.7599992  36.0174990  84.3969997  30.9319992  36.4754990  85.5779997
  31.1967360  36.5714792  84.7554387  48.7689992  93.7624990  96.7329997
  49.6349992  94.1294990  96.5549997  48.5219992  93.3234990  95.9199997
  48.8542041  93.7533648  96.5985958  55.4779992  93.3254990  99.4129997
  55.2839992  92.5774990  98.8479997  55.4389992  94.0834990  98.8289997
  55.4461907  93.3255770  99.2568077  41.7229992  93.4734990  95.3609997
  41.4549992  93.7594990  96.2339997  42.4939992  92.9274990  95.5129997
  41.7905600  93.4388341  95.5011482  69.1019992  85.9634990 101.5929997
  69.1909992  86.9074990 101.4609997  68.4629992  85.6884990 100.9349997
  69.0278319  86.0554984 101.4860276  68.0349992  85.2184990 105.0119997
  67.9959992  84.5724990 105.7169997  67.7119992  84.7514990 104.2409997
  67.9860199  85.0670089 105.0042865  60.4029992  84.8324990 106.6049997
  60.4439992  84.2074990 107.3289997  61.1059992  85.4564990 106.7869997
  60.5036054  84.8313262 106.7286311  71.7409992  88.1574990 103.3139997
  71.2999992  87.4374990 103.7639997  71.7279992  88.8784990 103.9439997
  71.6788398  88.1563187 103.4607734  61.3269992  89.2824990 105.1399997
  60.9569992  88.4804990 104.7709997  62.2679992  89.1144990 105.1869997
  61.4035630  89.1498680 105.0957873  57.9369992  82.9424990 100.5329997
  57.4889992  83.7884990 100.5149997  57.3759992  82.3634990 100.0179997
  57.7998546  82.9799004 100.4608874  58.6469992  85.1044990 102.6589997
  58.8609992  84.3344990 103.1859997  59.3849992  85.1944990 102.0559997
  58.7760073  85.0113546 102.6495786  28.7119992  31.0824990  86.5619997
  29.0159992  30.3964990  85.9679997  29.4339992  31.2014990  87.1799997
  28.8511152  31.0047201  86.5642106  68.8519992  93.2614990 103.5259997
  69.4719992  92.5854990 103.2529997  68.6439992  93.0434990 104.4339997
  68.9087360  93.1394792 103.6114387  66.4239992  87.6504990 105.4179997
  66.7279992  86.9644990 104.8239997  67.1459992  87.7694990 106.0359997
  66.5631152  87.5727201 105.4202106  75.0869992  79.2524990 106.2789997
  75.1359992  79.8624990 107.0149997  75.5129992  79.7134990 105.5559997
  75.1512851  79.3983266 106.2820532  69.5649992  82.0444990 105.7459997
  69.7069992  81.0984990 105.7659997  69.4589992  82.2514990 104.8169997
  69.5701158  81.9429722 105.6232241  62.7199992  80.1464990 103.0179997
  62.7629992  81.0064990 102.5999997  62.2619992  79.5934990 102.3849997
  62.6639613  80.1895689 102.8751276  70.4419992  80.2774990 101.4189997
  71.0879992  79.9484990 102.0439997  70.9519992  80.7944990 100.7959997
  70.5994392  80.3023710 101.4203248  59.3399992  82.5434990 103.7799997
  59.9939992  81.9934990 104.2119997  59.3639992  82.2694990 102.8639997
  59.4327022  82.4312005 103.7151698  64.4959992  84.0934990 102.9959997
  65.1119992  83.5664990 103.5049997  63.9099992  83.4534990 102.5919997
  64.5010652  83.9348919 103.0110277  75.4789992  80.7304990 108.5149997
  74.7899992  81.3884990 108.4199997  75.4939992  80.5324990 109.4519997
  75.3867756  80.7937614 108.6285795  61.5299992  79.0644990 107.0919997
  61.3109992  79.5944990 106.3259997  60.8619992  79.2904990 107.7399997
  61.4097271  79.1676508 107.0746206  37.3749992  22.6844990  87.4229997
  37.4239992  23.2944990  88.1589997  37.8009992  23.1454990  86.6999997
  37.4392851  22.8303266  87.4260532  68.8989992  88.5644990 100.6359997
  68.6029992  88.2414990  99.7849997  68.5749992  89.4644990 100.6779997
  68.8146501  88.6419058 100.5250893  64.0989992  86.7394990 107.3799997
  63.3589992  87.3384990 107.4829997  64.8129992  87.2934990 107.0639997
  64.0943288  86.8962368 107.3513787  72.2059992  79.5684990 103.3999997
  71.9909992  78.8024990 103.9319997  72.8619992  80.0404990 103.9129997
  72.2652451  79.5274472 103.5421699  61.1239992  80.9564990 105.0449997
  61.7369992  81.5894990 105.4179997  61.6359992  80.4844990 104.3879997
  61.2771680  80.9794006 105.0072830  62.5059992  88.7044990 108.1669997
  62.5009992  89.5834990 107.7889997  61.6529992  88.6204990 108.5919997
  62.3899199  88.8135901 108.1726942  58.6279992  88.3754990  98.9489997
  58.3559992  88.6044990  98.0599997  58.6729992  89.2124990  99.4089997
  58.5968709  88.5201069  98.8896089  72.2529992  89.9964990 105.6619997
  71.3109992  90.0554990 105.8229997  72.5289992  90.9024990 105.5249997
  72.1615771  90.1270270 105.6654827  72.5529992  78.2834990 107.0789997
  71.8169992  78.8934990 107.0409997  73.2369992  78.6984990 106.5529997
  72.5445885  78.4231924 107.0026931  65.5559992  76.3694990 104.5449997
  65.4389992  75.4214990 104.4909997  64.7009992  76.7024990 104.8179997
  65.4243691  76.2845842 104.5745072  70.5049992  91.7774990 102.2869997
  70.9299992  91.0704990 101.8019997  70.8219992  92.5794990 101.8699997
  70.6060266  91.7890201 102.1642461  31.8529992  25.4764990  86.8899997
  31.9949992  24.5304990  86.9099997  31.7469992  25.6834990  85.9609997
  31.8581158  25.3749722  86.7672241  71.6639992  89.6784990 100.7959997
  71.4069992  88.9884990 100.1839997  71.7349992  89.2354990 101.6409997
  71.6384322  89.5241568 100.8265372  73.3499992  88.2454990 109.2729997
  73.4899992  87.6534990 108.5339997  73.5179992  89.1184990 108.9169997
  73.3918734  88.2824041 109.1236937  67.8229992  85.2074990  99.0449997
  67.1109992  85.7424990  98.6939997  68.5139992  85.2624990  98.3849997
  67.8188696  85.2882591  98.9076372  67.8769992  83.6644990  96.0839997
  68.5779992  83.6874990  96.7349997  68.1789992  83.0364990  95.4279997
  68.0138282  83.5827350  96.0844478  75.1919992  84.5854990 107.3389997
  74.5399992  85.2794990 107.4279997  75.6569992  84.7954990 106.5289997
  75.1655357  84.7089544 107.2417056  71.2289992  85.4164990  99.9969997
  70.4969992  85.6454990 100.5699997  71.6759992  84.7034990 100.4519997
  71.1892753  85.3513984 100.1369698  71.1259992  83.5914990 109.0649997
  71.2059992  84.3544990 109.6369997  70.5249992  83.8704990 108.3739997
  71.0557115  83.7337707 109.0499631  62.8739992  86.0474990 101.8799997
  62.5439992  85.6764990 101.0609997  63.4619992  85.3764990 102.2259997
  62.9084056  85.9061257 101.8149035  64.2409992  89.4754990 104.5609997
  64.1459992  88.8964990 103.8039997  64.9699992  89.1044990 105.0569997
  64.3266161  89.3460902 104.5245192  63.2409992  84.8154990 105.5129997
  63.8059992  84.9374990 104.7499997  63.5589992  85.4534990 106.1519997
  63.3613430  84.9184448 105.4949094  25.0079992  23.5784990  84.1619997
  25.0509992  24.4384990  83.7439997  24.5499992  23.0254990  83.5289997
  24.9519613  23.6215689  84.0191276  69.5499992  90.3194990 106.2469997
  69.3089992  90.9814990 106.8949997  69.3519992  89.4844990 106.6719997
  69.4902662  90.2972704 106.3931008  70.0999992  84.5794990  97.6819997
  70.6789992  84.7294990  98.4289997  70.5139992  85.0494990  96.9589997
  70.2353122  84.6636288  97.6865024  61.0409992  85.4134990 109.4589997
  61.1109992  86.0644990 110.1569997  60.1499992  85.5164990 109.1239997
  60.9301802  85.5164769 109.5092231  67.8259992  91.3154990 101.1179997
  68.2999992  91.6114990 101.8949997  67.2629992  92.0544990 100.8839997
  67.8148460  91.4558336 101.1927626  73.7979992  76.3294990  97.4949997
  72.8979992  76.4674990  97.7899997  74.0499992  77.1604990  97.0929997
  73.7087355  76.4608200  97.4810539  61.8639992  85.1164990  99.4689997
  61.5719992  85.8844990  98.9779997  61.1899992  84.4574990  99.3059997
  61.7328843  85.1324537  99.3797695  74.9879992  90.6954990  95.8719997
  75.0609992  91.6344990  96.0419997  75.8929992  90.3904990  95.8149997
  75.1204168  90.7828531  95.8875736  57.9569992  87.4794990 108.2839997
  57.4559992  87.4514990 107.4689997  57.9629992  86.5744990 108.5939997
  57.8891690  87.3532234 108.2142770  57.7079992  90.2604990 105.1679997
  58.6539992  90.1154990 105.1489997  57.5949992  91.0444990 105.7049997
  57.8223578  90.3466708 105.2380300  66.8839992  90.5004990 109.7259997
  66.9709992  91.3264990 110.2009997  66.0199992  90.1704990 109.9749997
  66.7791944  90.5689871 109.8246558  32.7299992  23.7094990  82.5629997
  33.3759992  23.3804990  83.1879997  33.2399992  24.2264990  81.9399997
  32.8874392  23.7343710  82.5643248  67.2979992  94.2724990  99.5319997
  67.2229992  94.1514990  98.5859997  67.3309992  95.2214990  99.6509997
  67.2921862  94.3842492  99.4184840  60.9519992  93.0614990 101.3129997
  61.1039992  92.7134990 102.1919997  60.1009992  92.7044990 101.0579997
  60.8577899  92.9656749 101.3987322  70.3999992  93.4264990  96.5349997
  70.7749992  92.6824990  96.0639997  70.4039992  93.1564990  97.4529997
  70.4518969  93.2880920  96.5946475  70.0689992  93.3524990  99.2839997
  69.1339992  93.4524990  99.4629997  70.3489992  92.6424990  99.8619997
  69.9789270  93.2702300  99.3865984  60.2059992  88.8034990 109.3269997
  60.4219992  88.4414990 110.1869997  59.3509992  88.4284990 109.1169997
  60.1199349  88.7032914 109.4162134  62.8249992  77.2734990 105.3229997
  61.9629992  77.1864990 104.9149997  62.8029992  78.1294990 105.7499997
  62.7040953  77.3773558 105.3249262  67.4879992  76.9954990 108.6969997
  67.9079992  76.5804990 109.4499997  66.5549992  76.8164990 108.8139997
  67.4193736  76.9144921 108.8158950  70.8139992  80.7504990 109.5509997
  70.2999992  80.6254990 110.3479997  70.6589992  81.6634990 109.3059997
  70.7226643  80.8567068 109.6270624  71.5769992  85.6114990  95.3119997
  71.6189992  85.3894990  94.3819997  72.4259992  86.0104990  95.5019997
  71.6975253  85.6350510  95.2103804  67.1499992  79.4874990  95.9819997
  66.8959992  79.5064990  96.9049997  66.8929992  78.6164990  95.6809997
  67.0805133  79.3723121  96.0675065  21.6279992  25.9754990  84.9239997
  22.2819992  25.4254990  85.3559997  21.6519992  25.7014990  84.0079997
  21.7207022  25.8632005  84.8591698  62.9159992  82.2384990 106.4179997
  62.2739992  82.1984990 107.1269997  62.9529992  83.1654990 106.1799997
  62.8331659  82.3582540 106.4828463  62.9129992  82.4594990 101.3299997
  62.0199992  82.1194990 101.2709997  63.3639992  82.0824990 100.5739997
  62.8517185  82.3620220 101.2197698  68.4489992  82.8754990 100.1469997
  68.0399992  83.6904990  99.8549997  69.1689992  82.7354990  99.5319997
  68.4903946  82.9679963 100.0239616  69.4529992  82.3214990 102.9609997
  69.2579992  82.9274990 102.2459997  69.6349992  81.4884990 102.5259997
  69.4509272  82.2917955 102.8044075  60.6659992  82.5594990 108.2849997
  60.6279992  82.9594990 109.1529997  60.1749992  81.7424990 108.3749997
  60.5944246  82.5038842 108.4161171  64.0319992  79.9334990  95.0829997
  63.6009992  79.4884990  95.8129997  63.3139992  80.3044990  94.5709997
  63.8759363  79.9227979  95.1136194  57.2739992  79.6754990 102.1349997
  57.9049992  79.6464990 102.8549997  57.7239992  79.2504990 101.4049997
  57.4210905  79.6140839 102.1347479  58.5479992  80.4214990  97.5589997
  59.0229992  81.0124990  96.9739997  57.8309992  80.9514990  97.9059997
  58.5160406  80.5741011  97.5258495  68.7169992  83.9594990 107.6319997
  69.0409992  83.3284990 106.9889997  68.2769992  83.4254990 108.2929997
  68.7018707  83.8008261 107.6333195  65.4949992  79.8874990 102.4159997
  64.5839992  79.9444990 102.7049997  65.9999992  79.8274990 103.2269997
  65.4386873  79.8871838 102.5651190  26.7839992  27.5254990  84.1399997
  27.3999992  26.9984990  84.6489997  26.1979992  26.8854990  83.7359997
  26.7890652  27.3668919  84.1550277  60.3229992  81.5164990 101.2429997
  59.4339992  81.6154990 100.9029997  60.6189992  80.6744990 100.8969997
  60.2414001  81.4162473 101.1497318  63.9759992  81.5164990  98.8989997
  64.9079992  81.6454990  99.0769997  63.7609992  82.1854990  98.2499997
  64.0744245  81.6246452  98.8355602  69.8999992  79.1224990 105.6799997
  69.2229992  79.2534990 106.3439997  69.4139992  78.9674990 104.8699997
  69.7417265  79.1194665 105.6613380  62.6499992  82.7104990  96.4659997
  62.1079992  82.3314990  95.7749997  63.4839992  82.9054990  96.0369997
  62.6884283  82.6849383  96.3134298  66.8149992  82.6744990 104.3029997
  67.3789992  82.1284990 103.7559997  66.6669992  82.1534990 105.0919997
  66.8723037  82.5291798 104.3347212  61.8169992  78.8114990 100.7209997
  61.4989992  77.9084990 100.6859997  62.5979992  78.8134990 100.1689997
  61.8791560  78.6881148 100.6414975  65.4409992  81.0634990 106.7169997
  64.6059992  81.5174990 106.8269997  65.9649992  81.3394990 107.4689997
  65.3975070  81.1629677 106.8337134  65.9849992  87.2764990  98.4019997
  65.2399992  86.7684990  98.0789997  65.8509992  87.3254990  99.3479997
  65.8648633  87.2135714  98.4857563  73.1349992  86.4094990 107.1879997
  73.7769992  86.8654990 106.6449997  72.3049992  86.5224990 106.7259997
  73.1107352  86.4873223 107.0510234  69.8829992  80.0904990  96.6009997
  68.9439992  80.2014990  96.4499997  70.1799992  80.9464990  96.9069997
  69.7946371  80.2215327  96.6217362  37.7669992  24.1624990  89.6589997
  37.0779992  24.8204990  89.5639997  37.7819992  23.9644990  90.5959997
  37.6747756  24.2257614  89.7725795  67.5049992  87.4604990 109.6389997
  67.1589992  87.0784990 110.4449997  67.3049992  88.3934990 109.7099997
  67.4305399  87.5343489 109.7590401  70.6009992  81.9574990  98.2619997
  71.4929992  81.8194990  98.5809997  70.6579992  82.7484990  97.7249997
  70.7307380  82.0454777  98.2330981  61.1099992  86.5714990 104.1709997
  61.8549992  86.5684990 103.5699997  61.1879992  85.7474990 104.6529997
  61.2224158  86.4597928 104.1539136  68.1109992  88.7344990  97.4269997
  67.8159992  89.5614990  97.8089997  67.4079992  88.1154990  97.6229997
  67.9755855  88.7639458  97.5057634  58.1179992  85.0314990 109.4859997
  58.3409992  84.6134990 110.3179997  57.5159992  84.4194990 109.0639997
  58.0670802  84.8915216 109.5427561  69.7549992  89.9224990 109.5889997
  68.8539992  90.1054990 109.3209997  69.7889992  90.1814990 110.5099997
  69.6363021  89.9825505 109.6768206  75.4859992  82.1664990  97.9559997
  74.9319992  81.7704990  97.2839997  75.5869992  83.0774990  97.6789997
  75.4237084  82.2353565  97.8264381  73.7809992  90.9524990  98.4209997
  73.4089992  90.1274990  98.7309997  74.0589992  90.7694990  97.5239997
  73.7675997  90.8146160  98.3421551  70.9419992  85.7604990 105.4429997
  70.0139992  85.5294990 105.4159997  71.3929992  84.9834990 105.1129997
  70.8758165  85.6237785 105.3946772  63.4849992  90.0894990 101.5759997
  64.0119992  90.8624990 101.3749997  62.6049992  90.3134990 101.2739997
  63.4381793  90.2256652 101.5076304  23.8179992  22.4964990  88.2359997
  23.5989992  23.0264990  87.4699997  23.1499992  22.7224990  88.8839997
  23.6977271  22.5996508  88.2186206  59.2399992  84.9514990  96.1629997
  59.8559992  85.5784990  96.5419997  58.3779992  85.2674990  96.4339997
  59.2078195  85.0800810  96.2515369  64.9119992  87.7524990 101.1519997
  64.6709992  88.6774990 101.1939997  64.1719992  87.2934990 101.5479997
  64.7788934  87.8170881 101.2113191  65.4269992  91.9014990 107.4669997
  65.7899992  92.7554990 107.2339997  65.9589992  91.6094990 108.2079997
  65.5485141  91.9788907 107.5352079  63.5949992  92.7734990 100.6969997
  62.6459992  92.8794990 100.7489997  63.9469992  93.5944990 101.0419997
  63.5126214  92.8989361 100.7507317  68.9709992  88.0004990 107.1679997
  68.5449992  87.7724990 107.9939997  69.5519992  87.2614990 106.9849997
  68.9911587  87.8694084 107.2564111  71.1739992  88.9294990  96.2419997
  71.5269992  88.5494990  97.0459997  70.2249992  88.8354990  96.3279997
  71.0940985  88.8647330  96.3637738  71.6299992  92.5524990 109.6369997
  71.0279992  91.9964990 109.1419997  71.9109992  93.2194990 109.0109997
  71.5855757  92.5665755 109.4845657  75.6769992  93.4084990  96.4429997
  76.4209992  93.9944990  96.3029997  74.9829992  93.9774990  96.7759997
  75.6849809  93.5655830  96.4688572  59.7519992  79.7854990 109.0439997
  58.8589992  80.1234990 108.9769997  59.6529992  78.9294990 109.4619997
  59.6165241  79.7160941 109.0912982  72.0399992  87.6014990  98.4679997
  71.7629992  86.8734990  99.0239997  72.9669992  87.7204990  98.6739997
  72.1274181  87.5180068  98.5718972  31.1869992  31.9964990  81.7799997
  30.8909992  31.6734990  80.9289997  30.8629992  32.8964990  81.8219997
  31.1026501  32.0739058  81.6690893  59.4029992  91.5894990 107.4789997
  59.6199992  90.6574990 107.4479997  59.6499992  91.8644990 108.3629997
  59.4660543  91.4990877 107.5941412  65.2649992  90.0414990  94.6889997
  65.5039992  89.2924990  94.1409997  64.9959992  89.6534990  95.5209997
  65.2612804  89.8866524  94.7266352  64.2019992  89.6114990  97.1449997
  64.3489992  89.0914990  97.9349997  64.1989992  90.5184990  97.4509997
  64.2217300  89.6628975  97.2945877  60.6549992  86.8634990  97.6549997
  59.9689992  87.2164990  98.2219997  61.1779992  87.6264990  97.4089997
  60.6319033  87.0148757  97.6992644  68.4859992  79.5264990 107.9339997
  69.1849992  79.6004990 108.5839997  68.1059992  78.6614990 108.0889997
  68.5302095  79.4197402 108.0437982  69.2709992  79.1784990  99.0309997
  69.4909992  79.6494990  98.2279997  69.8289992  79.5724990  99.7019997
  69.3765851  79.2963272  99.0116134  66.9399992  91.3084990  97.8939997
  66.1229992  91.8054990  97.9469997  67.4689992  91.7844990  97.2539997
  66.8997898  91.4408123  97.8147274  66.4709992  80.9064990  99.8659997
  67.2829992  81.4104990  99.9119997  66.2259992  80.7614990 100.7799997
  66.5491091  80.9559366  99.9958552  67.0069992  81.8924990 109.0509997
  67.1259992  82.4664990 109.8079997  67.6619992  81.2044990 109.1659997
  67.1118684  81.8780205 109.1701656  67.3549992  77.9874990 100.8039997
  67.0079992  78.6044990 101.4489997  68.0129992  78.4884990 100.3229997
  67.3965290  78.1396384 100.8271635  26.3869992  30.1714990  88.5239997
  25.6469992  30.7704990  88.6269997  27.1009992  30.7254990  88.2079997
  26.3823288  30.3282368  88.4953787  64.2779992  92.3524990  97.8759997
  64.4389992  93.1524990  97.3749997  64.0809992  92.6594990  98.7609997
  64.2733919  92.5034140  97.9270988  63.0119992  79.0504990  97.4919997
  62.9289992  79.9384990  97.8379997  63.9019992  78.7854990  97.7229997
  63.1209751  79.1362482  97.5706066  73.2109992  79.7994990 109.8859997
  72.2949992  80.0614990 109.7979997  73.5469992  79.7964990 108.9889997
  73.1309789  79.8349637 109.7527829  71.8129992  83.5494990 103.9819997
  71.0159992  83.1344990 103.6529997  72.2579992  82.8594990 104.4729997
  71.7640317  83.3993197 104.0033556  61.2709992  89.4774990  96.5519997
  61.8629992  90.1774990  96.8279997  61.7299992  89.0444990  95.8329997
  61.4141172  89.5147371  96.4925163  59.5869992  82.1424990  95.6679997
  59.5419992  83.0814990  95.8469997  58.6989992  81.9064990  95.3979997
  59.4608472  82.2391946  95.6560282  72.8999992  92.8054990 105.6039997
  72.7439992  93.4844990 104.9469997  73.8319992  92.8774990 105.8069997
  73.0047328  92.9081586 105.5415529  60.3949992  76.9234990 104.3409997
  60.1659992  76.9824990 103.4139997  59.9519992  76.1324990 104.6479997
  60.3037387  76.8246412 104.2555223  59.3249992  90.8644990 100.5019997
  58.4929992  91.3364990 100.5289997  59.8709992  91.3744990  99.9029997
  59.2848710  90.9980317 100.4247570  67.3029992  91.9044990  94.8269997
  66.6589992  91.2734990  95.1489997  68.0649992  91.3734990  94.5949997
  67.3178260  91.7463035  94.8397298  34.4939992  23.0004990  84.5439997
  34.2789992  22.2344990  85.0759997  35.1499992  23.4724990  85.0569997
  34.5532451  22.9594472  84.6861699  71.9069992  91.7214990  95.0609997
  72.1899992  90.9264990  95.5139997  72.6469992  91.9544990  94.4999997
  72.0457295  91.6442349  95.0471469  62.8619992  87.6304990  94.9179997
  62.9259992  86.8364990  95.4489997  63.5149992  87.5124990  94.2289997
  62.9591168  87.5057747  94.8975119  68.2139992  88.6774990  94.6539997
  67.9459992  88.8584990  95.5549997  68.0079992  87.7524990  94.5229997
  68.1494251  88.5771528  94.7596809  70.9109992  87.1724990 109.6019997
  71.6559992  87.7614990 109.4819997  70.1529992  87.7544990 109.6649997
  70.9105185  87.3317000 109.5940940  64.0109992  85.6034990  97.2239997
  63.5519992  85.1194990  97.9099997  64.2659992  84.9344990  96.5879997
  63.9826178  85.4468511  97.2319785  63.2999992  83.4964990 109.5799997
  62.6819992  84.1704990 109.8609997  63.6439992  83.8174990 108.7469997
  63.2618181  83.6323233 109.5058266  65.0819992  83.8464990  95.4869997
  64.9019992  83.6914990  94.5589997  66.0319992  83.9544990  95.5309997
  65.1858016  83.8399264  95.3662123  74.4719992  86.2004990  94.9319997
  74.1989992  85.7764990  94.1189997  74.5119992  87.1324990  94.7149997
  74.4400201  86.2683523  94.7913548  64.0519992  79.2204990 108.1549997
  64.5879992  79.6724990 107.5029997  63.1999992  79.1124990 107.7329997
  64.0101648  79.2677883 108.0086395  65.6339992  84.6604990 108.3949997
  66.3849992  84.5044990 107.8219997  65.2949992  85.5124990 108.1189997
  65.6909052  84.7542745 108.2793469  23.4119992  24.3884990  86.1889997
  24.0249992  25.0214990  86.5619997  23.9239992  23.9164990  85.5319997
  23.5651680  24.4114006  86.1512830  64.8579992  76.6774990 108.5869997
  64.7599992  77.6234990 108.4809997  64.1149992  76.3044990 108.1109997
  64.7442363  76.7565987 108.5082029  64.9799992  94.5364990  96.4879997
  65.9129992  94.6944990  96.6319997  64.7149992  95.2124990  95.8629997
  65.0719846  94.6494567  96.4232930  58.5479992  89.1734990  95.9709997
  59.4619992  89.2524990  96.2439997  58.5549992  88.4864990  95.3039997
  58.6740769  89.0914735  95.9182366  57.1969992  94.5664990 101.0479997
  56.5499992  94.1044990 100.5149997  57.5519992  93.8944990 101.6309997
  57.1563861  94.4124707 101.0537939  58.0669992  92.6464990 102.8529997
  57.7329992  91.7664990 103.0249997  58.2889992  92.9924990 103.7169997
  58.0512677  92.5727366 102.9934252  75.6159992  93.4564990 105.8329997
  75.5939992  93.6414990 106.7719997  76.3059992  94.0244990 105.4919997
  75.7063439  93.5586898 105.9154774  75.1789992  93.0234990 108.7549997
  74.6919992  92.2874990 108.3839997  75.7279992  92.6294990 109.4329997
  75.1866101  92.8696267 108.7959034  74.9309992  87.0694990  98.9069997
  75.7809992  87.4904990  99.0349997  74.9359992  86.3294990  99.5149997
  75.0479745  87.0271347  99.0066479  75.3249992  85.1234990 100.7309997
  74.5989992  84.6434990 101.1289997  75.9059992  85.3284990 101.4629997
  75.3042504  85.0855592 100.8844199  75.0839992  87.9084990 105.6789997
  75.9179992  87.5304990 105.3979997  75.1959992  88.8514990 105.5599997
  75.2131917  87.9842954 105.6244844  24.7939992  32.1364990  89.3109997
  24.7889992  33.0154990  88.9329997  23.9409992  32.0524990  89.7359997
  24.6779199  32.2455901  89.3166942  73.5699992  90.7864990 107.9859997
  72.9229992  91.1114990 108.6109997  73.0529992  90.3454990 107.3109997
  73.4114068  90.7714726 107.9804918  75.5929992  85.0244990  97.1219997
  75.0719992  85.3804990  96.4029997  75.5599992  85.6994990  97.7999997
  75.5171525  85.1645273  97.1151408  73.9419992  82.2634990  95.6729997
  74.0389992  82.9304990  94.9929997  73.8019992  81.4484990  95.1909997
  73.9363428  82.2445667  95.5148311  73.1119992  83.6444990 101.2939997
  72.9619992  82.6994990 101.2739997  72.7579992  83.9254990 102.1379997
  73.0436351  83.5531656 101.4053202  58.1469992  85.7224990 105.3039997
  58.3309992  85.6404990 104.3689997  58.9959992  85.5984990 105.7279997
  58.2870259  85.6944915 105.2331771  73.1899992  79.6714990  94.7899997
  73.7999992  79.3004990  95.4269997  72.3529992  79.2504990  94.9859997
  73.1603704  79.5637942  94.9037077  72.8219992  81.2264990  99.7559997
  73.1019992  80.3194990  99.8809997  73.5809992  81.6604990  99.3669997
  72.9629471  81.1610654  99.7205052  73.4339992  81.8084990 105.1919997
  74.3669992  82.0204990 105.1579997  73.1989992  81.9094990 106.1149997
  73.5298357  81.8511303 105.3120232  73.4629992  82.5454990 107.9679997
  72.6199992  82.8134990 108.3339997  73.9059992  83.3674990 107.7569997
  73.4074358  82.6933294 107.9895999  73.4359992  78.4894990  99.8049997
  73.6179992  78.0404990 100.6299997  72.8359992  77.9054990  99.3409997
  73.3798187  78.3490563  99.8552721  20.9159992  31.8074990  80.0929997
  20.6439992  32.0364990  79.2039997  20.9609992  32.6444990  80.5529997
  20.8848709  31.9521069  80.0336089  58.9659992  79.3054990 104.3359997
  59.4109992  78.5134990 104.6379997  59.4319992  80.0214990 104.7669997
  59.0899059  79.2939485 104.4356061  57.2699992  82.3044990 105.4049997
  57.7619992  82.0834990 104.6149997  57.6319992  83.1444990 105.6859997
  57.3863429  82.3878220 105.3347918  75.3019992  78.5574990  96.3329997
  75.7149992  77.8364990  95.8569997  75.9839992  79.2264990  96.3909997
  75.4505712  78.5494304  96.2758247  57.5829992  78.5624990  99.4599997
  56.6579992  78.7704990  99.3299997  58.0369992  79.0464990  98.7699997
  57.5177401  78.6563895  99.3489433  72.3539992  93.5464990 101.4049997
  73.0059992  93.1984990 100.7969997  72.8649992  94.0344990 102.0509997
  72.5122872  93.5648248 101.4090964  57.5469992  77.3004990 107.8039997
  56.8819992  77.0544990 108.4469997  57.1039992  77.9224990 107.2269997
  57.3961168  77.3509225 107.8139830  62.6929992  91.4494990 108.2069997
  62.2679992  92.2594990 107.9239997  63.5969992  91.5354990 107.9049997
  62.7571002  91.5718728 108.1274798  74.2669992  76.7244990 109.4899997
  73.4539992  77.0494990 109.1019997  74.4999992  75.9634990 108.9569997
  74.1872566  76.6661570 109.3649196  60.0949992  94.7064990 108.2539997
  59.3739992  95.1464990 107.8029997  59.7289992  94.4554990 109.1029997
  59.9469785  94.7327691 108.3069849  62.5619992  94.3064990 107.2839997
  61.6969992  94.3784990 107.6879997  62.5069992  94.8534990 106.4999997
  62.4362066  94.3902678 107.2333371  34.5409992  33.4284990  86.8059997
  33.5989992  33.4874990  86.9669997  34.8169992  34.3344990  86.6689997
  34.4495771  33.5590270  86.8094827  67.2729992  94.1944990 106.4599997
  66.8159992  94.7234990 105.8059997  67.4349992  94.7974990 107.1849997
  67.2323919  94.3483990 106.4685740  69.5999992  93.0724990 107.4049997
  68.6959992  93.2374990 107.1389997  70.0289992  93.9254990 107.3389997
  69.5342017  93.2104184 107.3596495  72.2039992  94.6424990 107.6999997
  72.0229992  95.5584990 107.4889997  72.3809992  94.2314990 106.8529997
  72.2031377  94.7123365 107.5567178  59.5099992  93.3294990 105.1649997
  59.4909992  92.9034990 106.0219997  60.3139992  93.0104990 104.7559997
  59.6161393  93.2280297 105.2270155  61.6509992  92.0394990 103.8199997
  61.4319992  91.1224990 103.9889997  62.4749992  92.1794990 104.2859997
  61.7324637  91.9329586 103.9061414  64.1879992  92.5094990 104.6679997
  64.4009992  91.6214990 104.3809997  64.2529992  92.4744990 105.6229997
  64.2259075  92.3833318 104.7577355  67.6969992  78.1734990 103.8129997
  67.0219992  77.5434990 104.0679997  68.2609992  77.6894990 103.2099997
  67.6809558  78.0219283 103.7663451  72.8389992  76.2804990 103.9249997
  73.4429992  76.8284990 103.4239997  71.9699992  76.5994990 103.6849997
  72.8041126  76.3987070 103.8239180  74.5659992  77.4194990 102.2589997
  75.1779992  76.9054990 101.7319997  74.9489992  78.2964990 102.2819997
  74.7013867  77.4677613 102.1900888  60.0229992  76.8074990 101.6349997
  59.2459992  76.5724990 101.1269997  60.5539992  76.0104990 101.6439997
  59.9884443  76.6676721 101.5667200  34.8409992  21.7154990  88.2229997
  34.1049992  22.3254990  88.1849997  35.5249992  22.1304990  87.6969997
  34.8325885  21.8551924  88.1466931  58.8599992  76.6054990  97.4379997
  59.2989992  77.2164990  96.8469997  58.2259992  77.1434990  97.9119997
  58.8344103  76.7619233  97.4211376  64.6029992  76.7334990 101.4479997
  65.4769992  77.1224990 101.4179997  64.4669992  76.5184990 102.3709997
  64.7043125  76.7577120 101.5686523  70.1589992  76.7634990 103.0969997
  70.2359992  76.8594990 102.1479997  69.8839992  75.8564990 103.2259997
  70.1323407  76.6539188 102.9843532  71.5129992  76.7894990  98.7899997
  70.8099992  77.4044990  98.5799997  71.0679992  75.9524990  98.9209997
  71.3566550  76.7604679  98.7789819  58.7609992  92.5534990  98.3359997
  58.0759992  92.5154990  97.6679997  58.7639992  93.4654990  98.6239997
  58.6677358  92.6716744  98.2836145  60.7209992  78.5214990  95.8809997
  61.2119992  77.8914990  95.3529997  61.3439992  78.8174990  96.5439997
  60.8725459  78.4752419  95.8983667  65.7469992  78.8144990  98.3379997
  65.9249992  78.1674990  99.0209997  65.6929992  79.6484990  98.8049997
  65.7640678  78.8386615  98.4946283  67.6249992  93.7624990  96.7329997
  68.4909992  94.1294990  96.5549997  67.3779992  93.3234990  95.9199997
  67.7102041  93.7533648  96.5985958  74.3339992  93.3254990  99.4129997
  74.1399992  92.5774990  98.8479997  74.2949992  94.0834990  98.8289997
  74.3021907  93.3255770  99.2568077  60.5789992  93.4734990  95.3609997
  60.3109992  93.7594990  96.2339997  61.3499992  92.9274990  95.5129997
  60.6465600  93.4388341  95.5011482  27.8439992  19.8014990  85.6889997
  27.7269992  18.8534990  85.6349997  26.9889992  20.1344990  85.9619997
  27.7123691  19.7165842  85.7185072  87.9579992  85.9634990 101.5929997
  88.0469992  86.9074990 101.4609997  87.3189992  85.6884990 100.9349997
  87.8838319  86.0554984 101.4860276  86.8909992  85.2184990 105.0119997
  86.8519992  84.5724990 105.7169997  86.5679992  84.7514990 104.2409997
  86.8420199  85.0670089 105.0042865  79.2589992  84.8324990 106.6049997
  79.2999992  84.2074990 107.3289997  79.9619992  85.4564990 106.7869997
  79.3596054  84.8313262 106.7286311  90.5969992  88.1574990 103.3139997
  90.1559992  87.4374990 103.7639997  90.5839992  88.8784990 103.9439997
  90.5348398  88.1563187 103.4607734  80.1829992  89.2824990 105.1399997
  79.8129992  88.4804990 104.7709997  81.1239992  89.1144990 105.1869997
  80.2595630  89.1498680 105.0957873  76.7929992  82.9424990 100.5329997
  76.3449992  83.7884990 100.5149997  76.2319992  82.3634990 100.0179997
  76.6558546  82.9799004 100.4608874  77.5029992  85.1044990 102.6589997
  77.7169992  84.3344990 103.1859997  78.2409992  85.1944990 102.0559997
  77.6320073  85.0113546 102.6495786  87.7079992  93.2614990 103.5259997
  88.3279992  92.5854990 103.2529997  87.4999992  93.0434990 104.4339997
  87.7647360  93.1394792 103.6114387  85.2799992  87.6504990 105.4179997
  85.5839992  86.9644990 104.8239997  86.0019992  87.7694990 106.0359997
  85.4191152  87.5727201 105.4202106  93.9429992  79.2524990 106.2789997
  93.9919992  79.8624990 107.0149997  94.3689992  79.7134990 105.5559997
  94.0072851  79.3983266 106.2820532  32.7929992  35.2094990  83.4309997
  33.2179992  34.5024990  82.9459997  33.1099992  36.0114990  83.0139997
  32.8940266  35.2210201  83.3082461  88.4209992  82.0444990 105.7459997
  88.5629992  81.0984990 105.7659997  88.3149992  82.2514990 104.8169997
  88.4261158  81.9429722 105.6232241  81.5759992  80.1464990 103.0179997
  81.6189992  81.0064990 102.5999997  81.1179992  79.5934990 102.3849997
  81.5199613  80.1895689 102.8751276  89.2979992  80.2774990 101.4189997
  89.9439992  79.9484990 102.0439997  89.8079992  80.7944990 100.7959997
  89.4554392  80.3023710 101.4203248  78.1959992  82.5434990 103.7799997
  78.8499992  81.9934990 104.2119997  78.2199992  82.2694990 102.8639997
  78.2887022  82.4312005 103.7151698  83.3519992  84.0934990 102.9959997
  83.9679992  83.5664990 103.5049997  82.7659992  83.4534990 102.5919997
  83.3570652  83.9348919 103.0110277  94.3349992  80.7304990 108.5149997
  93.6459992  81.3884990 108.4199997  94.3499992  80.5324990 109.4519997
  94.2427756  80.7937614 108.6285795  80.3859992  79.0644990 107.0919997
  80.1669992  79.5944990 106.3259997  79.7179992  79.2904990 107.7399997
  80.2657271  79.1676508 107.0746206  87.7549992  88.5644990 100.6359997
  87.4589992  88.2414990  99.7849997  87.4309992  89.4644990 100.6779997
  87.6706501  88.6419058 100.5250893  82.9549992  86.7394990 107.3799997
  82.2149992  87.3384990 107.4829997  83.6689992  87.2934990 107.0639997
  82.9503288  86.8962368 107.3513787  91.0619992  79.5684990 103.3999997
  90.8469992  78.8024990 103.9319997  91.7179992  80.0404990 103.9129997
  91.1212451  79.5274472 103.5421699  33.9519992  33.1104990  81.9399997
  33.6949992  32.4204990  81.3279997  34.0229992  32.6674990  82.7849997
  33.9264322  32.9561568  81.9705372  79.9799992  80.9564990 105.0449997
  80.5929992  81.5894990 105.4179997  80.4919992  80.4844990 104.3879997
  80.1331680  80.9794006 105.0072830  81.3619992  88.7044990 108.1669997
  81.3569992  89.5834990 107.7889997  80.5089992  88.6204990 108.5919997
  81.2459199  88.8135901 108.1726942  77.4839992  88.3754990  98.9489997
  77.2119992  88.6044990  98.0599997  77.5289992  89.2124990  99.4089997
  77.4528709  88.5201069  98.8896089  91.1089992  89.9964990 105.6619997
  90.1669992  90.0554990 105.8229997  91.3849992  90.9024990 105.5249997
  91.0175771  90.1270270 105.6654827  91.4089992  78.2834990 107.0789997
  90.6729992  78.8934990 107.0409997  92.0929992  78.6984990 106.5529997
  91.4005885  78.4231924 107.0026931  84.4119992  76.3694990 104.5449997
  84.2949992  75.4214990 104.4909997  83.5569992  76.7024990 104.8179997
  84.2803691  76.2845842 104.5745072  89.3609992  91.7774990 102.2869997
  89.7859992  91.0704990 101.8019997  89.6779992  92.5794990 101.8699997
  89.4620266  91.7890201 102.1642461  90.5199992  89.6784990 100.7959997
  90.2629992  88.9884990 100.1839997  90.5909992  89.2354990 101.6409997
  90.4944322  89.5241568 100.8265372  92.2059992  88.2454990 109.2729997
  92.3459992  87.6534990 108.5339997  92.3739992  89.1184990 108.9169997
  92.2478734  88.2824041 109.1236937  86.6789992  85.2074990  99.0449997
  85.9669992  85.7424990  98.6939997  87.3699992  85.2624990  98.3849997
  86.6748696  85.2882591  98.9076372  35.6379992  31.6774990  90.4169997
  35.7779992  31.0854990  89.6779997  35.8059992  32.5504990  90.0609997
  35.6798734  31.7144041  90.2676937  86.7329992  83.6644990  96.0839997
  87.4339992  83.6874990  96.7349997  87.0349992  83.0364990  95.4279997
  86.8698282  83.5827350  96.0844478  94.0479992  84.5854990 107.3389997
  93.3959992  85.2794990 107.4279997  94.5129992  84.7954990 106.5289997
  94.0215357  84.7089544 107.2417056  90.0849992  85.4164990  99.9969997
  89.3529992  85.6454990 100.5699997  90.5319992  84.7034990 100.4519997
  90.0452753  85.3513984 100.1369698  89.9819992  83.5914990 109.0649997
  90.0619992  84.3544990 109.6369997  89.3809992  83.8704990 108.3739997
  89.9117115  83.7337707 109.0499631  81.7299992  86.0474990 101.8799997
  81.3999992  85.6764990 101.0609997  82.3179992  85.3764990 102.2259997
  81.7644056  85.9061257 101.8149035  83.0969992  89.4754990 104.5609997
  83.0019992  88.8964990 103.8039997  83.8259992  89.1044990 105.0569997
  83.1826161  89.3460902 104.5245192  82.0969992  84.8154990 105.5129997
  82.6619992  84.9374990 104.7499997  82.4149992  85.4534990 106.1519997
  82.2173430  84.9184448 105.4949094  88.4059992  90.3194990 106.2469997
  88.1649992  90.9814990 106.8949997  88.2079992  89.4844990 106.6719997
  88.3462662  90.2972704 106.3931008  88.9559992  84.5794990  97.6819997
  89.5349992  84.7294990  98.4289997  89.3699992  85.0494990  96.9589997
  89.0913122  84.6636288  97.6865024  79.8969992  85.4134990 109.4589997
  79.9669992  86.0644990 110.1569997  79.0059992  85.5164990 109.1239997
  79.7861802  85.5164769 109.5092231  30.1109992  28.6394990  80.1889997
  29.3989992  29.1744990  79.8379997  30.8019992  28.6944990  79.5289997
  30.1068696  28.7202591  80.0516372  86.6819992  91.3154990 101.1179997
  87.1559992  91.6114990 101.8949997  86.1189992  92.0544990 100.8839997
  86.6708460  91.4558336 101.1927626  92.6539992  76.3294990  97.4949997
  91.7539992  76.4674990  97.7899997  92.9059992  77.1604990  97.0929997
  92.5647355  76.4608200  97.4810539  80.7199992  85.1164990  99.4689997
  80.4279992  85.8844990  98.9779997  80.0459992  84.4574990  99.3059997
  80.5888843  85.1324537  99.3797695  93.8439992  90.6954990  95.8719997
  93.9169992  91.6344990  96.0419997  94.7489992  90.3904990  95.8149997
  93.9764168  90.7828531  95.8875736  76.8129992  87.4794990 108.2839997
  76.3119992  87.4514990 107.4689997  76.8189992  86.5744990 108.5939997
  76.7451690  87.3532234 108.2142770  76.5639992  90.2604990 105.1679997
  77.5099992  90.1154990 105.1489997  76.4509992  91.0444990 105.7049997
  76.6783578  90.3466708 105.2380300  85.7399992  90.5004990 109.7259997
  85.8269992  91.3264990 110.2009997  84.8759992  90.1704990 109.9749997
  85.6351944  90.5689871 109.8246558  86.1539992  94.2724990  99.5319997
  86.0789992  94.1514990  98.5859997  86.1869992  95.2214990  99.6509997
  86.1481862  94.3842492  99.4184840  79.8079992  93.0614990 101.3129997
  79.9599992  92.7134990 102.1919997  78.9569992  92.7044990 101.0579997
  79.7137899  92.9656749 101.3987322  89.2559992  93.4264990  96.5349997
  89.6309992  92.6824990  96.0639997  89.2599992  93.1564990  97.4529997
  89.3078969  93.2880920  96.5946475  30.1649992  27.0964990  77.2279997
  30.8659992  27.1194990  77.8789997  30.4669992  26.4684990  76.5719997
  30.3018282  27.0147350  77.2284478  88.9249992  93.3524990  99.2839997
  87.9899992  93.4524990  99.4629997  89.2049992  92.6424990  99.8619997
  88.8349270  93.2702300  99.3865984  79.0619992  88.8034990 109.3269997
  79.2779992  88.4414990 110.1869997  78.2069992  88.4284990 109.1169997
  78.9759349  88.7032914 109.4162134  81.6809992  77.2734990 105.3229997
  80.8189992  77.1864990 104.9149997  81.6589992  78.1294990 105.7499997
  81.5600953  77.3773558 105.3249262  86.3439992  76.9954990 108.6969997
  86.7639992  76.5804990 109.4499997  85.4109992  76.8164990 108.8139997
  86.2753736  76.9144921 108.8158950  89.6699992  80.7504990 109.5509997
  89.1559992  80.6254990 110.3479997  89.5149992  81.6634990 109.3059997
  89.5786643  80.8567068 109.6270624  90.4329992  85.6114990  95.3119997
  90.4749992  85.3894990  94.3819997  91.2819992  86.0104990  95.5019997
  90.5535253  85.6350510  95.2103804  86.0059992  79.4874990  95.9819997
  85.7519992  79.5064990  96.9049997  85.7489992  78.6164990  95.6809997
  85.9365133  79.3723121  96.0675065  81.7719992  82.2384990 106.4179997
  81.1299992  82.1984990 107.1269997  81.8089992  83.1654990 106.1799997
  81.6891659  82.3582540 106.4828463  81.7689992  82.4594990 101.3299997
  80.8759992  82.1194990 101.2709997  82.2199992  82.0824990 100.5739997
  81.7077185  82.3620220 101.2197698  87.3049992  82.8754990 100.1469997
  86.8959992  83.6904990  99.8549997  88.0249992  82.7354990  99.5319997
  87.3463946  82.9679963 100.0239616  37.4799992  28.0174990  88.4829997
  36.8279992  28.7114990  88.5719997  37.9449992  28.2274990  87.6729997
  37.4535357  28.1409544  88.3857056  88.3089992  82.3214990 102.9609997
  88.1139992  82.9274990 102.2459997  88.4909992  81.4884990 102.5259997
  88.3069272  82.2917955 102.8044075  79.5219992  82.5594990 108.2849997
  79.4839992  82.9594990 109.1529997  79.0309992  81.7424990 108.3749997
  79.4504246  82.5038842 108.4161171  82.8879992  79.9334990  95.0829997
  82.4569992  79.4884990  95.8129997  82.1699992  80.3044990  94.5709997
  82.7319363  79.9227979  95.1136194  76.1299992  79.6754990 102.1349997
  76.7609992  79.6464990 102.8549997  76.5799992  79.2504990 101.4049997
  76.2770905  79.6140839 102.1347479  77.4039992  80.4214990  97.5589997
  77.8789992  81.0124990  96.9739997  76.6869992  80.9514990  97.9059997
  77.3720406  80.5741011  97.5258495  87.5729992  83.9594990 107.6319997
  87.8969992  83.3284990 106.9889997  87.1329992  83.4254990 108.2929997
  87.5578707  83.8008261 107.6333195  84.3509992  79.8874990 102.4159997
  83.4399992  79.9444990 102.7049997  84.8559992  79.8274990 103.2269997
  84.2946873  79.8871838 102.5651190  79.1789992  81.5164990 101.2429997
  78.2899992  81.6154990 100.9029997  79.4749992  80.6744990 100.8969997
  79.0974001  81.4162473 101.1497318  82.8319992  81.5164990  98.8989997
  83.7639992  81.6454990  99.0769997  82.6169992  82.1854990  98.2499997
  82.9304245  81.6246452  98.8355602  88.7559992  79.1224990 105.6799997
  88.0789992  79.2534990 106.3439997  88.2699992  78.9674990 104.8699997
  88.5977265  79.1194665 105.6613380  33.5169992  28.8484990  81.1409997
  32.7849992  29.0774990  81.7139997  33.9639992  28.1354990  81.5959997
  33.4772753  28.7833984  81.2809698  81.5059992  82.7104990  96.4659997
  80.9639992  82.3314990  95.7749997  82.3399992  82.9054990  96.0369997
  81.5444283  82.6849383  96.3134298  85.6709992  82.6744990 104.3029997
  86.2349992  82.1284990 103.7559997  85.5229992  82.1534990 105.0919997
  85.7283037  82.5291798 104.3347212  80.6729992  78.8114990 100.7209997
  80.3549992  77.9084990 100.6859997  81.4539992  78.8134990 100.1689997
  80.7351560  78.6881148 100.6414975  84.2969992  81.0634990 106.7169997
  83.4619992  81.5174990 106.8269997  84.8209992  81.3394990 107.4689997
  84.2535070  81.1629677 106.8337134  84.8409992  87.2764990  98.4019997
  84.0959992  86.7684990  98.0789997  84.7069992  87.3254990  99.3479997
  84.7208633  87.2135714  98.4857563  91.9909992  86.4094990 107.1879997
  92.6329992  86.8654990 106.6449997  91.1609992  86.5224990 106.7259997
  91.9667352  86.4873223 107.0510234  88.7389992  80.0904990  96.6009997
  87.7999992  80.2014990  96.4499997  89.0359992  80.9464990  96.9069997
  88.6506371  80.2215327  96.6217362  86.3609992  87.4604990 109.6389997
  86.0149992  87.0784990 110.4449997  86.1609992  88.3934990 109.7099997
  86.2865399  87.5343489 109.7590401  89.4569992  81.9574990  98.2619997
  90.3489992  81.8194990  98.5809997  89.5139992  82.7484990  97.7249997
  89.5867380  82.0454777  98.2330981  79.9659992  86.5714990 104.1709997
  80.7109992  86.5684990 103.5699997  80.0439992  85.7474990 104.6529997
  80.0784158  86.4597928 104.1539136  33.4139992  27.0234990  90.2089997
  33.4939992  27.7864990  90.7809997  32.8129992  27.3024990  89.5179997
  33.3437115  27.1657707  90.1939631  86.9669992  88.7344990  97.4269997
  86.6719992  89.5614990  97.8089997  86.2639992  88.1154990  97.6229997
  86.8315855  88.7639458  97.5057634  76.9739992  85.0314990 109.4859997
  77.1969992  84.6134990 110.3179997  76.3719992  84.4194990 109.0639997
  76.9230802  84.8915216 109.5427561  88.6109992  89.9224990 109.5889997
  87.7099992  90.1054990 109.3209997  88.6449992  90.1814990 110.5099997
  88.4923021  89.9825505 109.6768206  94.3419992  82.1664990  97.9559997
  93.7879992  81.7704990  97.2839997  94.4429992  83.0774990  97.6789997
  94.2797084  82.2353565  97.8264381  92.6369992  90.9524990  98.4209997
  92.2649992  90.1274990  98.7309997  92.9149992  90.7694990  97.5239997
  92.6235997  90.8146160  98.3421551  89.7979992  85.7604990 105.4429997
  88.8699992  85.5294990 105.4159997  90.2489992  84.9834990 105.1129997
  89.7318165  85.6237785 105.3946772  82.3409992  90.0894990 101.5759997
  82.8679992  90.8624990 101.3749997  81.4609992  90.3134990 101.2739997
  82.2941793  90.2256652 101.5076304  78.0959992  84.9514990  96.1629997
  78.7119992  85.5784990  96.5419997  77.2339992  85.2674990  96.4339997
  78.0638195  85.0800810  96.2515369  83.7679992  87.7524990 101.1519997
  83.5269992  88.6774990 101.1939997  83.0279992  87.2934990 101.5479997
  83.6348934  87.8170881 101.2113191  84.2829992  91.9014990 107.4669997
  84.6459992  92.7554990 107.2339997  84.8149992  91.6094990 108.2079997
  84.4045141  91.9788907 107.5352079  25.1619992  29.4794990  83.0239997
  24.8319992  29.1084990  82.2049997  25.7499992  28.8084990  83.3699997
  25.1964056  29.3381257  82.9589035  82.4509992  92.7734990 100.6969997
  81.5019992  92.8794990 100.7489997  82.8029992  93.5944990 101.0419997
  82.3686214  92.8989361 100.7507317  87.8269992  88.0004990 107.1679997
  87.4009992  87.7724990 107.9939997  88.4079992  87.2614990 106.9849997
  87.8471587  87.8694084 107.2564111  90.0299992  88.9294990  96.2419997
  90.3829992  88.5494990  97.0459997  89.0809992  88.8354990  96.3279997
  89.9500985  88.8647330  96.3637738  90.4859992  92.5524990 109.6369997
  89.8839992  91.9964990 109.1419997  90.7669992  93.2194990 109.0109997
  90.4415757  92.5665755 109.4845657  94.5329992  93.4084990  96.4429997
  95.2769992  93.9944990  96.3029997  93.8389992  93.9774990  96.7759997
  94.5409809  93.5655830  96.4688572  78.6079992  79.7854990 109.0439997
  77.7149992  80.1234990 108.9769997  78.5089992  78.9294990 109.4619997
  78.4725241  79.7160941 109.0912982  90.8959992  87.6014990  98.4679997
  90.6189992  86.8734990  99.0239997  91.8229992  87.7204990  98.6739997
  90.9834181  87.5180068  98.5718972  78.2589992  91.5894990 107.4789997
  78.4759992  90.6574990 107.4479997  78.5059992  91.8644990 108.3629997
  78.3220543  91.4990877 107.5941412  84.1209992  90.0414990  94.6889997
  84.3599992  89.2924990  94.1409997  83.8519992  89.6534990  95.5209997
  84.1172804  89.8866524  94.7266352  83.0579992  89.6114990  97.1449997
  83.2049992  89.0914990  97.9349997  83.0549992  90.5184990  97.4509997
  83.0777300  89.6628975  97.2945877  26.5289992  32.9074990  85.7049997
  26.4339992  32.3284990  84.9479997  27.2579992  32.5364990  86.2009997
  26.6146161  32.7780902  85.6685191  79.5109992  86.8634990  97.6549997
  78.8249992  87.2164990  98.2219997  80.0339992  87.6264990  97.4089997
  79.4879033  87.0148757  97.6992644  87.3419992  79.5264990 107.9339997
  88.0409992  79.6004990 108.5839997  86.9619992  78.6614990 108.0889997
  87.3862095  79.4197402 108.0437982  88.1269992  79.1784990  99.0309997
  88.3469992  79.6494990  98.2279997  88.6849992  79.5724990  99.7019997
  88.2325851  79.2963272  99.0116134  85.7959992  91.3084990  97.8939997
  84.9789992  91.8054990  97.9469997  86.3249992  91.7844990  97.2539997
  85.7557898  91.4408123  97.8147274  85.3269992  80.9064990  99.8659997
  86.1389992  81.4104990  99.9119997  85.0819992  80.7614990 100.7799997
  85.4051091  80.9559366  99.9958552  85.8629992  81.8924990 109.0509997
  85.9819992  82.4664990 109.8079997  86.5179992  81.2044990 109.1659997
  85.9678684  81.8780205 109.1701656  86.2109992  77.9874990 100.8039997
  85.8639992  78.6044990 101.4489997  86.8689992  78.4884990 100.3229997
  86.2525290  78.1396384 100.8271635  83.1339992  92.3524990  97.8759997
  83.2949992  93.1524990  97.3749997  82.9369992  92.6594990  98.7609997
  83.1293919  92.5034140  97.9270988  81.8679992  79.0504990  97.4919997
  81.7849992  79.9384990  97.8379997  82.7579992  78.7854990  97.7229997
  81.9769751  79.1362482  97.5706066  92.0669992  79.7994990 109.8859997
  91.1509992  80.0614990 109.7979997  92.4029992  79.7964990 108.9889997
  91.9869789  79.8349637 109.7527829  25.5289992  28.2474990  86.6569997
  26.0939992  28.3694990  85.8939997  25.8469992  28.8854990  87.2959997
  25.6493430  28.3504448  86.6389094  90.6689992  83.5494990 103.9819997
  89.8719992  83.1344990 103.6529997  91.1139992  82.8594990 104.4729997
  90.6200317  83.3993197 104.0033556  80.1269992  89.4774990  96.5519997
  80.7189992  90.1774990  96.8279997  80.5859992  89.0444990  95.8329997
  80.2701172  89.5147371  96.4925163  78.4429992  82.1424990  95.6679997
  78.3979992  83.0814990  95.8469997  77.5549992  81.9064990  95.3979997
  78.3168472  82.2391946  95.6560282  91.7559992  92.8054990 105.6039997
  91.5999992  93.4844990 104.9469997  92.6879992  92.8774990 105.8069997
  91.8607328  92.9081586 105.5415529  79.2509992  76.9234990 104.3409997
  79.0219992  76.9824990 103.4139997  78.8079992  76.1324990 104.6479997
  79.1597387  76.8246412 104.2555223  78.1809992  90.8644990 100.5019997
  77.3489992  91.3364990 100.5289997  78.7269992  91.3744990  99.9029997
  78.1408710  90.9980317 100.4247570  86.1589992  91.9044990  94.8269997
  85.5149992  91.2734990  95.1489997  86.9209992  91.3734990  94.5949997
  86.1738260  91.7463035  94.8397298  90.7629992  91.7214990  95.0609997
  91.0459992  90.9264990  95.5139997  91.5029992  91.9544990  94.4999997
  90.9017295  91.6442349  95.0471469  81.7179992  87.6304990  94.9179997
  81.7819992  86.8364990  95.4489997  82.3709992  87.5124990  94.2289997
  81.8151168  87.5057748  94.8975119  87.0699992  88.6774990  94.6539997
  86.8019992  88.8584990  95.5549997  86.8639992  87.7524990  94.5229997
  87.0054251  88.5771528  94.7596809  31.8379992  33.7514990  87.3909997
  31.5969992  34.4134990  88.0389997  31.6399992  32.9164990  87.8159997
  31.7782662  33.7292704  87.5371008  89.7669992  87.1724990 109.6019997
  90.5119992  87.7614990 109.4819997  89.0089992  87.7544990 109.6649997
  89.7665185  87.3317000 109.5940940  82.8669992  85.6034990  97.2239997
  82.4079992  85.1194990  97.9099997  83.1219992  84.9344990  96.5879997
  82.8386178  85.4468511  97.2319785  82.1559992  83.4964990 109.5799997
  81.5379992  84.1704990 109.8609997  82.4999992  83.8174990 108.7469997
  82.1178181  83.6323233 109.5058266  83.9379992  83.8464990  95.4869997
  83.7579992  83.6914990  94.5589997  84.8879992  83.9544990  95.5309997
  84.0418016  83.8399264  95.3662123  93.3279992  86.2004990  94.9319997
  93.0549992  85.7764990  94.1189997  93.3679992  87.1324990  94.7149997
  93.2960201  86.2683523  94.7913548  82.9079992  79.2204990 108.1549997
  83.4439992  79.6724990 107.5029997  82.0559992  79.1124990 107.7329997
  82.8661648  79.2677883 108.0086395  84.4899992  84.6604990 108.3949997
  85.2409992  84.5044990 107.8219997  84.1509992  85.5124990 108.1189997
  84.5469052  84.7542745 108.2793469  83.7139992  76.6774990 108.5869997
  83.6159992  77.6234990 108.4809997  82.9709992  76.3044990 108.1109997
  83.6002363  76.7565987 108.5082029  83.8359992  94.5364990  96.4879997
  84.7689992  94.6944990  96.6319997  83.5709992  95.2124990  95.8629997
  83.9279846  94.6494567  96.4232930  77.4039992  89.1734990  95.9709997
  78.3179992  89.2524990  96.2439997  77.4109992  88.4864990  95.3039997
  77.5300769  89.0914735  95.9182366  26.4089992  32.6474990  91.3739997
  26.0969992  33.4294990  91.8299997  25.7589992  32.4944990  90.6879997
  26.2784643  32.7338019  91.3436657  76.0529992  94.5664990 101.0479997
  75.4059992  94.1044990 100.5149997  76.4079992  93.8944990 101.6309997
  76.0123861  94.4124707 101.0537939  76.9229992  92.6464990 102.8529997
  76.5889992  91.7664990 103.0249997  77.1449992  92.9924990 103.7169997
  76.9072677  92.5727366 102.9934252  94.4719992  93.4564990 105.8329997
  94.4499992  93.6414990 106.7719997  95.1619992  94.0244990 105.4919997
  94.5623439  93.5586898 105.9154774  94.0349992  93.0234990 108.7549997
  93.5479992  92.2874990 108.3839997  94.5839992  92.6294990 109.4329997
  94.0426101  92.8696267 108.7959034  93.7869992  87.0694990  98.9069997
  94.6369992  87.4904990  99.0349997  93.7919992  86.3294990  99.5149997
  93.9039745  87.0271347  99.0066479  94.1809992  85.1234990 100.7309997
  93.4549992  84.6434990 101.1289997  94.7619992  85.3284990 101.4629997
  94.1602504  85.0855592 100.8844199  93.9399992  87.9084990 105.6789997
  94.7739992  87.5304990 105.3979997  94.0519992  88.8514990 105.5599997
  94.0691917  87.9842954 105.6244844  92.4259992  90.7864990 107.9859997
  91.7789992  91.1114990 108.6109997  91.9089992  90.3454990 107.3109997
  92.2674068  90.7714726 107.9804918  94.4489992  85.0244990  97.1219997
  93.9279992  85.3804990  96.4029997  94.4159992  85.6994990  97.7999997
  94.3731525  85.1645273  97.1151408  92.7979992  82.2634990  95.6729997
  92.8949992  82.9304990  94.9929997  92.6579992  81.4484990  95.1909997
  92.7923428  82.2445667  95.5148311  32.3879992  28.0114990  78.8259997
  32.9669992  28.1614990  79.5729997  32.8019992  28.4814990  78.1029997
  32.5233122  28.0956288  78.8305024  91.9679992  83.6444990 101.2939997
  91.8179992  82.6994990 101.2739997  91.6139992  83.9254990 102.1379997
  91.8996351  83.5531656 101.4053202  77.0029992  85.7224990 105.3039997
  77.1869992  85.6404990 104.3689997  77.8519992  85.5984990 105.7279997
  77.1430259  85.6944915 105.2331771  92.0459992  79.6714990  94.7899997
  92.6559992  79.3004990  95.4269997  91.2089992  79.2504990  94.9859997
  92.0163704  79.5637942  94.9037077  91.6779992  81.2264990  99.7559997
  91.9579992  80.3194990  99.8809997  92.4369992  81.6604990  99.3669997
  91.8189471  81.1610654  99.7205052  92.2899992  81.8084990 105.1919997
  93.2229992  82.0204990 105.1579997  92.0549992  81.9094990 106.1149997
  92.3858357  81.8511303 105.3120232  92.3189992  82.5454990 107.9679997
  91.4759992  82.8134990 108.3339997  92.7619992  83.3674990 107.7569997
  92.2634358  82.6933294 107.9895999  92.2919992  78.4894990  99.8049997
  92.4739992  78.0404990 100.6299997  91.6919992  77.9054990  99.3409997
  92.2358187  78.3490563  99.8552721  77.8219992  79.3054990 104.3359997
  78.2669992  78.5134990 104.6379997  78.2879992  80.0214990 104.7669997
  77.9459059  79.2939485 104.4356061  76.1259992  82.3044990 105.4049997
  76.6179992  82.0834990 104.6149997  76.4879992  83.1444990 105.6859997
  76.2423429  82.3878220 105.3347918  94.1579992  78.5574990  96.3329997
  94.5709992  77.8364990  95.8569997  94.8399992  79.2264990  96.3909997
  94.3065712  78.5494304  96.2758247  23.3289992  28.8454990  90.6029997
  23.3989992  29.4964990  91.3009997  22.4379992  28.9484990  90.2679997
  23.2181802  28.9484769  90.6532231  76.4389992  78.5624990  99.4599997
  75.5139992  78.7704990  99.3299997  76.8929992  79.0464990  98.7699997
  76.3737401  78.6563895  99.3489433  91.2099992  93.5464990 101.4049997
  91.8619992  93.1984990 100.7969997  91.7209992  94.0344990 102.0509997
  91.3682872  93.5648248 101.4090964  76.4029992  77.3004990 107.8039997
  75.7379992  77.0544990 108.4469997  75.9599992  77.9224990 107.2269997
  76.2521168  77.3509225 107.8139830  81.5489992  91.4494990 108.2069997
  81.1239992  92.2594990 107.9239997  82.4529992  91.5354990 107.9049997
  81.6131002  91.5718728 108.1274798  93.1229992  76.7244990 109.4899997
  92.3099992  77.0494990 109.1019997  93.3559992  75.9634990 108.9569997
  93.0432566  76.6661570 109.3649196  78.9509992  94.7064990 108.2539997
  78.2299992  95.1464990 107.8029997  78.5849992  94.4554990 109.1029997
  78.8029785  94.7327691 108.3069849  81.4179992  94.3064990 107.2839997
  80.5529992  94.3784990 107.6879997  81.3629992  94.8534990 106.4999997
  81.2922066  94.3902678 107.2333371  86.1289992  94.1944990 106.4599997
  85.6719992  94.7234990 105.8059997  86.2909992  94.7974990 107.1849997
  86.0883919  94.3483990 106.4685740  88.4559992  93.0724990 107.4049997
  87.5519992  93.2374990 107.1389997  88.8849992  93.9254990 107.3389997
  88.3902017  93.2104184 107.3596495  91.0599992  94.6424990 107.6999997
  90.8789992  95.5584990 107.4889997  91.2369992  94.2314990 106.8529997
  91.0591377  94.7123365 107.5567178  30.1139992  34.7474990  82.2619997
  30.5879992  35.0434990  83.0389997  29.5509992  35.4864990  82.0279997
  30.1028460  34.8878336  82.3367626  78.3659992  93.3294990 105.1649997
  78.3469992  92.9034990 106.0219997  79.1699992  93.0104990 104.7559997
  78.4721393  93.2280297 105.2270155  80.5069992  92.0394990 103.8199997
  80.2879992  91.1224990 103.9889997  81.3309992  92.1794990 104.2859997
  80.5884637  91.9329586 103.9061414  83.0439992  92.5094990 104.6679997
  83.2569992  91.6214990 104.3809997  83.1089992  92.4744990 105.6229997
  83.0819075  92.3833318 104.7577355  86.5529992  78.1734990 103.8129997
  85.8779992  77.5434990 104.0679997  87.1169992  77.6894990 103.2099997
  86.5369558  78.0219283 103.7663451  91.6949992  76.2804990 103.9249997
  92.2989992  76.8284990 103.4239997  90.8259992  76.5994990 103.6849997
  91.6601126  76.3987070 103.8239180  93.4219992  77.4194990 102.2589997
  94.0339992  76.9054990 101.7319997  93.8049992  78.2964990 102.2819997
  93.5573867  77.4677613 102.1900888  78.8789992  76.8074990 101.6349997
  78.1019992  76.5724990 101.1269997  79.4099992  76.0104990 101.6439997
  78.8444443  76.6676721 101.5667200  77.7159992  76.6054990  97.4379997
  78.1549992  77.2164990  96.8469997  77.0819992  77.1434990  97.9119997
  77.6904103  76.7619233  97.4211376  83.4589992  76.7334990 101.4479997
  84.3329992  77.1224990 101.4179997  83.3229992  76.5184990 102.3709997
  83.5603125  76.7577120 101.5686523  89.0149992  76.7634990 103.0969997
  89.0919992  76.8594990 102.1479997  88.7399992  75.8564990 103.2259997
  88.9883407  76.6539188 102.9843532  24.6479992  34.7184990  92.1379997
  24.6559992  34.5824990  91.1899997  23.7319992  34.6014990  92.3899997
  24.5252512  34.6840663  92.0423179  90.3689992  76.7894990  98.7899997
  89.6659992  77.4044990  98.5799997  89.9239992  75.9524990  98.9209997
  90.2126550  76.7604679  98.7789819  77.6169992  92.5534990  98.3359997
  76.9319992  92.5154990  97.6679997  77.6199992  93.4654990  98.6239997
  77.5237358  92.6716744  98.2836145  79.5769992  78.5214990  95.8809997
  80.0679992  77.8914990  95.3529997  80.1999992  78.8174990  96.5439997
  79.7285459  78.4752419  95.8983667  84.6029992  78.8144990  98.3379997
  84.7809992  78.1674990  99.0209997  84.5489992  79.6484990  98.8049997
  84.6200678  78.8386615  98.4946283  86.4809992  93.7624990  96.7329997
  87.3469992  94.1294990  96.5549997  86.2339992  93.3234990  95.9199997
  86.5662041  93.7533648  96.5985958  93.1899992  93.3254990  99.4129997
  92.9959992  92.5774990  98.8479997  93.1509992  94.0834990  98.8289997
  93.1581907  93.3255770  99.2568077  79.4349992  93.4734990  95.3609997
  79.1669992  93.7594990  96.2339997  80.2059992  92.9274990  95.5129997
  79.5025600  93.4388341  95.5011482 106.8139992  85.9634990 101.5929997
 106.9029992  86.9074990 101.4609997 106.1749992  85.6884990 100.9349997
 106.7398319  86.0554984 101.4860276 105.7469992  85.2184990 105.0119997
 105.7079992  84.5724990 105.7169997 105.4239992  84.7514990 104.2409997
 105.6980199  85.0670089 105.0042865  98.1149992  84.8324990 106.6049997
  98.1559992  84.2074990 107.3289997  98.8179992  85.4564990 106.7869997
  98.2156054  84.8313262 106.7286311  36.0859992  19.7614990  78.6389997
  35.1859992  19.8994990  78.9339997  36.3379992  20.5924990  78.2369997
  35.9967355  19.8928200  78.6250539 109.4529992  88.1574990 103.3139997
 109.0119992  87.4374990 103.7639997 109.4399992  88.8784990 103.9439997
 109.3908398  88.1563187 103.4607734  99.0389992  89.2824990 105.1399997
  98.6689992  88.4804990 104.7709997  99.9799992  89.1144990 105.1869997
  99.1155630  89.1498680 105.0957873  95.6489992  82.9424990 100.5329997
  95.2009992  83.7884990 100.5149997  95.0879992  82.3634990 100.0179997
  95.5118546  82.9799004 100.4608874  96.3589992  85.1044990 102.6589997
  96.5729992  84.3344990 103.1859997  97.0969992  85.1944990 102.0559997
  96.4880073  85.0113546 102.6495786 106.5639992  93.2614990 103.5259997
 107.1839992  92.5854990 103.2529997 106.3559992  93.0434990 104.4339997
 106.6207360  93.1394792 103.6114387 104.1359992  87.6504990 105.4179997
 104.4399992  86.9644990 104.8239997 104.8579992  87.7694990 106.0359997
 104.2751152  87.5727201 105.4202106 112.7989992  79.2524990 106.2789997
 112.8479992  79.8624990 107.0149997 113.2249992  79.7134990 105.5559997
 112.8632851  79.3983266 106.2820532 107.2769992  82.0444990 105.7459997
 107.4189992  81.0984990 105.7659997 107.1709992  82.2514990 104.8169997
 107.2821158  81.9429722 105.6232241 100.4319992  80.1464990 103.0179997
 100.4749992  81.0064990 102.5999997  99.9739992  79.5934990 102.3849997
 100.3759613  80.1895689 102.8751276 108.1539992  80.2774990 101.4189997
 108.7999992  79.9484990 102.0439997 108.6639992  80.7944990 100.7959997
 108.3114392  80.3023710 101.4203248  24.1519992  28.5484990  80.6129997
  23.8599992  29.3164990  80.1219997  23.4779992  27.8894990  80.4499997
  24.0208843  28.5644537  80.5237695  97.0519992  82.5434990 103.7799997
  97.7059992  81.9934990 104.2119997  97.0759992  82.2694990 102.8639997
  97.1447022  82.4312005 103.7151698 102.2079992  84.0934990 102.9959997
 102.8239992  83.5664990 103.5049997 101.6219992  83.4534990 102.5919997
 102.2130652  83.9348919 103.0110277 113.1909992  80.7304990 108.5149997
 112.5019992  81.3884990 108.4199997 113.2059992  80.5324990 109.4519997
 113.0987756  80.7937614 108.6285795  99.2419992  79.0644990 107.0919997
  99.0229992  79.5944990 106.3259997  98.5739992  79.2904990 107.7399997
  99.1217271  79.1676508 107.0746206 106.6109992  88.5644990 100.6359997
 106.3149992  88.2414990  99.7849997 106.2869992  89.4644990 100.6779997
 106.5266501  88.6419058 100.5250893 101.8109992  86.7394990 107.3799997
 101.0709992  87.3384990 107.4829997 102.5249992  87.2934990 107.0639997
 101.8063288  86.8962368 107.3513787 109.9179992  79.5684990 103.3999997
 109.7029992  78.8024990 103.9319997 110.5739992  80.0404990 103.9129997
 109.9772451  79.5274472 103.5421699  98.8359992  80.9564990 105.0449997
  99.4489992  81.5894990 105.4179997  99.3479992  80.4844990 104.3879997
  98.9891680  80.9794006 105.0072830 100.2179992  88.7044990 108.1669997
 100.2129992  89.5834990 107.7889997  99.3649992  88.6204990 108.5919997
 100.1019199  88.8135901 108.1726942  96.3399992  88.3754990  98.9489997
  96.0679992  88.6044990  98.0599997  96.3849992  89.2124990  99.4089997
  96.3088709  88.5201069  98.8896089  37.2759992  34.1274990  77.0159997
  37.3489992  35.0664990  77.1859997  38.1809992  33.8224990  76.9589997
  37.4084168  34.2148531  77.0315736 109.9649992  89.9964990 105.6619997
 109.0229992  90.0554990 105.8229997 110.2409992  90.9024990 105.5249997
 109.8735771  90.1270270 105.6654827 110.2649992  78.2834990 107.0789997
 109.5289992  78.8934990 107.0409997 110.9489992  78.6984990 106.5529997
 110.2565885  78.4231924 107.0026931 103.2679992  76.3694990 104.5449997
 103.1509992  75.4214990 104.4909997 102.4129992  76.7024990 104.8179997
 103.1363691  76.2845842 104.5745072 108.2169992  91.7774990 102.2869997
 108.6419992  91.0704990 101.8019997 108.5339992  92.5794990 101.8699997
 108.3180266  91.7890201 102.1642461 109.3759992  89.6784990 100.7959997
 109.1189992  88.9884990 100.1839997 109.4469992  89.2354990 101.6409997
 109.3504322  89.5241568 100.8265372 111.0619992  88.2454990 109.2729997
 111.2019992  87.6534990 108.5339997 111.2299992  89.1184990 108.9169997
 111.1038734  88.2824041 109.1236937 105.5349992  85.2074990  99.0449997
 104.8229992  85.7424990  98.6939997 106.2259992  85.2624990  98.3849997
 105.5308696  85.2882591  98.9076372 105.5889992  83.6644990  96.0839997
 106.2899992  83.6874990  96.7349997 105.8909992  83.0364990  95.4279997
 105.7258282  83.5827350  96.0844478 112.9039992  84.5854990 107.3389997
 112.2519992  85.2794990 107.4279997 113.3689992  84.7954990 106.5289997
 112.8775357  84.7089544 107.2417056 108.9409992  85.4164990  99.9969997
 108.2089992  85.6454990 100.5699997 109.3879992  84.7034990 100.4519997
 108.9012753  85.3513984 100.1369698  20.2449992  30.9114990  89.4279997
  19.7439992  30.8834990  88.6129997  20.2509992  30.0064990  89.7379997
  20.1771690  30.7852234  89.3582770 108.8379992  83.5914990 109.0649997
 108.9179992  84.3544990 109.6369997 108.2369992  83.8704990 108.3739997
 108.7677115  83.7337707 109.0499631 100.5859992  86.0474990 101.8799997
 100.2559992  85.6764990 101.0609997 101.1739992  85.3764990 102.2259997
 100.6204056  85.9061257 101.8149035 101.9529992  89.4754990 104.5609997
 101.8579992  88.8964990 103.8039997 102.6819992  89.1044990 105.0569997
 102.0386161  89.3460902 104.5245192 100.9529992  84.8154990 105.5129997
 101.5179992  84.9374990 104.7499997 101.2709992  85.4534990 106.1519997
 101.0733430  84.9184448 105.4949094 107.2619992  90.3194990 106.2469997
 107.0209992  90.9814990 106.8949997 107.0639992  89.4844990 106.6719997
 107.2022662  90.2972704 106.3931008 107.8119992  84.5794990  97.6819997
 108.3909992  84.7294990  98.4289997 108.2259992  85.0494990  96.9589997
 107.9473122  84.6636288  97.6865024  98.7529992  85.4134990 109.4589997
  98.8229992  86.0644990 110.1569997  97.8619992  85.5164990 109.1239997
  98.6421802  85.5164769 109.5092231 105.5379992  91.3154990 101.1179997
 106.0119992  91.6114990 101.8949997 104.9749992  92.0544990 100.8839997
 105.5268460  91.4558336 101.1927626 111.5099992  76.3294990  97.4949997
 110.6099992  76.4674990  97.7899997 111.7619992  77.1604990  97.0929997
 111.4207355  76.4608200  97.4810539  99.5759992  85.1164990  99.4689997
  99.2839992  85.8844990  98.9779997  98.9019992  84.4574990  99.3059997
  99.4448843  85.1324537  99.3797695  19.9959992  33.6924990  86.3119997
  20.9419992  33.5474990  86.2929997  19.8829992  34.4764990  86.8489997
  20.1103578  33.7786708  86.3820300 112.6999992  90.6954990  95.8719997
 112.7729992  91.6344990  96.0419997 113.6049992  90.3904990  95.8149997
 112.8324168  90.7828531  95.8875736  95.6689992  87.4794990 108.2839997
  95.1679992  87.4514990 107.4689997  95.6749992  86.5744990 108.5939997
  95.6011690  87.3532234 108.2142770  95.4199992  90.2604990 105.1679997
  96.3659992  90.1154990 105.1489997  95.3069992  91.0444990 105.7049997
  95.5343578  90.3466708 105.2380300 104.5959992  90.5004990 109.7259997
 104.6829992  91.3264990 110.2009997 103.7319992  90.1704990 109.9749997
 104.4911944  90.5689871 109.8246558 105.0099992  94.2724990  99.5319997
 104.9349992  94.1514990  98.5859997 105.0429992  95.2214990  99.6509997
 105.0041862  94.3842492  99.4184840  98.6639992  93.0614990 101.3129997
  98.8159992  92.7134990 102.1919997  97.8129992  92.7044990 101.0579997
  98.5697899  92.9656749 101.3987322 108.1119992  93.4264990  96.5349997
 108.4869992  92.6824990  96.0639997 108.1159992  93.1564990  97.4529997
 108.1638969  93.2880920  96.5946475 107.7809992  93.3524990  99.2839997
 106.8459992  93.4524990  99.4629997 108.0609992  92.6424990  99.8619997
 107.6909270  93.2702300  99.3865984  97.9179992  88.8034990 109.3269997
  98.1339992  88.4414990 110.1869997  97.0629992  88.4284990 109.1169997
  97.8319349  88.7032914 109.4162134 100.5369992  77.2734990 105.3229997
  99.6749992  77.1864990 104.9149997 100.5149992  78.1294990 105.7499997
 100.4160953  77.3773558 105.3249262  38.1929992  34.3584990  91.9939997
  38.1439992  33.4024990  91.9569997  37.3669992  34.6254990  92.3959997
  38.0745767  34.2638841  92.0433133 105.1999992  76.9954990 108.6969997
 105.6199992  76.5804990 109.4499997 104.2669992  76.8164990 108.8139997
 105.1313736  76.9144921 108.8158950 108.5259992  80.7504990 109.5509997
 108.0119992  80.6254990 110.3479997 108.3709992  81.6634990 109.3059997
 108.4346643  80.8567068 109.6270624 109.2889992  85.6114990  95.3119997
 109.3309992  85.3894990  94.3819997 110.1379992  86.0104990  95.5019997
 109.4095253  85.6350510  95.2103804 104.8619992  79.4874990  95.9819997
 104.6079992  79.5064990  96.9049997 104.6049992  78.6164990  95.6809997
 104.7925133  79.3723121  96.0675065 100.6279992  82.2384990 106.4179997
  99.9859992  82.1984990 107.1269997 100.6649992  83.1654990 106.1799997
 100.5451659  82.3582540 106.4828463 100.6249992  82.4594990 101.3299997
  99.7319992  82.1194990 101.2709997 101.0759992  82.0824990 100.5739997
 100.5637185  82.3620220 101.2197698 106.1609992  82.8754990 100.1469997
 105.7519992  83.6904990  99.8549997 106.8809992  82.7354990  99.5319997
 106.2023946  82.9679963 100.0239616 107.1649992  82.3214990 102.9609997
 106.9699992  82.9274990 102.2459997 107.3469992  81.4884990 102.5259997
 107.1629272  82.2917955 102.8044075  98.3779992  82.5594990 108.2849997
  98.3399992  82.9594990 109.1529997  97.8869992  81.7424990 108.3749997
  98.3064246  82.5038842 108.4161171 101.7439992  79.9334990  95.0829997
 101.3129992  79.4884990  95.8129997 101.0259992  80.3044990  94.5709997
 101.5879363  79.9227979  95.1136194  29.1719992  33.9324990  90.8699997
  29.2589992  34.7584990  91.3449997  28.3079992  33.6024990  91.1189997
  29.0671944  34.0009871  90.9686558  94.9859992  79.6754990 102.1349997
  95.6169992  79.6464990 102.8549997  95.4359992  79.2504990 101.4049997
  95.1330905  79.6140839 102.1347479  96.2599992  80.4214990  97.5589997
  96.7349992  81.0124990  96.9739997  95.5429992  80.9514990  97.9059997
  96.2280406  80.5741011  97.5258495 106.4289992  83.9594990 107.6319997
 106.7529992  83.3284990 106.9889997 105.9889992  83.4254990 108.2929997
 106.4138707  83.8008261 107.6333195 103.2069992  79.8874990 102.4159997
 102.2959992  79.9444990 102.7049997 103.7119992  79.8274990 103.2269997
 103.1506873  79.8871838 102.5651190  98.0349992  81.5164990 101.2429997
  97.1459992  81.6154990 100.9029997  98.3309992  80.6744990 100.8969997
  97.9534001  81.4162473 101.1497318 101.6879992  81.5164990  98.8989997
 102.6199992  81.6454990  99.0769997 101.4729992  82.1854990  98.2499997
 101.7864245  81.6246452  98.8355602 107.6119992  79.1224990 105.6799997
 106.9349992  79.2534990 106.3439997 107.1259992  78.9674990 104.8699997
 107.4537265  79.1194665 105.6613380 100.3619992  82.7104990  96.4659997
  99.8199992  82.3314990  95.7749997 101.1959992  82.9054990  96.0369997
 100.4004283  82.6849383  96.3134298 104.5269992  82.6744990 104.3029997
 105.0909992  82.1284990 103.7559997 104.3789992  82.1534990 105.0919997
 104.5843037  82.5291798 104.3347212  99.5289992  78.8114990 100.7209997
  99.2109992  77.9084990 100.6859997 100.3099992  78.8134990 100.1689997
  99.5911560  78.6881148 100.6414975  29.5859992  37.7044990  80.6759997
  29.5109992  37.5834990  79.7299997  29.6189992  38.6534990  80.7949997
  29.5801862  37.8162492  80.5624840 103.1529992  81.0634990 106.7169997
 102.3179992  81.5174990 106.8269997 103.6769992  81.3394990 107.4689997
 103.1095070  81.1629677 106.8337134 103.6969992  87.2764990  98.4019997
 102.9519992  86.7684990  98.0789997 103.5629992  87.3254990  99.3479997
 103.5768633  87.2135714  98.4857563 110.8469992  86.4094990 107.1879997
 111.4889992  86.8654990 106.6449997 110.0169992  86.5224990 106.7259997
 110.8227352  86.4873223 107.0510234 107.5949992  80.0904990  96.6009997
 106.6559992  80.2014990  96.4499997 107.8919992  80.9464990  96.9069997
 107.5066371  80.2215327  96.6217362 105.2169992  87.4604990 109.6389997
 104.8709992  87.0784990 110.4449997 105.0169992  88.3934990 109.7099997
 105.1425400  87.5343489 109.7590401 108.3129992  81.9574990  98.2619997
 109.2049992  81.8194990  98.5809997 108.3699992  82.7484990  97.7249997
 108.4427380  82.0454777  98.2330981  98.8219992  86.5714990 104.1709997
  99.5669992  86.5684990 103.5699997  98.8999992  85.7474990 104.6529997
  98.9344158  86.4597928 104.1539136 105.8229992  88.7344990  97.4269997
 105.5279992  89.5614990  97.8089997 105.1199992  88.1154990  97.6229997
 105.6875855  88.7639458  97.5057634  95.8299992  85.0314990 109.4859997
  96.0529992  84.6134990 110.3179997  95.2279992  84.4194990 109.0639997
  95.7790802  84.8915216 109.5427561 107.4669992  89.9224990 109.5889997
 106.5659992  90.1054990 109.3209997 107.5009992  90.1814990 110.5099997
 107.3483021  89.9825505 109.6768206  23.2399992  36.4934990  82.4569997
  23.3919992  36.1454990  83.3359997  22.3889992  36.1364990  82.2019997
  23.1457899  36.3976749  82.5427322 113.1979992  82.1664990  97.9559997
 112.6439992  81.7704990  97.2839997 113.2989992  83.0774990  97.6789997
 113.1357084  82.2353565  97.8264381 111.4929992  90.9524990  98.4209997
 111.1209992  90.1274990  98.7309997 111.7709992  90.7694990  97.5239997
 111.4795997  90.8146160  98.3421551 108.6539992  85.7604990 105.4429997
 107.7259992  85.5294990 105.4159997 109.1049992  84.9834990 105.1129997
 108.5878165  85.6237785 105.3946772 101.1969992  90.0894990 101.5759997
 101.7239992  90.8624990 101.3749997 100.3169992  90.3134990 101.2739997
 101.1501793  90.2256652 101.5076304  96.9519992  84.9514990  96.1629997
  97.5679992  85.5784990  96.5419997  96.0899992  85.2674990  96.4339997
  96.9198195  85.0800810  96.2515369 102.6239992  87.7524990 101.1519997
 102.3829992  88.6774990 101.1939997 101.8839992  87.2934990 101.5479997
 102.4908934  87.8170881 101.2113191 103.1389992  91.9014990 107.4669997
 103.5019992  92.7554990 107.2339997 103.6709992  91.6094990 108.2079997
 103.2605141  91.9788907 107.5352079 101.3069992  92.7734990 100.6969997
 100.3579992  92.8794990 100.7489997 101.6589992  93.5944990 101.0419997
 101.2246214  92.8989361 100.7507317 106.6829992  88.0004990 107.1679997
 106.2569992  87.7724990 107.9939997 107.2639992  87.2614990 106.9849997
 106.7031587  87.8694084 107.2564111 108.8859992  88.9294990  96.2419997
 109.2389992  88.5494990  97.0459997 107.9369992  88.8354990  96.3279997
 108.8060985  88.8647330  96.3637738  32.3569992  36.7844990  80.4279997
  31.4219992  36.8844990  80.6069997  32.6369992  36.0744990  81.0059997
  32.2669270  36.7022300  80.5305984 109.3419992  92.5524990 109.6369997
 108.7399992  91.9964990 109.1419997 109.6229992  93.2194990 109.0109997
 109.2975757  92.5665755 109.4845657 113.3889992  93.4084990  96.4429997
 114.1329992  93.9944990  96.3029997 112.6949992  93.9774990  96.7759997
 113.3969809  93.5655830  96.4688572  97.4639992  79.7854990 109.0439997
  96.5709992  80.1234990 108.9769997  97.3649992  78.9294990 109.4619997
  97.3285241  79.7160941 109.0912982 109.7519992  87.6014990  98.4679997
 109.4749992  86.8734990  99.0239997 110.6789992  87.7204990  98.6739997
 109.8394181  87.5180068  98.5718972  97.1149992  91.5894990 107.4789997
  97.3319992  90.6574990 107.4479997  97.3619992  91.8644990 108.3629997
  97.1780543  91.4990877 107.5941412 102.9769992  90.0414990  94.6889997
 103.2159992  89.2924990  94.1409997 102.7079992  89.6534990  95.5209997
 102.9732804  89.8866524  94.7266352 101.9139992  89.6114990  97.1449997
 102.0609992  89.0914990  97.9349997 101.9109992  90.5184990  97.4509997
 101.9337300  89.6628975  97.2945877  98.3669992  86.8634990  97.6549997
  97.6809992  87.2164990  98.2219997  98.8899992  87.6264990  97.4089997
  98.3439033  87.0148757  97.6992644 106.1979992  79.5264990 107.9339997
 106.8969992  79.6004990 108.5839997 105.8179992  78.6614990 108.0889997
 106.2422095  79.4197402 108.0437982 106.9829992  79.1784990  99.0309997
 107.2029992  79.6494990  98.2279997 107.5409992  79.5724990  99.7019997
 107.0885851  79.2963272  99.0116134  35.3449992  25.8514990  92.4739997
  34.9379992  26.3314990  91.7539997  35.3859992  24.9454990  92.1669997
  35.2947178  25.7948609  92.3337441 104.6519992  91.3084990  97.8939997
 103.8349992  91.8054990  97.9469997 105.1809992  91.7844990  97.2539997
 104.6117898  91.4408123  97.8147274 104.1829992  80.9064990  99.8659997
 104.9949992  81.4104990  99.9119997 103.9379992  80.7614990 100.7799997
 104.2611091  80.9559366  99.9958552 104.7189992  81.8924990 109.0509997
 104.8379992  82.4664990 109.8079997 105.3739992  81.2044990 109.1659997
 104.8238684  81.8780205 109.1701656 105.0669992  77.9874990 100.8039997
 104.7199992  78.6044990 101.4489997 105.7249992  78.4884990 100.3229997
 105.1085290  78.1396384 100.8271635 101.9899992  92.3524990  97.8759997
 102.1509992  93.1524990  97.3749997 101.7929992  92.6594990  98.7609997
 101.9853919  92.5034140  97.9270988 100.7239992  79.0504990  97.4919997
 100.6409992  79.9384990  97.8379997 101.6139992  78.7854990  97.7229997
 100.8329751  79.1362482  97.5706066 110.9229992  79.7994990 109.8859997
 110.0069992  80.0614990 109.7979997 111.2589992  79.7964990 108.9889997
 110.8429789  79.8349637 109.7527829 109.5249992  83.5494990 103.9819997
 108.7279992  83.1344990 103.6529997 109.9699992  82.8594990 104.4729997
 109.4760317  83.3993197 104.0033556  98.9829992  89.4774990  96.5519997
  99.5749992  90.1774990  96.8279997  99.4419992  89.0444990  95.8329997
  99.1261172  89.5147371  96.4925163  97.2989992  82.1424990  95.6679997
  97.2539992  83.0814990  95.8469997  96.4109992  81.9064990  95.3979997
  97.1728472  82.2391946  95.6560282  22.4939992  32.2354990  90.4709997
  22.7099992  31.8734990  91.3309997  21.6389992  31.8604990  90.2609997
  22.4079349  32.1352914  90.5602134 110.6119992  92.8054990 105.6039997
 110.4559992  93.4844990 104.9469997 111.5439992  92.8774990 105.8069997
 110.7167328  92.9081586 105.5415529  98.1069992  76.9234990 104.3409997
  97.8779992  76.9824990 103.4139997  97.6639992  76.1324990 104.6479997
  98.0157387  76.8246412 104.2555223  97.0369992  90.8644990 100.5019997
  96.2049992  91.3364990 100.5289997  97.5829992  91.3744990  99.9029997
  96.9968710  90.9980317 100.4247570 105.0149992  91.9044990  94.8269997
 104.3709992  91.2734990  95.1489997 105.7769992  91.3734990  94.5949997
 105.0298260  91.7463035  94.8397298 109.6189992  91.7214990  95.0609997
 109.9019992  90.9264990  95.5139997 110.3589992  91.9544990  94.4999997
 109.7577295  91.6442349  95.0471469 100.5739992  87.6304990  94.9179997
 100.6379992  86.8364990  95.4489997 101.2269992  87.5124990  94.2289997
 100.6711168  87.5057748  94.8975119 105.9259992  88.6774990  94.6539997
 105.6579992  88.8584990  95.5549997 105.7199992  87.7524990  94.5229997
 105.8614251  88.5771528  94.7596809 108.6229992  87.1724990 109.6019997
 109.3679992  87.7614990 109.4819997 107.8649992  87.7544990 109.6649997
 108.6225185  87.3317000 109.5940940 101.7229992  85.6034990  97.2239997
 101.2639992  85.1194990  97.9099997 101.9779992  84.9344990  96.5879997
 101.6946178  85.4468511  97.2319785 101.0119992  83.4964990 109.5799997
 100.3939992  84.1704990 109.8609997 101.3559992  83.8174990 108.7469997
 100.9738181  83.6323233 109.5058266  25.1129992  20.7054990  86.4669997
  24.2509992  20.6184990  86.0589997  25.0909992  21.5614990  86.8939997
  24.9920953  20.8093558  86.4689262 102.7939992  83.8464990  95.4869997
 102.6139992  83.6914990  94.5589997 103.7439992  83.9544990  95.5309997
 102.8978016  83.8399264  95.3662123 112.1839992  86.2004990  94.9319997
 111.9109992  85.7764990  94.1189997 112.2239992  87.1324990  94.7149997
 112.1520201  86.2683523  94.7913548 101.7639992  79.2204990 108.1549997
 102.2999992  79.6724990 107.5029997 100.9119992  79.1124990 107.7329997
 101.7221648  79.2677883 108.0086395 103.3459992  84.6604990 108.3949997
 104.0969992  84.5044990 107.8219997 103.0069992  85.5124990 108.1189997
 103.4029052  84.7542745 108.2793469 102.5699992  76.6774990 108.5869997
 102.4719992  77.6234990 108.4809997 101.8269992  76.3044990 108.1109997
 102.4562363  76.7565987 108.5082029 102.6919992  94.5364990  96.4879997
 103.6249992  94.6944990  96.6319997 102.4269992  95.2124990  95.8629997
 102.7839846  94.6494567  96.4232930  96.2599992  89.1734990  95.9709997
  97.1739992  89.2524990  96.2439997  96.2669992  88.4864990  95.3039997
  96.3860769  89.0914735  95.9182366  94.9089992  94.5664990 101.0479997
  94.2619992  94.1044990 100.5149997  95.2639992  93.8944990 101.6309997
  94.8683861  94.4124707 101.0537939  95.7789992  92.6464990 102.8529997
  95.4449992  91.7664990 103.0249997  96.0009992  92.9924990 103.7169997
  95.7632677  92.5727366 102.9934252 113.3279992  93.4564990 105.8329997
 113.3059992  93.6414990 106.7719997 114.0179992  94.0244990 105.4919997
 113.4183439  93.5586898 105.9154774  29.7759992  20.4274990  89.8409997
  30.1959992  20.0124990  90.5939997  28.8429992  20.2484990  89.9579997
  29.7073736  20.3464921  89.9598950 112.8909992  93.0234990 108.7549997
 112.4039992  92.2874990 108.3839997 113.4399992  92.6294990 109.4329997
 112.8986101  92.8696267 108.7959034 112.6429992  87.0694990  98.9069997
 113.4929992  87.4904990  99.0349997 112.6479992  86.3294990  99.5149997
 112.7599745  87.0271347  99.0066479 113.0369992  85.1234990 100.7309997
 112.3109992  84.6434990 101.1289997 113.6179992  85.3284990 101.4629997
 113.0162504  85.0855592 100.8844199 112.7959992  87.9084990 105.6789997
 113.6299992  87.5304990 105.3979997 112.9079992  88.8514990 105.5599997
 112.9251917  87.9842954 105.6244844 111.2819992  90.7864990 107.9859997
 110.6349992  91.1114990 108.6109997 110.7649992  90.3454990 107.3109997
 111.1234068  90.7714726 107.9804918 113.3049992  85.0244990  97.1219997
 112.7839992  85.3804990  96.4029997 113.2719992  85.6994990  97.7999997
 113.2291525  85.1645273  97.1151408 111.6539992  82.2634990  95.6729997
 111.7509992  82.9304990  94.9929997 111.5139992  81.4484990  95.1909997
 111.6483428  82.2445667  95.5148311 110.8239992  83.6444990 101.2939997
 110.6739992  82.6994990 101.2739997 110.4699992  83.9254990 102.1379997
 110.7556351  83.5531656 101.4053202  95.8589992  85.7224990 105.3039997
  96.0429992  85.6404990 104.3689997  96.7079992  85.5984990 105.7279997
  95.9990259  85.6944915 105.2331771 110.9019992  79.6714990  94.7899997
 111.5119992  79.3004990  95.4269997 110.0649992  79.2504990  94.9859997
 110.8723704  79.5637942  94.9037077  33.1019992  24.1824990  90.6949997
  32.5879992  24.0574990  91.4919997  32.9469992  25.0954990  90.4499997
  33.0106643  24.2887068  90.7710624 110.5339992  81.2264990  99.7559997
 110.8139992  80.3194990  99.8809997 111.2929992  81.6604990  99.3669997
 110.6749471  81.1610654  99.7205052 111.1459992  81.8084990 105.1919997
 112.0789992  82.0204990 105.1579997 110.9109992  81.9094990 106.1149997
 111.2418357  81.8511303 105.3120232 111.1749992  82.5454990 107.9679997
 110.3319992  82.8134990 108.3339997 111.6179992  83.3674990 107.7569997
 111.1194358  82.6933294 107.9895999 111.1479992  78.4894990  99.8049997
 111.3299992  78.0404990 100.6299997 110.5479992  77.9054990  99.3409997
 111.0918187  78.3490563  99.8552721  96.6779992  79.3054990 104.3359997
  97.1229992  78.5134990 104.6379997  97.1439992  80.0214990 104.7669997
  96.8019059  79.2939485 104.4356061  94.9819992  82.3044990 105.4049997
  95.4739992  82.0834990 104.6149997  95.3439992  83.1444990 105.6859997
  95.0983429  82.3878220 105.3347918 113.0139992  78.5574990  96.3329997
 113.4269992  77.8364990  95.8569997 113.6959992  79.2264990  96.3909997
 113.1625712  78.5494304  96.2758247  95.2949992  78.5624990  99.4599997
  94.3699992  78.7704990  99.3299997  95.7489992  79.0464990  98.7699997
  95.2297401  78.6563895  99.3489433 110.0659992  93.5464990 101.4049997
 110.7179992  93.1984990 100.7969997 110.5769992  94.0344990 102.0509997
 110.2242872  93.5648248 101.4090964  95.2589992  77.3004990 107.8039997
  94.5939992  77.0544990 108.4469997  94.8159992  77.9224990 107.2269997
  95.1081168  77.3509225 107.8139830  29.4379992  22.9194990  77.1259997
  29.1839992  22.9384990  78.0489997  29.1809992  22.0484990  76.8249997
  29.3685133  22.8043121  77.2115065 100.4049992  91.4494990 108.2069997
  99.9799992  92.2594990 107.9239997 101.3089992  91.5354990 107.9049997
 100.4691002  91.5718728 108.1274798 111.9789992  76.7244990 109.4899997
 111.1659992  77.0494990 109.1019997 112.2119992  75.9634990 108.9569997
 111.8992566  76.6661570 109.3649196  97.8069992  94.7064990 108.2539997
  97.0859992  95.1464990 107.8029997  97.4409992  94.4554990 109.1029997
  97.6589785  94.7327691 108.3069849 100.2739992  94.3064990 107.2839997
  99.4089992  94.3784990 107.6879997 100.2189992  94.8534990 106.4999997
 100.1482066  94.3902678 107.2333371 104.9849992  94.1944990 106.4599997
 104.5279992  94.7234990 105.8059997 105.1469992  94.7974990 107.1849997
 104.9443919  94.3483990 106.4685740 107.3119992  93.0724990 107.4049997
 106.4079992  93.2374990 107.1389997 107.7409992  93.9254990 107.3389997
 107.2462017  93.2104184 107.3596495 109.9159992  94.6424990 107.6999997
 109.7349992  95.5584990 107.4889997 110.0929992  94.2314990 106.8529997
 109.9151377  94.7123365 107.5567178  97.2219992  93.3294990 105.1649997
  97.2029992  92.9034990 106.0219997  98.0259992  93.0104990 104.7559997
  97.3281393  93.2280297 105.2270155  99.3629992  92.0394990 103.8199997
  99.1439992  91.1224990 103.9889997 100.1869992  92.1794990 104.2859997
  99.4444637  91.9329586 103.9061414 101.8999992  92.5094990 104.6679997
 102.1129992  91.6214990 104.3809997 101.9649992  92.4744990 105.6229997
 101.9379075  92.3833318 104.7577355  25.2039992  25.6704990  87.5619997
  24.5619992  25.6304990  88.2709997  25.2409992  26.5974990  87.3239997
  25.1211659  25.7902540  87.6268463 105.4089992  78.1734990 103.8129997
 104.7339992  77.5434990 104.0679997 105.9729992  77.6894990 103.2099997
 105.3929558  78.0219283 103.7663451 110.5509992  76.2804990 103.9249997
 111.1549992  76.8284990 103.4239997 109.6819992  76.5994990 103.6849997
 110.5161126  76.3987070 103.8239180 112.2779992  77.4194990 102.2589997
 112.8899992  76.9054990 101.7319997 112.6609992  78.2964990 102.2819997
 112.4133867  77.4677613 102.1900888  97.7349992  76.8074990 101.6349997
  96.9579992  76.5724990 101.1269997  98.2659992  76.0104990 101.6439997
  97.7004443  76.6676721 101.5667200  96.5719992  76.6054990  97.4379997
  97.0109992  77.2164990  96.8469997  95.9379992  77.1434990  97.9119997
  96.5464103  76.7619233  97.4211376 102.3149992  76.7334990 101.4479997
 103.1889992  77.1224990 101.4179997 102.1789992  76.5184990 102.3709997
 102.4163125  76.7577120 101.5686523 107.8709992  76.7634990 103.0969997
 107.9479992  76.8594990 102.1479997 107.5959992  75.8564990 103.2259997
 107.8443407  76.6539188 102.9843532 109.2249992  76.7894990  98.7899997
 108.5219992  77.4044990  98.5799997 108.7799992  75.9524990  98.9209997
 109.0686550  76.7604679  98.7789819  96.4729992  92.5534990  98.3359997
  95.7879992  92.5154990  97.6679997  96.4759992  93.4654990  98.6239997
  96.3797358  92.6716744  98.2836145  98.4329992  78.5214990  95.8809997
  98.9239992  77.8914990  95.3529997  99.0559992  78.8174990  96.5439997
  98.5845459  78.4752419  95.8983667  25.2009992  25.8914990  82.4739997
  24.3079992  25.5514990  82.4149997  25.6519992  25.5144990  81.7179997
  25.1397185  25.7940220  82.3637698 103.4589992  78.8144990  98.3379997
 103.6369992  78.1674990  99.0209997 103.4049992  79.6484990  98.8049997
 103.4760678  78.8386615  98.4946283 105.3369992  93.7624990  96.7329997
 106.2029992  94.1294990  96.5549997 105.0899992  93.3234990  95.9199997
 105.4222041  93.7533648  96.5985958 112.0459992  93.3254990  99.4129997
 111.8519992  92.5774990  98.8479997 112.0069992  94.0834990  98.8289997
 112.0141907  93.3255770  99.2568077  98.2909992  93.4734990  95.3609997
  98.0229992  93.7594990  96.2339997  99.0619992  92.9274990  95.5129997
  98.3585600  93.4388341  95.5011482 125.6699992  85.9634990 101.5929997
 125.7589992  86.9074990 101.4609997 125.0309992  85.6884990 100.9349997
 125.5958319  86.0554984 101.4860276 124.6029992  85.2184990 105.0119997
 124.5639992  84.5724990 105.7169997 124.2799992  84.7514990 104.2409997
 124.5540199  85.0670089 105.0042865 116.9709992  84.8324990 106.6049997
 117.0119992  84.2074990 107.3289997 117.6739992  85.4564990 106.7869997
 117.0716054  84.8313262 106.7286311 128.3089992  88.1574990 103.3139997
 127.8679992  87.4374990 103.7639997 128.2959992  88.8784990 103.9439997
 128.2468398  88.1563187 103.4607734 117.8949992  89.2824990 105.1399997
 117.5249992  88.4804990 104.7709997 118.8359992  89.1144990 105.1869997
 117.9715630  89.1498680 105.0957873 114.5049992  82.9424990 100.5329997
 114.0569992  83.7884990 100.5149997 113.9439992  82.3634990 100.0179997
 114.3678546  82.9799004 100.4608874  30.7369992  26.3074990  81.2909997
  30.3279992  27.1224990  80.9989997  31.4569992  26.1674990  80.6759997
  30.7783946  26.3999963  81.1679616 115.2149992  85.1044990 102.6589997
 115.4289992  84.3344990 103.1859997 115.9529992  85.1944990 102.0559997
 115.3440073  85.0113546 102.6495786 125.4199992  93.2614990 103.5259997
 126.0399992  92.5854990 103.2529997 125.2119992  93.0434990 104.4339997
 125.4767360  93.1394792 103.6114387 122.9919992  87.6504990 105.4179997
 123.2959992  86.9644990 104.8239997 123.7139992  87.7694990 106.0359997
 123.1311152  87.5727201 105.4202106 131.6549992  79.2524990 106.2789997
 131.7039992  79.8624990 107.0149997 132.0809992  79.7134990 105.5559997
 131.7192851  79.3983266 106.2820532 126.1329992  82.0444990 105.7459997
 126.2749992  81.0984990 105.7659997 126.0269992  82.2514990 104.8169997
 126.1381158  81.9429722 105.6232241 119.2879992  80.1464990 103.0179997
 119.3309992  81.0064990 102.5999997 118.8299992  79.5934990 102.3849997
 119.2319613  80.1895689 102.8751276 127.0099992  80.2774990 101.4189997
 127.6559992  79.9484990 102.0439997 127.5199992  80.7944990 100.7959997
 127.1674392  80.3023710 101.4203248 115.9079992  82.5434990 103.7799997
 116.5619992  81.9934990 104.2119997 115.9319992  82.2694990 102.8639997
 116.0007022  82.4312005 103.7151698 121.0639992  84.0934990 102.9959997
 121.6799992  83.5664990 103.5049997 120.4779992  83.4534990 102.5919997
 121.0690652  83.9348919 103.0110277 132.0469992  80.7304990 108.5149997
 131.3579992  81.3884990 108.4199997 132.0619992  80.5324990 109.4519997
 131.9547756  80.7937614 108.6285795  29.8389992  26.4834990  92.7789997
  29.2759992  25.7784990  93.0989997  30.6649992  26.3624990  93.2459997
  29.8736423  26.3705614  92.8860168 118.0979992  79.0644990 107.0919997
 117.8789992  79.5944990 106.3259997 117.4299992  79.2904990 107.7399997
 117.9777271  79.1676508 107.0746206 125.4669992  88.5644990 100.6359997
 125.1709992  88.2414990  99.7849997 125.1429992  89.4644990 100.6779997
 125.3826501  88.6419058 100.5250893 120.6669992  86.7394990 107.3799997
 119.9269992  87.3384990 107.4829997 121.3809992  87.2934990 107.0639997
 120.6623288  86.8962368 107.3513787 128.7739992  79.5684990 103.3999997
 128.5589992  78.8024990 103.9319997 129.4299992  80.0404990 103.9129997
 128.8332451  79.5274472 103.5421699 117.6919992  80.9564990 105.0449997
 118.3049992  81.5894990 105.4179997 118.2039992  80.4844990 104.3879997
 117.8451680  80.9794006 105.0072830 119.0739992  88.7044990 108.1669997
 119.0689992  89.5834990 107.7889997 118.2209992  88.6204990 108.5919997
 118.9579199  88.8135901 108.1726942 115.1959992  88.3754990  98.9489997
 114.9239992  88.6044990  98.0599997 115.2409992  89.2124990  99.4089997
 115.1648709  88.5201069  98.8896089 128.8209992  89.9964990 105.6619997
 127.8789992  90.0554990 105.8229997 129.0969992  90.9024990 105.5249997
 128.7295771  90.1270270 105.6654827 129.1209992  78.2834990 107.0789997
 128.3849992  78.8934990 107.0409997 129.8049992  78.6984990 106.5529997
 129.1125885  78.4231924 107.0026931 122.1239992  76.3694990 104.5449997
 122.0069992  75.4214990 104.4909997 121.2689992  76.7024990 104.8179997
 121.9923691  76.2845842 104.5745072  31.7409992  25.7534990  84.1049997
  31.5459992  26.3594990  83.3899997  31.9229992  24.9204990  83.6699997
  31.7389272  25.7237955  83.9484075 127.0729992  91.7774990 102.2869997
 127.4979992  91.0704990 101.8019997 127.3899992  92.5794990 101.8699997
 127.1740266  91.7890201 102.1642461 128.2319992  89.6784990 100.7959997
 127.9749992  88.9884990 100.1839997 128.3029992  89.2354990 101.6409997
 128.2064322  89.5241568 100.8265372 129.9179992  88.2454990 109.2729997
 130.0579992  87.6534990 108.5339997 130.0859992  89.1184990 108.9169997
 129.9598734  88.2824041 109.1236937 124.3909992  85.2074990  99.0449997
 123.6789992  85.7424990  98.6939997 125.0819992  85.2624990  98.3849997
 124.3868696  85.2882591  98.9076372 124.4449992  83.6644990  96.0839997
 125.1459992  83.6874990  96.7349997 124.7469992  83.0364990  95.4279997
 124.5818282  83.5827350  96.0844478 131.7599992  84.5854990 107.3389997
 131.1079992  85.2794990 107.4279997 132.2249992  84.7954990 106.5289997
 131.7335357  84.7089544 107.2417056 127.7969992  85.4164990  99.9969997
 127.0649992  85.6454990 100.5699997 128.2439992  84.7034990 100.4519997
 127.7572753  85.3513984 100.1369698 127.6939992  83.5914990 109.0649997
 127.7739992  84.3544990 109.6369997 127.0929992  83.8704990 108.3739997
 127.6237115  83.7337707 109.0499631 119.4419992  86.0474990 101.8799997
 119.1119992  85.6764990 101.0609997 120.0299992  85.3764990 102.2259997
 119.4764056  85.9061257 101.8149035 120.8089992  89.4754990 104.5609997
 120.7139992  88.8964990 103.8039997 121.5379992  89.1044990 105.0569997
 120.8946161  89.3460902 104.5245192  22.9539992  25.9914990  89.4289997
  22.9159992  26.3914990  90.2969997  22.4629992  25.1744990  89.5189997
  22.8824246  25.9358842  89.5601171 119.8089992  84.8154990 105.5129997
 120.3739992  84.9374990 104.7499997 120.1269992  85.4534990 106.1519997
 119.9293430  84.9184448 105.4949094 126.1179992  90.3194990 106.2469997
 125.8769992  90.9814990 106.8949997 125.9199992  89.4844990 106.6719997
 126.0582662  90.2972704 106.3931008 126.6679992  84.5794990  97.6819997
 127.2469992  84.7294990  98.4289997 127.0819992  85.0494990  96.9589997
 126.8033122  84.6636288  97.6865024 117.6089992  85.4134990 109.4589997
 117.6789992  86.0644990 110.1569997 116.7179992  85.5164990 109.1239997
 117.4981802  85.5164769 109.5092231 124.3939992  91.3154990 101.1179997
 124.8679992  91.6114990 101.8949997 123.8309992  92.0544990 100.8839997
 124.3828460  91.4558336 101.1927626 130.3659992  76.3294990  97.4949997
 129.4659992  76.4674990  97.7899997 130.6179992  77.1604990  97.0929997
 130.2767355  76.4608200  97.4810539 118.4319992  85.1164990  99.4689997
 118.1399992  85.8844990  98.9779997 117.7579992  84.4574990  99.3059997
 118.3008843  85.1324537  99.3797695 131.5559992  90.6954990  95.8719997
 131.6289992  91.6344990  96.0419997 132.4609992  90.3904990  95.8149997
 131.6884168  90.7828531  95.8875736 114.5249992  87.4794990 108.2839997
 114.0239992  87.4514990 107.4689997 114.5309992  86.5744990 108.5939997
 114.4571690  87.3532234 108.2142770 114.2759992  90.2604990 105.1679997
 115.2219992  90.1154990 105.1489997 114.1629992  91.0444990 105.7049997
 114.3903578  90.3466708 105.2380300  26.3199992  23.3654990  76.2269997
  25.8889992  22.9204990  76.9569997  25.6019992  23.7364990  75.7149997
  26.1639363  23.3547979  76.2576194 123.4519992  90.5004990 109.7259997
 123.5389992  91.3264990 110.2009997 122.5879992  90.1704990 109.9749997
 123.3471944  90.5689871 109.8246558 123.8659992  94.2724990  99.5319997
 123.7909992  94.1514990  98.5859997 123.8989992  95.2214990  99.6509997
 123.8601862  94.3842492  99.4184840 117.5199992  93.0614990 101.3129997
 117.6719992  92.7134990 102.1919997 116.6689992  92.7044990 101.0579997
 117.4257899  92.9656749 101.3987322 126.9679992  93.4264990  96.5349997
 127.3429992  92.6824990  96.0639997 126.9719992  93.1564990  97.4529997
 127.0198969  93.2880920  96.5946475 126.6369992  93.3524990  99.2839997
 125.7019992  93.4524990  99.4629997 126.9169992  92.6424990  99.8619997
 126.5469270  93.2702300  99.3865984 116.7739992  88.8034990 109.3269997
 116.9899992  88.4414990 110.1869997 115.9189992  88.4284990 109.1169997
 116.6879349  88.7032914 109.4162134 119.3929992  77.2734990 105.3229997
 118.5309992  77.1864990 104.9149997 119.3709992  78.1294990 105.7499997
 119.2720953  77.3773558 105.3249262 124.0559992  76.9954990 108.6969997
 124.4759992  76.5804990 109.4499997 123.1229992  76.8164990 108.8139997
 123.9873736  76.9144921 108.8158950 127.3819992  80.7504990 109.5509997
 126.8679992  80.6254990 110.3479997 127.2269992  81.6634990 109.3059997
 127.2906643  80.8567068 109.6270624 128.1449992  85.6114990  95.3119997
 128.1869992  85.3894990  94.3819997 128.9939992  86.0104990  95.5019997
 128.2655253  85.6350510  95.2103804  19.5619992  23.1074990  83.2789997
  20.1929992  23.0784990  83.9989997  20.0119992  22.6824990  82.5489997
  19.7090905  23.0460839  83.2787479 123.7179992  79.4874990  95.9819997
 123.4639992  79.5064990  96.9049997 123.4609992  78.6164990  95.6809997
 123.6485133  79.3723121  96.0675065 119.4839992  82.2384990 106.4179997
 118.8419992  82.1984990 107.1269997 119.5209992  83.1654990 106.1799997
 119.4011659  82.3582540 106.4828463 119.4809992  82.4594990 101.3299997
 118.5879992  82.1194990 101.2709997 119.9319992  82.0824990 100.5739997
 119.4197185  82.3620220 101.2197698 125.0169992  82.8754990 100.1469997
 124.6079992  83.6904990  99.8549997 125.7369992  82.7354990  99.5319997
 125.0583946  82.9679963 100.0239616 126.0209992  82.3214990 102.9609997
 125.8259992  82.9274990 102.2459997 126.2029992  81.4884990 102.5259997
 126.0189272  82.2917955 102.8044075 117.2339992  82.5594990 108.2849997
 117.1959992  82.9594990 109.1529997 116.7429992  81.7424990 108.3749997
 117.1624246  82.5038842 108.4161171 120.5999992  79.9334990  95.0829997
 120.1689992  79.4884990  95.8129997 119.8819992  80.3044990  94.5709997
 120.4439363  79.9227979  95.1136194 113.8419992  79.6754990 102.1349997
 114.4729992  79.6464990 102.8549997 114.2919992  79.2504990 101.4049997
 113.9890905  79.6140839 102.1347479 115.1159992  80.4214990  97.5589997
 115.5909992  81.0124990  96.9739997 114.3989992  80.9514990  97.9059997
 115.0840406  80.5741011  97.5258495 125.2849992  83.9594990 107.6319997
 125.6089992  83.3284990 106.9889997 124.8449992  83.4254990 108.2929997
 125.2698707  83.8008261 107.6333195  20.8359992  23.8534990  78.7029997
  21.3109992  24.4444990  78.1179997  20.1189992  24.3834990  79.0499997
  20.8040406  24.0061011  78.6698495 122.0629992  79.8874990 102.4159997
 121.1519992  79.9444990 102.7049997 122.5679992  79.8274990 103.2269997
 122.0066873  79.8871838 102.5651190 116.8909992  81.5164990 101.2429997
 116.0019992  81.6154990 100.9029997 117.1869992  80.6744990 100.8969997
 116.8094001  81.4162473 101.1497318 120.5439992  81.5164990  98.8989997
 121.4759992  81.6454990  99.0769997 120.3289992  82.1854990  98.2499997
 120.6424245  81.6246452  98.8355602 126.4679992  79.1224990 105.6799997
 125.7909992  79.2534990 106.3439997 125.9819992  78.9674990 104.8699997
 126.3097265  79.1194665 105.6613380 119.2179992  82.7104990  96.4659997
 118.6759992  82.3314990  95.7749997 120.0519992  82.9054990  96.0369997
 119.2564283  82.6849383  96.3134298 123.3829992  82.6744990 104.3029997
 123.9469992  82.1284990 103.7559997 123.2349992  82.1534990 105.0919997
 123.4403037  82.5291798 104.3347212 118.3849992  78.8114990 100.7209997
 118.0669992  77.9084990 100.6859997 119.1659992  78.8134990 100.1689997
 118.4471560  78.6881148 100.6414975 122.0089992  81.0634990 106.7169997
 121.1739992  81.5174990 106.8269997 122.5329992  81.3394990 107.4689997
 121.9655070  81.1629677 106.8337134 122.5529992  87.2764990  98.4019997
 121.8079992  86.7684990  98.0789997 122.4189992  87.3254990  99.3479997
 122.4328633  87.2135714  98.4857563 129.7029992  86.4094990 107.1879997
 130.3449992  86.8654990 106.6449997 128.8729992  86.5224990 106.7259997
 129.6787352  86.4873223 107.0510234  31.0049992  27.3914990  88.7759997
  31.3289992  26.7604990  88.1329997  30.5649992  26.8574990  89.4369997
  30.9898707  27.2328261  88.7773195 126.4509992  80.0904990  96.6009997
 125.5119992  80.2014990  96.4499997 126.7479992  80.9464990  96.9069997
 126.3626371  80.2215327  96.6217362 124.0729992  87.4604990 109.6389997
 123.7269992  87.0784990 110.4449997 123.8729992  88.3934990 109.7099997
 123.9985400  87.5343489 109.7590401 127.1689992  81.9574990  98.2619997
 128.0609992  81.8194990  98.5809997 127.2259992  82.7484990  97.7249997
 127.2987380  82.0454777  98.2330981 117.6779992  86.5714990 104.1709997
 118.4229992  86.5684990 103.5699997 117.7559992  85.7474990 104.6529997
 117.7904158  86.4597928 104.1539136 124.6789992  88.7344990  97.4269997
 124.3839992  89.5614990  97.8089997 123.9759992  88.1154990  97.6229997
 124.5435855  88.7639458  97.5057634 114.6859992  85.0314990 109.4859997
 114.9089992  84.6134990 110.3179997 114.0839992  84.4194990 109.0639997
 114.6350802  84.8915216 109.5427561 126.3229992  89.9224990 109.5889997
 125.4219992  90.1054990 109.3209997 126.3569992  90.1814990 110.5099997
 126.2043021  89.9825505 109.6768206 132.0539992  82.1664990  97.9559997
 131.4999992  81.7704990  97.2839997 132.1549992  83.0774990  97.6789997
 131.9917084  82.2353565  97.8264381 130.3489992  90.9524990  98.4209997
 129.9769992  90.1274990  98.7309997 130.6269992  90.7694990  97.5239997
 130.3355997  90.8146160  98.3421551 127.5099992  85.7604990 105.4429997
 126.5819992  85.5294990 105.4159997 127.9609992  84.9834990 105.1129997
 127.4438165  85.6237785 105.3946772  27.7829992  23.3194990  83.5599997
  26.8719992  23.3764990  83.8489997  28.2879992  23.2594990  84.3709997
  27.7266873  23.3191838  83.7091190 120.0529992  90.0894990 101.5759997
 120.5799992  90.8624990 101.3749997 119.1729992  90.3134990 101.2739997
 120.0061793  90.2256652 101.5076304 115.8079992  84.9514990  96.1629997
 116.4239992  85.5784990  96.5419997 114.9459992  85.2674990  96.4339997
 115.7758195  85.0800810  96.2515369 121.4799992  87.7524990 101.1519997
 121.2389992  88.6774990 101.1939997 120.7399992  87.2934990 101.5479997
 121.3468934  87.8170881 101.2113191 121.9949992  91.9014990 107.4669997
 122.3579992  92.7554990 107.2339997 122.5269992  91.6094990 108.2079997
 122.1165141  91.9788907 107.5352079 125.5389992  88.0004990 107.1679997
 125.1129992  87.7724990 107.9939997 126.1199992  87.2614990 106.9849997
 125.5591587  87.8694084 107.2564111 127.7419992  88.9294990  96.2419997
 128.0949992  88.5494990  97.0459997 126.7929992  88.8354990  96.3279997
 127.6620985  88.8647330  96.3637738 128.1979992  92.5524990 109.6369997
 127.5959992  91.9964990 109.1419997 128.4789992  93.2194990 109.0109997
 128.1535757  92.5665755 109.4845657 132.2449992  93.4084990  96.4429997
 132.9889992  93.9944990  96.3029997 131.5509992  93.9774990  96.7759997
 132.2529809  93.5655830  96.4688572 116.3199992  79.7854990 109.0439997
 115.4269992  80.1234990 108.9769997 116.2209992  78.9294990 109.4619997
 116.1845241  79.7160941 109.0912982  22.6109992  24.9484990  82.3869997
  21.7219992  25.0474990  82.0469997  22.9069992  24.1064990  82.0409997
  22.5294001  24.8482473  82.2937318 128.6079992  87.6014990  98.4679997
 128.3309992  86.8734990  99.0239997 129.5349992  87.7204990  98.6739997
 128.6954181  87.5180068  98.5718972 115.9709992  91.5894990 107.4789997
 116.1879992  90.6574990 107.4479997 116.2179992  91.8644990 108.3629997
 116.0340543  91.4990877 107.5941412 121.8329992  90.0414990  94.6889997
 122.0719992  89.2924990  94.1409997 121.5639992  89.6534990  95.5209997
 121.8292804  89.8866524  94.7266352 120.7699992  89.6114990  97.1449997
 120.9169992  89.0914990  97.9349997 120.7669992  90.5184990  97.4509997
 120.7897300  89.6628975  97.2945877 117.2229992  86.8634990  97.6549997
 116.5369992  87.2164990  98.2219997 117.7459992  87.6264990  97.4089997
 117.1999033  87.0148757  97.6992644 125.0539992  79.5264990 107.9339997
 125.7529992  79.6004990 108.5839997 124.6739992  78.6614990 108.0889997
 125.0982095  79.4197402 108.0437982 125.8389992  79.1784990  99.0309997
 126.0589992  79.6494990  98.2279997 126.3969992  79.5724990  99.7019997
 125.9445851  79.2963272  99.0116134 123.5079992  91.3084990  97.8939997
 122.6909992  91.8054990  97.9469997 124.0369992  91.7844990  97.2539997
 123.4677898  91.4408123  97.8147274 123.0389992  80.9064990  99.8659997
 123.8509992  81.4104990  99.9119997 122.7939992  80.7614990 100.7799997
 123.1171091  80.9559366  99.9958552 123.5749992  81.8924990 109.0509997
 123.6939992  82.4664990 109.8079997 124.2299992  81.2044990 109.1659997
 123.6798684  81.8780205 109.1701656  26.2639992  24.9484990  80.0429997
  27.1959992  25.0774990  80.2209997  26.0489992  25.6174990  79.3939997
  26.3624245  25.0566452  79.9795602 123.9229992  77.9874990 100.8039997
 123.5759992  78.6044990 101.4489997 124.5809992  78.4884990 100.3229997
 123.9645290  78.1396384 100.8271635 120.8459992  92.3524990  97.8759997
 121.0069992  93.1524990  97.3749997 120.6489992  92.6594990  98.7609997
 120.8413919  92.5034140  97.9270988 119.5799992  79.0504990  97.4919997
 119.4969992  79.9384990  97.8379997 120.4699992  78.7854990  97.7229997
 119.6889751  79.1362482  97.5706066 129.7789992  79.7994990 109.8859997
 128.8629992  80.0614990 109.7979997 130.1149992  79.7964990 108.9889997
 129.6989789  79.8349637 109.7527829 128.3809992  83.5494990 103.9819997
 127.5839992  83.1344990 103.6529997 128.8259992  82.8594990 104.4729997
 128.3320317  83.3993197 104.0033556 117.8389992  89.4774990  96.5519997
 118.4309992  90.1774990  96.8279997 118.2979992  89.0444990  95.8329997
 117.9821172  89.5147371  96.4925163 116.1549992  82.1424990  95.6679997
 116.1099992  83.0814990  95.8469997 115.2669992  81.9064990  95.3979997
 116.0288472  82.2391946  95.6560282 129.4679992  92.8054990 105.6039997
 129.3119992  93.4844990 104.9469997 130.3999992  92.8774990 105.8069997
 129.5727328  92.9081586 105.5415529 116.9629992  76.9234990 104.3409997
 116.7339992  76.9824990 103.4139997 116.5199992  76.1324990 104.6479997
 116.8717387  76.8246412 104.2555223 115.8929992  90.8644990 100.5019997
 115.0609992  91.3364990 100.5289997 116.4389992  91.3744990  99.9029997
 115.8528710  90.9980317 100.4247570  32.1879992  22.5544990  86.8239997
  31.5109992  22.6854990  87.4879997  31.7019992  22.3994990  86.0139997
  32.0297265  22.5514665  86.8053380 123.8709992  91.9044990  94.8269997
 123.2269992  91.2734990  95.1489997 124.6329992  91.3734990  94.5949997
 123.8858260  91.7463035  94.8397298 128.4749992  91.7214990  95.0609997
 128.7579992  90.9264990  95.5139997 129.2149992  91.9544990  94.4999997
 128.6137295  91.6442349  95.0471469 119.4299992  87.6304990  94.9179997
 119.4939992  86.8364990  95.4489997 120.0829992  87.5124990  94.2289997
 119.5271168  87.5057748  94.8975119 124.7819992  88.6774990  94.6539997
 124.5139992  88.8584990  95.5549997 124.5759992  87.7524990  94.5229997
 124.7174251  88.5771528  94.7596809 127.4789992  87.1724990 109.6019997
 128.2239992  87.7614990 109.4819997 126.7209992  87.7544990 109.6649997
 127.4785185  87.3317000 109.5940940 120.5789992  85.6034990  97.2239997
 120.1199992  85.1194990  97.9099997 120.8339992  84.9344990  96.5879997
 120.5506178  85.4468511  97.2319785 119.8679992  83.4964990 109.5799997
 119.2499992  84.1704990 109.8609997 120.2119992  83.8174990 108.7469997
 119.8298181  83.6323233 109.5058266 121.6499992  83.8464990  95.4869997
 121.4699992  83.6914990  94.5589997 122.5999992  83.9544990  95.5309997
 121.7538016  83.8399264  95.3662123 131.0399992  86.2004990  94.9319997
 130.7669992  85.7764990  94.1189997 131.0799992  87.1324990  94.7149997
 131.0080201  86.2683523  94.7913548 120.6199992  79.2204990 108.1549997
 121.1559992  79.6724990 107.5029997 119.7679992  79.1124990 107.7329997
 120.5781648  79.2677883 108.0086395  35.4749992  38.2254990  93.1009997
  35.6749992  38.6494990  92.2659997  36.1309992  38.5694990  93.7079997
  35.5909916  38.3299784  93.0687890 122.2019992  84.6604990 108.3949997
 122.9529992  84.5044990 107.8219997 121.8629992  85.5124990 108.1189997
 122.2589052  84.7542745 108.2793469 121.4259992  76.6774990 108.5869997
 121.3279992  77.6234990 108.4809997 120.6829992  76.3044990 108.1109997
 121.3122363  76.7565987 108.5082029 121.5479992  94.5364990  96.4879997
 122.4809992  94.6944990  96.6319997 121.2829992  95.2124990  95.8629997
 121.6399846  94.6494567  96.4232930 115.1159992  89.1734990  95.9709997
 116.0299992  89.2524990  96.2439997 115.1229992  88.4864990  95.3039997
 115.2420769  89.0914735  95.9182366 113.7649992  94.5664990 101.0479997
 113.1179992  94.1044990 100.5149997 114.1199992  93.8944990 101.6309997
 113.7243861  94.4124707 101.0537939 114.6349992  92.6464990 102.8529997
 114.3009992  91.7664990 103.0249997 114.8569992  92.9924990 103.7169997
 114.6192677  92.5727365 102.9934252 132.1839992  93.4564990 105.8329997
 132.1619992  93.6414990 106.7719997 132.8739992  94.0244990 105.4919997
 132.2743439  93.5586898 105.9154774 131.7469992  93.0234990 108.7549997
 131.2599992  92.2874990 108.3839997 132.2959992  92.6294990 109.4329997
 131.7546101  92.8696267 108.7959034 131.4989992  87.0694990  98.9069997
 132.3489992  87.4904990  99.0349997 131.5039992  86.3294990  99.5149997
 131.6159745  87.0271347  99.0066479 131.8929992  85.1234990 100.7309997
 131.1669992  84.6434990 101.1289997 132.4739992  85.3284990 101.4629997
 131.8722504  85.0855592 100.8844199  23.0729992  30.6994990  92.7089997
  23.8049992  30.9544990  93.2699997  22.2929992  30.9044990  93.2239997
  23.0677684  30.7621457  92.8554774 131.6519992  87.9084990 105.6789997
 132.4859992  87.5304990 105.3979997 131.7639992  88.8514990 105.5599997
 131.7811917  87.9842954 105.6244844 130.1379992  90.7864990 107.9859997
 129.4909992  91.1114990 108.6109997 129.6209992  90.3454990 107.3109997
 129.9794068  90.7714726 107.9804918 132.1609992  85.0244990  97.1219997
 131.6399992  85.3804990  96.4029997 132.1279992  85.6994990  97.7999997
 132.0851525  85.1645273  97.1151408 130.5099992  82.2634990  95.6729997
 130.6069992  82.9304990  94.9929997 130.3699992  81.4484990  95.1909997
 130.5043428  82.2445667  95.5148311 129.6799992  83.6444990 101.2939997
 129.5299992  82.6994990 101.2739997 129.3259992  83.9254990 102.1379997
 129.6116351  83.5531656 101.4053202 114.7149992  85.7224990 105.3039997
 114.8989992  85.6404990 104.3689997 115.5639992  85.5984990 105.7279997
 114.8550259  85.6944915 105.2331771 129.7579992  79.6714990  94.7899997
 130.3679992  79.3004990  95.4269997 128.9209992  79.2504990  94.9859997
 129.7283704  79.5637942  94.9037077 129.3899992  81.2264990  99.7559997
 129.6699992  80.3194990  99.8809997 130.1489992  81.6604990  99.3669997
 129.5309471  81.1610654  99.7205052 130.0019992  81.8084990 105.1919997
 130.9349992  82.0204990 105.1579997 129.7669992  81.9094990 106.1149997
 130.0978357  81.8511303 105.3120232 130.0309992  82.5454990 107.9679997
 129.1879992  82.8134990 108.3339997 130.4739992  83.3674990 107.7569997
 129.9754358  82.6933294 107.9895999  29.1029992  26.1064990  85.4469997
  29.6669992  25.5604990  84.8999997  28.9549992  25.5854990  86.2359997
  29.1603037  25.9611798  85.4787212 130.0039992  78.4894990  99.8049997
 130.1859992  78.0404990 100.6299997 129.4039992  77.9054990  99.3409997
 129.9478187  78.3490563  99.8552721 115.5339992  79.3054990 104.3359997
 115.9789992  78.5134990 104.6379997 115.9999992  80.0214990 104.7669997
 115.6579059  79.2939485 104.4356061 113.8379992  82.3044990 105.4049997
 114.3299992  82.0834990 104.6149997 114.1999992  83.1444990 105.6859997
 113.9543429  82.3878220 105.3347918 131.8699992  78.5574990  96.3329997
 132.2829992  77.8364990  95.8569997 132.5519992  79.2264990  96.3909997
 132.0185712  78.5494304  96.2758247 114.1509992  78.5624990  99.4599997
 113.2259992  78.7704990  99.3299997 114.6049992  79.0464990  98.7699997
 114.0857401  78.6563895  99.3489433 128.9219992  93.5464990 101.4049997
 129.5739992  93.1984990 100.7969997 129.4329992  94.0344990 102.0509997
 129.0802872  93.5648248 101.4090964 114.1149992  77.3004990 107.8039997
 113.4499992  77.0544990 108.4469997 113.6719992  77.9224990 107.2269997
 113.9641168  77.3509225 107.8139830 119.2609992  91.4494990 108.2069997
 118.8359992  92.2594990 107.9239997 120.1649992  91.5354990 107.9049997
 119.3251002  91.5718728 108.1274798 130.8349992  76.7244990 109.4899997
 130.0219992  77.0494990 109.1019997 131.0679992  75.9634990 108.9569997
 130.7552566  76.6661570 109.3649196 116.6629992  94.7064990 108.2539997
 115.9419992  95.1464990 107.8029997 116.2969992  94.4554990 109.1029997
 116.5149785  94.7327691 108.3069849  24.1049992  22.2434990  81.8649997
  23.7869992  21.3404990  81.8299997  24.8859992  22.2454990  81.3129997
  24.1671560  22.1201148  81.7854975 119.1299992  94.3064990 107.2839997
 118.2649992  94.3784990 107.6879997 119.0749992  94.8534990 106.4999997
 119.0042066  94.3902678 107.2333371 123.8409992  94.1944990 106.4599997
 123.3839992  94.7234990 105.8059997 124.0029992  94.7974990 107.1849997
 123.8003919  94.3483990 106.4685740 126.1679992  93.0724990 107.4049997
 125.2639992  93.2374990 107.1389997 126.5969992  93.9254990 107.3389997
 126.1022017  93.2104184 107.3596495 128.7719992  94.6424990 107.6999997
 128.5909992  95.5584990 107.4889997 128.9489992  94.2314990 106.8529997
 128.7711377  94.7123365 107.5567178 116.0779992  93.3294990 105.1649997
 116.0589992  92.9034990 106.0219997 116.8819992  93.0104990 104.7559997
 116.1841393  93.2280297 105.2270155 118.2189992  92.0394990 103.8199997
 117.9999992  91.1224990 103.9889997 119.0429992  92.1794990 104.2859997
 118.3004637  91.9329586 103.9061414 120.7559992  92.5094990 104.6679997
 120.9689992  91.6214990 104.3809997 120.8209992  92.4744990 105.6229997
 120.7939075  92.3833318 104.7577355 124.2649992  78.1734990 103.8129997
 123.5899992  77.5434990 104.0679997 124.8289992  77.6894990 103.2099997
 124.2489558  78.0219283 103.7663451 129.4069992  76.2804990 103.9249997
 130.0109992  76.8284990 103.4239997 128.5379992  76.5994990 103.6849997
 129.3721126  76.3987070 103.8239180 131.1339992  77.4194990 102.2589997
 131.7459992  76.9054990 101.7319997 131.5169992  78.2964990 102.2819997
 131.2693867  77.4677613 102.1900888  27.7289992  24.4954990  87.8609997
  26.8939992  24.9494990  87.9709997  28.2529992  24.7714990  88.6129997
  27.6855070  24.5949677  87.9777134 116.5909992  76.8074990 101.6349997
 115.8139992  76.5724990 101.1269997 117.1219992  76.0104990 101.6439997
 116.5564443  76.6676721 101.5667200 115.4279992  76.6054990  97.4379997
 115.8669992  77.2164990  96.8469997 114.7939992  77.1434990  97.9119997
 115.4024103  76.7619233  97.4211376 121.1709992  76.7334990 101.4479997
 122.0449992  77.1224990 101.4179997 121.0349992  76.5184990 102.3709997
 121.2723125  76.7577120 101.5686523 126.7269992  76.7634990 103.0969997
 126.8039992  76.8594990 102.1479997 126.4519992  75.8564990 103.2259997
 126.7003407  76.6539188 102.9843532 128.0809992  76.7894990  98.7899997
 127.3779992  77.4044990  98.5799997 127.6359992  75.9524990  98.9209997
 127.9246550  76.7604679  98.7789819 115.3289992  92.5534990  98.3359997
 114.6439992  92.5154990  97.6679997 115.3319992  93.4654990  98.6239997
 115.2357358  92.6716744  98.2836145 117.2889992  78.5214990  95.8809997
 117.7799992  77.8914990  95.3529997 117.9119992  78.8174990  96.5439997
 117.4405459  78.4752419  95.8983667 122.3149992  78.8144990  98.3379997
 122.4929992  78.1674990  99.0209997 122.2609992  79.6484990  98.8049997
 122.3320678  78.8386615  98.4946283 124.1929992  93.7624990  96.7329997
 125.0589992  94.1294990  96.5549997 123.9459992  93.3234990  95.9199997
 124.2782041  93.7533648  96.5985958 130.9019992  93.3254990  99.4129997
 130.7079992  92.5774990  98.8479997 130.8629992  94.0834990  98.8289997
 130.8701907  93.3255770  99.2568077  28.2729992  30.7084990  79.5459997
  27.5279992  30.2004990  79.2229997  28.1389992  30.7574990  80.4919997
  28.1528633  30.6455714  79.6297563 117.1469992  93.4734990  95.3609997
 116.8789992  93.7594990  96.2339997 117.9179992  92.9274990  95.5129997
 117.2145600  93.4388341  95.5011482 135.8269992  84.8324990 106.6049997
 135.8679992  84.2074990 107.3289997 136.5299992  85.4564990 106.7869997
 135.9276054  84.8313262 106.7286311 136.7509992  89.2824990 105.1399997
 136.3809992  88.4804990 104.7709997 137.6919992  89.1144990 105.1869997
 136.8275630  89.1498680 105.0957873 133.3609992  82.9424990 100.5329997
 132.9129992  83.7884990 100.5149997 132.7999992  82.3634990 100.0179997
 133.2238546  82.9799004 100.4608874 134.0709992  85.1044990 102.6589997
 134.2849992  84.3344990 103.1859997 134.8089992  85.1944990 102.0559997
 134.2000073  85.0113546 102.6495786 138.1439992  80.1464990 103.0179997
 138.1869992  81.0064990 102.5999997 137.6859992  79.5934990 102.3849997
 138.0879613  80.1895689 102.8751276 134.7639992  82.5434990 103.7799997
 135.4179992  81.9934990 104.2119997 134.7879992  82.2694990 102.8639997
 134.8567022  82.4312005 103.7151698 136.9539992  79.0644990 107.0919997
 136.7349992  79.5944990 106.3259997 136.2859992  79.2904990 107.7399997
 136.8337271  79.1676508 107.0746206 139.5229992  86.7394990 107.3799997
 138.7829992  87.3384990 107.4829997 140.2369992  87.2934990 107.0639997
 139.5183288  86.8962368 107.3513787 136.5479992  80.9564990 105.0449997
 137.1609992  81.5894990 105.4179997 137.0599992  80.4844990 104.3879997
 136.7011680  80.9794006 105.0072830  35.4229992  29.8414990  88.3319997
  36.0649992  30.2974990  87.7889997  34.5929992  29.9544990  87.8699997
  35.3987352  29.9193223  88.1950234 137.9299992  88.7044990 108.1669997
 137.9249992  89.5834990 107.7889997 137.0769992  88.6204990 108.5919997
 137.8139199  88.8135901 108.1726942 134.0519992  88.3754990  98.9489997
 133.7799992  88.6044990  98.0599997 134.0969992  89.2124990  99.4089997
 134.0208709  88.5201069  98.8896089 138.2979992  86.0474990 101.8799997
 137.9679992  85.6764990 101.0609997 138.8859992  85.3764990 102.2259997
 138.3324056  85.9061257 101.8149035 138.6649992  84.8154990 105.5129997
 139.2299992  84.9374990 104.7499997 138.9829992  85.4534990 106.1519997
 138.7853430  84.9184448 105.4949094 136.4649992  85.4134990 109.4589997
 136.5349992  86.0644990 110.1569997 135.5739992  85.5164990 109.1239997
 136.3541802  85.5164769 109.5092231 137.2879992  85.1164990  99.4689997
 136.9959992  85.8844990  98.9779997 136.6139992  84.4574990  99.3059997
 137.1568843  85.1324537  99.3797695 133.3809992  87.4794990 108.2839997
 132.8799992  87.4514990 107.4689997 133.3869992  86.5744990 108.5939997
 133.3131690  87.3532234 108.2142770 133.1319992  90.2604990 105.1679997
 134.0779992  90.1154990 105.1489997 133.0189992  91.0444990 105.7049997
 133.2463578  90.3466708 105.2380300 136.3759992  93.0614990 101.3129997
 136.5279992  92.7134990 102.1919997 135.5249992  92.7044990 101.0579997
 136.2817899  92.9656749 101.3987322 135.6299992  88.8034990 109.3269997
 135.8459992  88.4414990 110.1869997 134.7749992  88.4284990 109.1169997
 135.5439349  88.7032914 109.4162134  29.7929992  30.8924990  90.7829997
  29.4469992  30.5104990  91.5889997  29.5929992  31.8254990  90.8539997
  29.7185400  30.9663489  90.9030401 138.2489992  77.2734990 105.3229997
 137.3869992  77.1864990 104.9149997 138.2269992  78.1294990 105.7499997
 138.1280953  77.3773558 105.3249262 138.3399992  82.2384990 106.4179997
 137.6979992  82.1984990 107.1269997 138.3769992  83.1654990 106.1799997
 138.2571659  82.3582540 106.4828463 138.3369992  82.4594990 101.3299997
 137.4439992  82.1194990 101.2709997 138.7879992  82.0824990 100.5739997
 138.2757185  82.3620220 101.2197698 136.0899992  82.5594990 108.2849997
 136.0519992  82.9594990 109.1529997 135.5989992  81.7424990 108.3749997
 136.0184246  82.5038842 108.4161171 139.4559992  79.9334990  95.0829997
 139.0249992  79.4884990  95.8129997 138.7379992  80.3044990  94.5709997
 139.2999363  79.9227979  95.1136194 132.6979992  79.6754990 102.1349997
 133.3289992  79.6464990 102.8549997 133.1479992  79.2504990 101.4049997
 132.8450905  79.6140839 102.1347479 133.9719992  80.4214990  97.5589997
 134.4469992  81.0124990  96.9739997 133.2549992  80.9514990  97.9059997
 133.9400406  80.5741011  97.5258495 135.7469992  81.5164990 101.2429997
 134.8579992  81.6154990 100.9029997 136.0429992  80.6744990 100.8969997
 135.6654001  81.4162473 101.1497318 139.3999992  81.5164990  98.8989997
 140.3319992  81.6454990  99.0769997 139.1849992  82.1854990  98.2499997
 139.4984245  81.6246452  98.8355602 138.0739992  82.7104990  96.4659997
 137.5319992  82.3314990  95.7749997 138.9079992  82.9054990  96.0369997
 138.1124283  82.6849383  96.3134298  32.8889992  25.3894990  79.4059997
  33.7809992  25.2514990  79.7249997  32.9459992  26.1804990  78.8689997
  33.0187380  25.4774777  79.3770981 137.2409992  78.8114990 100.7209997
 136.9229992  77.9084990 100.6859997 138.0219992  78.8134990 100.1689997
 137.3031560  78.6881148 100.6414975 136.5339992  86.5714990 104.1709997
 137.2789992  86.5684990 103.5699997 136.6119992  85.7474990 104.6529997
 136.6464158  86.4597928 104.1539136 133.5419992  85.0314990 109.4859997
 133.7649992  84.6134990 110.3179997 132.9399992  84.4194990 109.0639997
 133.4910802  84.8915216 109.5427561 138.9089992  90.0894990 101.5759997
 139.4359992  90.8624990 101.3749997 138.0289992  90.3134990 101.2739997
 138.8621793  90.2256652 101.5076304 134.6639992  84.9514990  96.1629997
 135.2799992  85.5784990  96.5419997 133.8019992  85.2674990  96.4339997
 134.6318195  85.0800810  96.2515369 139.0189992  92.7734990 100.6969997
 138.0699992  92.8794990 100.7489997 139.3709992  93.5944990 101.0419997
 138.9366214  92.8989361 100.7507317 135.1759992  79.7854990 109.0439997
 134.2829992  80.1234990 108.9769997 135.0769992  78.9294990 109.4619997
 135.0405241  79.7160941 109.0912982 134.8269992  91.5894990 107.4789997
 135.0439992  90.6574990 107.4479997 135.0739992  91.8644990 108.3629997
 134.8900543  91.4990877 107.5941412 136.0789992  86.8634990  97.6549997
 135.3929992  87.2164990  98.2219997 136.6019992  87.6264990  97.4089997
 136.0559033  87.0148757  97.6992644 138.4359992  79.0504990  97.4919997
 138.3529992  79.9384990  97.8379997 139.3259992  78.7854990  97.7229997
 138.5449751  79.1362482  97.5706066  23.3979992  30.0034990  85.3149997
  24.1429992  30.0004990  84.7139997  23.4759992  29.1794990  85.7969997
  23.5104158  29.8917928  85.2979136 136.6949992  89.4774990  96.5519997
 137.2869992  90.1774990  96.8279997 137.1539992  89.0444990  95.8329997
 136.8381172  89.5147371  96.4925163 135.0109992  82.1424990  95.6679997
 134.9659992  83.0814990  95.8469997 134.1229992  81.9064990  95.3979997
 134.8848472  82.2391946  95.6560282 135.8189992  76.9234990 104.3409997
 135.5899992  76.9824990 103.4139997 135.3759992  76.1324990 104.6479997
 135.7277387  76.8246412 104.2555223 134.7489992  90.8644990 100.5019997
 133.9169992  91.3364990 100.5289997 135.2949992  91.3744990  99.9029997
 134.7088710  90.9980317 100.4247570 138.2859992  87.6304990  94.9179997
 138.3499992  86.8364990  95.4489997 138.9389992  87.5124990  94.2289997
 138.3831168  87.5057748  94.8975119 139.4349992  85.6034990  97.2239997
 138.9759992  85.1194990  97.9099997 139.6899992  84.9344990  96.5879997
 139.4066178  85.4468511  97.2319785 138.7239992  83.4964990 109.5799997
 138.1059992  84.1704990 109.8609997 139.0679992  83.8174990 108.7469997
 138.6858181  83.6323233 109.5058266 139.4759992  79.2204990 108.1549997
 140.0119992  79.6724990 107.5029997 138.6239992  79.1124990 107.7329997
 139.4341648  79.2677883 108.0086395 133.9719992  89.1734990  95.9709997
 134.8859992  89.2524990  96.2439997 133.9789992  88.4864990  95.3039997
 134.0980769  89.0914734  95.9182366 132.6209992  94.5664990 101.0479997
 131.9739992  94.1044990 100.5149997 132.9759992  93.8944990 101.6309997
 132.5803861  94.4124707 101.0537939  30.3989992  32.1664990  78.5709997
  30.1039992  32.9934990  78.9529997  29.6959992  31.5474990  78.7669997
  30.2635855  32.1959458  78.6497634 133.4909992  92.6464990 102.8529997
 133.1569992  91.7664990 103.0249997 133.7129992  92.9924990 103.7169997
 133.4752677  92.5727366 102.9934252 133.5709992  85.7224990 105.3039997
 133.7549992  85.6404990 104.3689997 134.4199992  85.5984990 105.7279997
 133.7110259  85.6944915 105.2331771 134.3899992  79.3054990 104.3359997
 134.8349992  78.5134990 104.6379997 134.8559992  80.0214990 104.7669997
 134.5139059  79.2939485 104.4356061 132.6939992  82.3044990 105.4049997
 133.1859992  82.0834990 104.6149997 133.0559992  83.1444990 105.6859997
 132.8103429  82.3878220 105.3347918 133.0069992  78.5624990  99.4599997
 132.0819992  78.7704990  99.3299997 133.4609992  79.0464990  98.7699997
 132.9417401  78.6563895  99.3489433 132.9709992  77.3004990 107.8039997
 132.3059992  77.0544990 108.4469997 132.5279992  77.9224990 107.2269997
 132.8201168  77.3509225 107.8139830 138.1169992  91.4494990 108.2069997
 137.6919992  92.2594990 107.9239997 139.0209992  91.5354990 107.9049997
 138.1811002  91.5718728 108.1274798 135.5189992  94.7064990 108.2539997
 134.7979992  95.1464990 107.8029997 135.1529992  94.4554990 109.1029997
 135.3709785  94.7327691 108.3069849 137.9859992  94.3064990 107.2839997
 137.1209992  94.3784990 107.6879997 137.9309992  94.8534990 106.4999997
 137.8602066  94.3902678 107.2333371 134.9339992  93.3294990 105.1649997
 134.9149992  92.9034990 106.0219997 135.7379992  93.0104990 104.7559997
 135.0401393  93.2280297 105.2270155  20.4059992  28.4634990  90.6299997
  20.6289992  28.0454990  91.4619997  19.8039992  27.8514990  90.2079997
  20.3550802  28.3235216  90.6867561 137.0749992  92.0394990 103.8199997
 136.8559992  91.1224990 103.9889997 137.8989992  92.1794990 104.2859997
 137.1564637  91.9329586 103.9061414 135.4469992  76.8074990 101.6349997
 134.6699992  76.5724990 101.1269997 135.9779992  76.0104990 101.6439997
 135.4124443  76.6676721 101.5667200 134.2839992  76.6054990  97.4379997
 134.7229992  77.2164990  96.8469997 133.6499992  77.1434990  97.9119997
 134.2584103  76.7619233  97.4211376 134.1849992  92.5534990  98.3359997
 133.4999992  92.5154990  97.6679997 134.1879992  93.4654990  98.6239997
 134.0917358  92.6716744  98.2836145 136.1449992  78.5214990  95.8809997
 136.6359992  77.8914990  95.3529997 136.7679992  78.8174990  96.5439997
 136.2965459  78.4752419  95.8983667 136.0029992  93.4734990  95.3609997
 135.7349992  93.7594990  96.2339997 136.7739992  92.9274990  95.5129997
 136.0705600  93.4388341  95.5011482  12.5339992 104.8194990 101.5929997
  12.6229992 105.7634990 101.4609997  11.8949992 104.5444990 100.9349997
  12.4598319 104.9114984 101.4860276  11.4669992 104.0744990 105.0119997
  11.4279992 103.4284990 105.7169997  11.1439992 103.6074990 104.2409997
  11.4180199 103.9230089 105.0042865   3.8349992 103.6884990 106.6049997
   3.8759992 103.0634990 107.3289997   4.5379992 104.3124990 106.7869997
   3.9356054 103.6873262 106.7286311  15.1729992 107.0134990 103.3139997
  14.7319992 106.2934990 103.7639997  15.1599992 107.7344990 103.9439997
  15.1108398 107.0123187 103.4607734  27.4229992  27.9804990  92.8429997
  27.1269992  27.8154990  91.9479997  28.3539992  27.7604990  92.8329997
  27.5083909  27.9281274  92.7190110   4.7589992 108.1384990 105.1399997
   4.3889992 107.3364990 104.7709997   5.6999992 107.9704990 105.1869997
   4.8355630 108.0058680 105.0957873   1.3689992 101.7984990 100.5329997
   0.9209992 102.6444990 100.5149997   0.8079992 101.2194990 100.0179997
   1.2318546 101.8359004 100.4608874   2.0789992 103.9604990 102.6589997
   2.2929992 103.1904990 103.1859997   2.8169992 104.0504990 102.0559997
   2.2080073 103.8673546 102.6495786  12.2839992 112.1174990 103.5259997
  12.9039992 111.4414990 103.2529997  12.0759992 111.8994990 104.4339997
  12.3407360 111.9954792 103.6114387   9.8559992 106.5064990 105.4179997
  10.1599992 105.8204990 104.8239997  10.5779992 106.6254990 106.0359997
   9.9951152 106.4287201 105.4202106  18.5189992  98.1084990 106.2789997
  18.5679992  98.7184990 107.0149997  18.9449992  98.5694990 105.5559997
  18.5832851  98.2543266 106.2820532  12.9969992 100.9004990 105.7459997
  13.1389992  99.9544990 105.7659997  12.8909992 101.1074990 104.8169997
  13.0021158 100.7989722 105.6232241   6.1519992  99.0024990 103.0179997
   6.1949992  99.8624990 102.5999997   5.6939992  98.4494990 102.3849997
   6.0959613  99.0455689 102.8751276  13.8739992  99.1334990 101.4189997
  14.5199992  98.8044990 102.0439997  14.3839992  99.6504990 100.7959997
  14.0314392  99.1583710 101.4203248   2.7719992 101.3994990 103.7799997
   3.4259992 100.8494990 104.2119997   2.7959992 101.1254990 102.8639997
   2.8647022 101.2872005 103.7151698  32.0429992  33.3544990  90.7329997
  31.1419992  33.5374990  90.4649997  32.0769992  33.6134990  91.6539997
  31.9243021  33.4145505  90.8208206   7.9279992 102.9494990 102.9959997
   8.5439992 102.4224990 103.5049997   7.3419992 102.3094990 102.5919997
   7.9330652 102.7908919 103.0110277  18.9109992  99.5864990 108.5149997
  18.2219992 100.2444990 108.4199997  18.9259992  99.3884990 109.4519997
  18.8187756  99.6497614 108.6285795   4.9619992  97.9204990 107.0919997
   4.7429992  98.4504990 106.3259997   4.2939992  98.1464990 107.7399997
   4.8417271  98.0236508 107.0746206  12.3309992 107.4204990 100.6359997
  12.0349992 107.0974990  99.7849997  12.0069992 108.3204990 100.6779997
  12.2466501 107.4979058 100.5250893   7.5309992 105.5954990 107.3799997
   6.7909992 106.1944990 107.4829997   8.2449992 106.1494990 107.0639997
   7.5263288 105.7522368 107.3513787  15.6379992  98.4244990 103.3999997
  15.4229992  97.6584990 103.9319997  16.2939992  98.8964990 103.9129997
  15.6972451  98.3834472 103.5421699   4.5559992  99.8124990 105.0449997
   5.1689992 100.4454990 105.4179997   5.0679992  99.3404990 104.3879997
   4.7091680  99.8354006 105.0072830   5.9379992 107.5604990 108.1669997
   5.9329992 108.4394990 107.7889997   5.0849992 107.4764990 108.5919997
   5.8219199 107.6695901 108.1726942   2.0599992 107.2314990  98.9489997
   1.7879992 107.4604990  98.0599997   2.1049992 108.0684990  99.4089997
   2.0288709 107.3761069  98.8896089  15.6849992 108.8524990 105.6619997
  14.7429992 108.9114990 105.8229997  15.9609992 109.7584990 105.5249997
  15.5935771 108.9830270 105.6654827  37.7739992  25.5984990  79.0999997
  37.2199992  25.2024990  78.4279997  37.8749992  26.5094990  78.8229997
  37.7117084  25.6673565  78.9704381  15.9849992  97.1394990 107.0789997
  15.2489992  97.7494990 107.0409997  16.6689992  97.5544990 106.5529997
  15.9765885  97.2791924 107.0026931   8.9879992  95.2254990 104.5449997
   8.8709992  94.2774990 104.4909997   8.1329992  95.5584990 104.8179997
   8.8563691  95.1405842 104.5745072  13.9369992 110.6334990 102.2869997
  14.3619992 109.9264990 101.8019997  14.2539992 111.4354990 101.8699997
  14.0380266 110.6450201 102.1642461  15.0959992 108.5344990 100.7959997
  14.8389992 107.8444990 100.1839997  15.1669992 108.0914990 101.6409997
  15.0704322 108.3801568 100.8265372  16.7819992 107.1014990 109.2729997
  16.9219992 106.5094990 108.5339997  16.9499992 107.9744990 108.9169997
  16.8238734 107.1384041 109.1236937  11.2549992 104.0634990  99.0449997
  10.5429992 104.5984990  98.6939997  11.9459992 104.1184990  98.3849997
  11.2508696 104.1442591  98.9076372  11.3089992 102.5204990  96.0839997
  12.0099992 102.5434990  96.7349997  11.6109992 101.8924990  95.4279997
  11.4458282 102.4387350  96.0844478  18.6239992 103.4414990 107.3389997
  17.9719992 104.1354990 107.4279997  19.0889992 103.6514990 106.5289997
  18.5975357 103.5649544 107.2417056  14.6609992 104.2724990  99.9969997
  13.9289992 104.5014990 100.5699997  15.1079992 103.5594990 100.4519997
  14.6212753 104.2073984 100.1369698  14.5579992 102.4474990 109.0649997
  14.6379992 103.2104990 109.6369997  13.9569992 102.7264990 108.3739997
  14.4877115 102.5897707 109.0499631  37.7369992  31.3994990  91.9369997
  36.8859992  31.6374990  91.5699997  38.3279992  31.3824990  91.1839997
  37.7002468  31.4298251  91.7848902   6.3059992 104.9034990 101.8799997
   5.9759992 104.5324990 101.0609997   6.8939992 104.2324990 102.2259997
   6.3404056 104.7621257 101.8149035   7.6729992 108.3314990 104.5609997
   7.5779992 107.7524990 103.8039997   8.4019992 107.9604990 105.0569997
   7.7586161 108.2020902 104.5245192   6.6729992 103.6714990 105.5129997
   7.2379992 103.7934990 104.7499997   6.9909992 104.3094990 106.1519997
   6.7933430 103.7744448 105.4949094  12.9819992 109.1754990 106.2469997
  12.7409992 109.8374990 106.8949997  12.7839992 108.3404990 106.6719997
  12.9222662 109.1532704 106.3931008  13.5319992 103.4354990  97.6819997
  14.1109992 103.5854990  98.4289997  13.9459992 103.9054990  96.9589997
  13.6673122 103.5196288  97.6865024   4.4729992 104.2694990 109.4589997
   4.5429992 104.9204990 110.1569997   3.5819992 104.3724990 109.1239997
   4.3621802 104.3724769 109.5092231  11.2579992 110.1714990 101.1179997
  11.7319992 110.4674990 101.8949997  10.6949992 110.9104990 100.8839997
  11.2468460 110.3118336 101.1927626  17.2299992  95.1854990  97.4949997
  16.3299992  95.3234990  97.7899997  17.4819992  96.0164990  97.0929997
  17.1407355  95.3168200  97.4810539   5.2959992 103.9724990  99.4689997
   5.0039992 104.7404990  98.9779997   4.6219992 103.3134990  99.3059997
   5.1648843 103.9884537  99.3797695  18.4199992 109.5514990  95.8719997
  18.4929992 110.4904990  96.0419997  19.3249992 109.2464990  95.8149997
  18.5524168 109.6388531  95.8875736  36.0689992  34.3844990  79.5649997
  35.6969992  33.5594990  79.8749997  36.3469992  34.2014990  78.6679997
  36.0555997  34.2466160  79.4861551   1.3889992 106.3354990 108.2839997
   0.8879992 106.3074990 107.4689997   1.3949992 105.4304990 108.5939997
   1.3211690 106.2092234 108.2142770   1.1399992 109.1164990 105.1679997
   2.0859992 108.9714990 105.1489997   1.0269992 109.9004990 105.7049997
   1.2543578 109.2026708 105.2380300  10.3159992 109.3564990 109.7259997
  10.4029992 110.1824990 110.2009997   9.4519992 109.0264990 109.9749997
  10.2111944 109.4249871 109.8246558  10.7299992 113.1284990  99.5319997
  10.6549992 113.0074990  98.5859997  10.7629992 114.0774990  99.6509997
  10.7241862 113.2402492  99.4184840   4.3839992 111.9174990 101.3129997
   4.5359992 111.5694990 102.1919997   3.5329992 111.5604990 101.0579997
   4.2897899 111.8216749 101.3987322  13.8319992 112.2824990  96.5349997
  14.2069992 111.5384990  96.0639997  13.8359992 112.0124990  97.4529997
  13.8838969 112.1440920  96.5946475  13.5009992 112.2084990  99.2839997
  12.5659992 112.3084990  99.4629997  13.7809992 111.4984990  99.8619997
  13.4109270 112.1262300  99.3865984   3.6379992 107.6594990 109.3269997
   3.8539992 107.2974990 110.1869997   2.7829992 107.2844990 109.1169997
   3.5519349 107.5592914 109.4162134   6.2569992  96.1294990 105.3229997
   5.3949992  96.0424990 104.9149997   6.2349992  96.9854990 105.7499997
   6.1360953  96.2333558 105.3249262  10.9199992  95.8514990 108.6969997
  11.3399992  95.4364990 109.4499997   9.9869992  95.6724990 108.8139997
  10.8513736  95.7704921 108.8158950  33.2299992  29.1924990  86.5869997
  32.3019992  28.9614990  86.5599997  33.6809992  28.4154990  86.2569997
  33.1638165  29.0557785  86.5386772  14.2459992  99.6064990 109.5509997
  13.7319992  99.4814990 110.3479997  14.0909992 100.5194990 109.3059997
  14.1546643  99.7127068 109.6270624  15.0089992 104.4674990  95.3119997
  15.0509992 104.2454990  94.3819997  15.8579992 104.8664990  95.5019997
  15.1295253 104.4910510  95.2103804  10.5819992  98.3434990  95.9819997
  10.3279992  98.3624990  96.9049997  10.3249992  97.4724990  95.6809997
  10.5125133  98.2283121  96.0675065   6.3479992 101.0944990 106.4179997
   5.7059992 101.0544990 107.1269997   6.3849992 102.0214990 106.1799997
   6.2651659 101.2142540 106.4828463   6.3449992 101.3154990 101.3299997
   5.4519992 100.9754990 101.2709997   6.7959992 100.9384990 100.5739997
   6.2837185 101.2180220 101.2197698  11.8809992 101.7314990 100.1469997
  11.4719992 102.5464990  99.8549997  12.6009992 101.5914990  99.5319997
  11.9223946 101.8239963 100.0239616  12.8849992 101.1774990 102.9609997
  12.6899992 101.7834990 102.2459997  13.0669992 100.3444990 102.5259997
  12.8829272 101.1477955 102.8044075   4.0979992 101.4154990 108.2849997
   4.0599992 101.8154990 109.1529997   3.6069992 100.5984990 108.3749997
   4.0264246 101.3598842 108.4161171   7.4639992  98.7894990  95.0829997
   7.0329992  98.3444990  95.8129997   6.7459992  99.1604990  94.5709997
   7.3079363  98.7787979  95.1136194   0.7059992  98.5314990 102.1349997
   1.3369992  98.5024990 102.8549997   1.1559992  98.1064990 101.4049997
   0.8530905  98.4700839 102.1347479  25.7729992  33.5214990  82.7199997
  26.2999992  34.2944990  82.5189997  24.8929992  33.7454990  82.4179997
  25.7261793  33.6576652  82.6516304   1.9799992  99.2774990  97.5589997
   2.4549992  99.8684990  96.9739997   1.2629992  99.8074990  97.9059997
   1.9480406  99.4301011  97.5258495  12.1489992 102.8154990 107.6319997
  12.4729992 102.1844990 106.9889997  11.7089992 102.2814990 108.2929997
  12.1338707 102.6568261 107.6333195   8.9269992  98.7434990 102.4159997
   8.0159992  98.8004990 102.7049997   9.4319992  98.6834990 103.2269997
   8.8706873  98.7431838 102.5651190   3.7549992 100.3724990 101.2429997
   2.8659992 100.4714990 100.9029997   4.0509992  99.5304990 100.8969997
   3.6734001 100.2722473 101.1497318   7.4079992 100.3724990  98.8989997
   8.3399992 100.5014990  99.0769997   7.1929992 101.0414990  98.2499997
   7.5064245 100.4806452  98.8355602  13.3319992  97.9784990 105.6799997
  12.6549992  98.1094990 106.3439997  12.8459992  97.8234990 104.8699997
  13.1737265  97.9754665 105.6613380   6.0819992 101.5664990  96.4659997
   5.5399992 101.1874990  95.7749997   6.9159992 101.7614990  96.0369997
   6.1204283 101.5409383  96.3134298  10.2469992 101.5304990 104.3029997
  10.8109992 100.9844990 103.7559997  10.0989992 101.0094990 105.0919997
  10.3043037 101.3851798 104.3347212   5.2489992  97.6674990 100.7209997
   4.9309992  96.7644990 100.6859997   6.0299992  97.6694990 100.1689997
   5.3111560  97.5441148 100.6414975   8.8729992  99.9194990 106.7169997
   8.0379992 100.3734990 106.8269997   9.3969992 100.1954990 107.4689997
   8.8295070 100.0189677 106.8337134  21.5279992  28.3834990  77.3069997
  22.1439992  29.0104990  77.6859997  20.6659992  28.6994990  77.5779997
  21.4958195  28.5120810  77.3955369   9.4169992 106.1324990  98.4019997
   8.6719992 105.6244990  98.0789997   9.2829992 106.1814990  99.3479997
   9.2968633 106.0695714  98.4857563  16.5669992 105.2654990 107.1879997
  17.2089992 105.7214990 106.6449997  15.7369992 105.3784990 106.7259997
  16.5427352 105.3433223 107.0510234  13.3149992  98.9464990  96.6009997
  12.3759992  99.0574990  96.4499997  13.6119992  99.8024990  96.9069997
  13.2266371  99.0775327  96.6217362  10.9369992 106.3164990 109.6389997
  10.5909992 105.9344990 110.4449997  10.7369992 107.2494990 109.7099997
  10.8625400 106.3903489 109.7590401  14.0329992 100.8134990  98.2619997
  14.9249992 100.6754990  98.5809997  14.0899992 101.6044990  97.7249997
  14.1627380 100.9014777  98.2330981   4.5419992 105.4274990 104.1709997
   5.2869992 105.4244990 103.5699997   4.6199992 104.6034990 104.6529997
   4.6544158 105.3157928 104.1539136  11.5429992 107.5904990  97.4269997
  11.2479992 108.4174990  97.8089997  10.8399992 106.9714990  97.6229997
  11.4075855 107.6199458  97.5057634   1.5499992 103.8874990 109.4859997
   1.7729992 103.4694990 110.3179997   0.9479992 103.2754990 109.0639997
   1.4990802 103.7475216 109.5427561  13.1869992 108.7784990 109.5889997
  12.2859992 108.9614990 109.3209997  13.2209992 109.0374990 110.5099997
  13.0683021 108.8385505 109.6768206  18.9179992 101.0224990  97.9559997
  18.3639992 100.6264990  97.2839997  19.0189992 101.9334990  97.6789997
  18.8557084 101.0913565  97.8264381  27.1999992  31.1844990  82.2959997
  26.9589992  32.1094990  82.3379997  26.4599992  30.7254990  82.6919997
  27.0668934  31.2490881  82.3553191  17.2129992 109.8084990  98.4209997
  16.8409992 108.9834990  98.7309997  17.4909992 109.6254990  97.5239997
  17.1995997 109.6706160  98.3421551  14.3739992 104.6164990 105.4429997
  13.4459992 104.3854990 105.4159997  14.8249992 103.8394990 105.1129997
  14.3078165 104.4797785 105.3946772   6.9169992 108.9454990 101.5759997
   7.4439992 109.7184990 101.3749997   6.0369992 109.1694990 101.2739997
   6.8701793 109.0816652 101.5076304   2.6719992 103.8074990  96.1629997
   3.2879992 104.4344990  96.5419997   1.8099992 104.1234990  96.4339997
   2.6398195 103.9360810  96.2515369   8.3439992 106.6084990 101.1519997
   8.1029992 107.5334990 101.1939997   7.6039992 106.1494990 101.5479997
   8.2108934 106.6730881 101.2113191   8.8589992 110.7574990 107.4669997
   9.2219992 111.6114990 107.2339997   9.3909992 110.4654990 108.2079997
   8.9805141 110.8348907 107.5352079   7.0269992 111.6294990 100.6969997
   6.0779992 111.7354990 100.7489997   7.3789992 112.4504990 101.0419997
   6.9446214 111.7549361 100.7507317  12.4029992 106.8564990 107.1679997
  11.9769992 106.6284990 107.9939997  12.9839992 106.1174990 106.9849997
  12.4231587 106.7254084 107.2564111  14.6059992 107.7854990  96.2419997
  14.9589992 107.4054990  97.0459997  13.6569992 107.6914990  96.3279997
  14.5260985 107.7207330  96.3637738  15.0619992 111.4084990 109.6369997
  14.4599992 110.8524990 109.1419997  15.3429992 112.0754990 109.0109997
  15.0175757 111.4225755 109.4845657  27.7149992  35.3334990  88.6109997
  28.0779992  36.1874990  88.3779997  28.2469992  35.0414990  89.3519997
  27.8365141  35.4108907  88.6792079  19.1089992 112.2644990  96.4429997
  19.8529992 112.8504990  96.3029997  18.4149992 112.8334990  96.7759997
  19.1169809 112.4215830  96.4688572   3.1839992  98.6414990 109.0439997
   2.2909992  98.9794990 108.9769997   3.0849992  97.7854990 109.4619997
   3.0485241  98.5720941 109.0912982  15.4719992 106.4574990  98.4679997
  15.1949992 105.7294990  99.0239997  16.3989992 106.5764990  98.6739997
  15.5594181 106.3740068  98.5718972   2.8349992 110.4454990 107.4789997
   3.0519992 109.5134990 107.4479997   3.0819992 110.7204990 108.3629997
   2.8980543 110.3550877 107.5941412   8.6969992 108.8974990  94.6889997
   8.9359992 108.1484990  94.1409997   8.4279992 108.5094990  95.5209997
   8.6932804 108.7426524  94.7266352   7.6339992 108.4674990  97.1449997
   7.7809992 107.9474990  97.9349997   7.6309992 109.3744990  97.4509997
   7.6537300 108.5188975  97.2945877   4.0869992 105.7194990  97.6549997
   3.4009992 106.0724990  98.2219997   4.6099992 106.4824990  97.4089997
   4.0639033 105.8708757  97.6992644  11.9179992  98.3824990 107.9339997
  12.6169992  98.4564990 108.5839997  11.5379992  97.5174990 108.0889997
  11.9622095  98.2757402 108.0437982  12.7029992  98.0344990  99.0309997
  12.9229992  98.5054990  98.2279997  13.2609992  98.4284990  99.7019997
  12.8085851  98.1523272  99.0116134  10.3719992 110.1644990  97.8939997
   9.5549992 110.6614990  97.9469997  10.9009992 110.6404990  97.2539997
  10.3317898 110.2968123  97.8147274  25.8829992  36.2054990  81.8409997
  24.9339992  36.3114990  81.8929997  26.2349992  37.0264990  82.1859997
  25.8006214  36.3309361  81.8947317   9.9029992  99.7624990  99.8659997
  10.7149992 100.2664990  99.9119997   9.6579992  99.6174990 100.7799997
   9.9811091  99.8119366  99.9958552  10.4389992 100.7484990 109.0509997
  10.5579992 101.3224990 109.8079997  11.0939992 100.0604990 109.1659997
  10.5438684 100.7340205 109.1701656  10.7869992  96.8434990 100.8039997
  10.4399992  97.4604990 101.4489997  11.4449992  97.3444990 100.3229997
  10.8285290  96.9956384 100.8271635   7.7099992 111.2084990  97.8759997
   7.8709992 112.0084990  97.3749997   7.5129992 111.5154990  98.7609997
   7.7053919 111.3594140  97.9270988   6.4439992  97.9064990  97.4919997
   6.3609992  98.7944990  97.8379997   7.3339992  97.6414990  97.7229997
   6.5529751  97.9922482  97.5706066  16.6429992  98.6554990 109.8859997
  15.7269992  98.9174990 109.7979997  16.9789992  98.6524990 108.9889997
  16.5629789  98.6909637 109.7527829  15.2449992 102.4054990 103.9819997
  14.4479992 101.9904990 103.6529997  15.6899992 101.7154990 104.4729997
  15.1960317 102.2553197 104.0033556   4.7029992 108.3334990  96.5519997
   5.2949992 109.0334990  96.8279997   5.1619992 107.9004990  95.8329997
   4.8461172 108.3707371  96.4925163   3.0189992 100.9984990  95.6679997
   2.9739992 101.9374990  95.8469997   2.1309992 100.7624990  95.3979997
   2.8928472 101.0951946  95.6560282  16.3319992 111.6614990 105.6039997
  16.1759992 112.3404990 104.9469997  17.2639992 111.7334990 105.8069997
  16.4367328 111.7641586 105.5415529  31.2589992  31.4324990  88.3119997
  30.8329992  31.2044990  89.1379997  31.8399992  30.6934990  88.1289997
  31.2791587  31.3014084  88.4004111   3.8269992  95.7794990 104.3409997
   3.5979992  95.8384990 103.4139997   3.3839992  94.9884990 104.6479997
   3.7357387  95.6806413 104.2555223   2.7569992 109.7204990 100.5019997
   1.9249992 110.1924990 100.5289997   3.3029992 110.2304990  99.9029997
   2.7168710 109.8540317 100.4247570  10.7349992 110.7604990  94.8269997
  10.0909992 110.1294990  95.1489997  11.4969992 110.2294990  94.5949997
  10.7498260 110.6023035  94.8397298  15.3389992 110.5774990  95.0609997
  15.6219992 109.7824990  95.5139997  16.0789992 110.8104990  94.4999997
  15.4777295 110.5002349  95.0471469   6.2939992 106.4864990  94.9179997
   6.3579992 105.6924990  95.4489997   6.9469992 106.3684990  94.2289997
   6.3911168 106.3617748  94.8975119  11.6459992 107.5334990  94.6539997
  11.3779992 107.7144990  95.5549997  11.4399992 106.6084990  94.5229997
  11.5814251 107.4331528  94.7596809  14.3429992 106.0284990 109.6019997
  15.0879992 106.6174990 109.4819997  13.5849992 106.6104990 109.6649997
  14.3425185 106.1877000 109.5940940   7.4429992 104.4594990  97.2239997
   6.9839992 103.9754990  97.9099997   7.6979992 103.7904990  96.5879997
   7.4146178 104.3028511  97.2319785   6.7319992 102.3524990 109.5799997
   6.1139992 103.0264990 109.8609997   7.0759992 102.6734990 108.7469997
   6.6938181 102.4883233 109.5058266   8.5139992 102.7024990  95.4869997
   8.3339992 102.5474990  94.5589997   9.4639992 102.8104990  95.5309997
   8.6178016 102.6959264  95.3662123  33.9179992  35.9844990  90.7809997
  33.3159992  35.4284990  90.2859997  34.1989992  36.6514990  90.1549997
  33.8735757  35.9985755  90.6285657  17.9039992 105.0564990  94.9319997
  17.6309992 104.6324990  94.1189997  17.9439992 105.9884990  94.7149997
  17.8720201 105.1243523  94.7913548   7.4839992  98.0764990 108.1549997
   8.0199992  98.5284990 107.5029997   6.6319992  97.9684990 107.7329997
   7.4421648  98.1237883 108.0086395   9.0659992 103.5164990 108.3949997
   9.8169992 103.3604990 107.8219997   8.7269992 104.3684990 108.1189997
   9.1229052 103.6102745 108.2793469   8.2899992  95.5334990 108.5869997
   8.1919992  96.4794990 108.4809997   7.5469992  95.1604990 108.1109997
   8.1762363  95.6125987 108.5082029   8.4119992 113.3924990  96.4879997
   9.3449992 113.5504990  96.6319997   8.1469992 114.0684990  95.8629997
   8.5039846 113.5054567  96.4232930   1.9799992 108.0294990  95.9709997
   2.8939992 108.1084990  96.2439997   1.9869992 107.3424990  95.3039997
   2.1060769 107.9474735  95.9182366   0.6289992 113.4224990 101.0479997
  -0.0180008 112.9604990 100.5149997   0.9839992 112.7504990 101.6309997
   0.5883861 113.2684707 101.0537939   1.4989992 111.5024990 102.8529997
   1.1649992 110.6224990 103.0249997   1.7209992 111.8484990 103.7169997
   1.4832677 111.4287365 102.9934252  19.0479992 112.3124990 105.8329997
  19.0259992 112.4974990 106.7719997  19.7379992 112.8804990 105.4919997
  19.1383439 112.4146898 105.9154774  18.6109992 111.8794990 108.7549997
  18.1239992 111.1434990 108.3839997  19.1599992 111.4854990 109.4329997
  18.6186101 111.7256267 108.7959034  37.9649992  36.8404990  77.5869997
  38.7089992  37.4264990  77.4469997  37.2709992  37.4094990  77.9199997
  37.9729809  36.9975830  77.6128572  18.3629992 105.9254990  98.9069997
  19.2129992 106.3464990  99.0349997  18.3679992 105.1854990  99.5149997
  18.4799745 105.8831347  99.0066479  18.7569992 103.9794990 100.7309997
  18.0309992 103.4994990 101.1289997  19.3379992 104.1844990 101.4629997
  18.7362504 103.9415592 100.8844199  18.5159992 106.7644990 105.6789997
  19.3499992 106.3864990 105.3979997  18.6279992 107.7074990 105.5599997
  18.6451917 106.8402954 105.6244844  17.0019992 109.6424990 107.9859997
  16.3549992 109.9674990 108.6109997  16.4849992 109.2014990 107.3109997
  16.8434068 109.6274726 107.9804918  19.0249992 103.8804990  97.1219997
  18.5039992 104.2364990  96.4029997  18.9919992 104.5554990  97.7999997
  18.9491525 104.0205273  97.1151408  17.3739992 101.1194990  95.6729997
  17.4709992 101.7864990  94.9929997  17.2339992 100.3044990  95.1909997
  17.3683428 101.1005667  95.5148311  16.5439992 102.5004990 101.2939997
  16.3939992 101.5554990 101.2739997  16.1899992 102.7814990 102.1379997
  16.4756351 102.4091656 101.4053202   1.5789992 104.5784990 105.3039997
   1.7629992 104.4964990 104.3689997   2.4279992 104.4544990 105.7279997
   1.7190259 104.5504915 105.2331771  16.6219992  98.5274990  94.7899997
  17.2319992  98.1564990  95.4269997  15.7849992  98.1064990  94.9859997
  16.5923704  98.4197942  94.9037077  16.2539992 100.0824990  99.7559997
  16.5339992  99.1754990  99.8809997  17.0129992 100.5164990  99.3669997
  16.3949471 100.0170654  99.7205051  22.0399992  23.2174990  90.1879997
  21.1469992  23.5554990  90.1209997  21.9409992  22.3614990  90.6059997
  21.9045241  23.1480941  90.2352982  16.8659992 100.6644990 105.1919997
  17.7989992 100.8764990 105.1579997  16.6309992 100.7654990 106.1149997
  16.9618357 100.7071303 105.3120232  16.8949992 101.4014990 107.9679997
  16.0519992 101.6694990 108.3339997  17.3379992 102.2234990 107.7569997
  16.8394358 101.5493294 107.9895999  16.8679992  97.3454990  99.8049997
  17.0499992  96.8964990 100.6299997  16.2679992  96.7614990  99.3409997
  16.8118187  97.2050563  99.8552721   2.3979992  98.1614990 104.3359997
   2.8429992  97.3694990 104.6379997   2.8639992  98.8774990 104.7669997
   2.5219059  98.1499485 104.4356061   0.7019992 101.1604990 105.4049997
   1.1939992 100.9394990 104.6149997   1.0639992 102.0004990 105.6859997
   0.8183429 101.2438220 105.3347918  18.7339992  97.4134990  96.3329997
  19.1469992  96.6924990  95.8569997  19.4159992  98.0824990  96.3909997
  18.8825712  97.4054304  96.2758247   1.0149992  97.4184990  99.4599997
   0.0899992  97.6264990  99.3299997   1.4689992  97.9024990  98.7699997
   0.9497401  97.5123895  99.3489433  15.7859992 112.4024990 101.4049997
  16.4379992 112.0544990 100.7969997  16.2969992 112.8904990 102.0509997
  15.9442872 112.4208248 101.4090964   0.9789992  96.1564990 107.8039997
   0.3139992  95.9104990 108.4469997   0.5359992  96.7784990 107.2269997
   0.8281168  96.2069225 107.8139830   6.1249992 110.3054990 108.2069997
   5.6999992 111.1154990 107.9239997   7.0289992 110.3914990 107.9049997
   6.1891002 110.4278728 108.1274798  34.3279992  31.0334990  79.6119997
  34.0509992  30.3054990  80.1679997  35.2549992  31.1524990  79.8179997
  34.4154181  30.9500068  79.7158972  17.6989992  95.5804990 109.4899997
  16.8859992  95.9054990 109.1019997  17.9319992  94.8194990 108.9569997
  17.6192566  95.5221570 109.3649196   3.5269992 113.5624990 108.2539997
   2.8059992 114.0024990 107.8029997   3.1609992 113.3114990 109.1029997
   3.3789785 113.5887691 108.3069849   5.9939992 113.1624990 107.2839997
   5.1289992 113.2344990 107.6879997   5.9389992 113.7094990 106.4999997
   5.8682066 113.2462678 107.2333371  10.7049992 113.0504990 106.4599997
  10.2479992 113.5794990 105.8059997  10.8669992 113.6534990 107.1849997
  10.6643919 113.2043990 106.4685740  13.0319992 111.9284990 107.4049997
  12.1279992 112.0934990 107.1389997  13.4609992 112.7814990 107.3389997
  12.9662017 112.0664184 107.3596495  15.6359992 113.4984990 107.6999997
  15.4549992 114.4144990 107.4889997  15.8129992 113.0874990 106.8529997
  15.6351377 113.5683365 107.5567178   2.9419992 112.1854990 105.1649997
   2.9229992 111.7594990 106.0219997   3.7459992 111.8664990 104.7559997
   3.0481393 112.0840297 105.2270155   5.0829992 110.8954990 103.8199997
   4.8639992 109.9784990 103.9889997   5.9069992 111.0354990 104.2859997
   5.1644637 110.7889586 103.9061414   7.6199992 111.3654990 104.6679997
   7.8329992 110.4774990 104.3809997   7.6849992 111.3304990 105.6229997
   7.6579075 111.2393318 104.7577355  11.1289992  97.0294990 103.8129997
  10.4539992  96.3994990 104.0679997  11.6929992  96.5454990 103.2099997
  11.1129558  96.8779283 103.7663451  21.6909992  35.0214990  88.6229997
  21.9079992  34.0894990  88.5919997  21.9379992  35.2964990  89.5069997
  21.7540543  34.9310877  88.7381412  16.2709992  95.1364990 103.9249997
  16.8749992  95.6844990 103.4239997  15.4019992  95.4554990 103.6849997
  16.2361126  95.2547070 103.8239180  17.9979992  96.2754990 102.2589997
  18.6099992  95.7614990 101.7319997  18.3809992  97.1524990 102.2819997
  18.1333867  96.3237613 102.1900888   3.4549992  95.6634990 101.6349997
   2.6779992  95.4284990 101.1269997   3.9859992  94.8664990 101.6439997
   3.4204443  95.5236721 101.5667200   2.2919992  95.4614990  97.4379997
   2.7309992  96.0724990  96.8469997   1.6579992  95.9994990  97.9119997
   2.2664103  95.6179233  97.4211376   8.0349992  95.5894990 101.4479997
   8.9089992  95.9784990 101.4179997   7.8989992  95.3744990 102.3709997
   8.1363125  95.6137120 101.5686523  13.5909992  95.6194990 103.0969997
  13.6679992  95.7154990 102.1479997  13.3159992  94.7124990 103.2259997
  13.5643407  95.5099188 102.9843532  14.9449992  95.6454990  98.7899997
  14.2419992  96.2604990  98.5799997  14.4999992  94.8084990  98.9209997
  14.7886550  95.6164679  98.7789819   2.1929992 111.4094990  98.3359997
   1.5079992 111.3714990  97.6679997   2.1959992 112.3214990  98.6239997
   2.0997358 111.5276744  98.2836145   4.1529992  97.3774990  95.8809997
   4.6439992  96.7474990  95.3529997   4.7759992  97.6734990  96.5439997
   4.3045459  97.3312419  95.8983667   9.1789992  97.6704990  98.3379997
   9.3569992  97.0234990  99.0209997   9.1249992  98.5044990  98.8049997
   9.1960678  97.6946615  98.4946283  30.7739992  22.9584990  89.0779997
  31.4729992  23.0324990  89.7279997  30.3939992  22.0934990  89.2329997
  30.8182095  22.8517402  89.1877982  11.0569992 112.6184990  96.7329997
  11.9229992 112.9854990  96.5549997  10.8099992 112.1794990  95.9199997
  11.1422041 112.6093648  96.5985958  17.7659992 112.1814990  99.4129997
  17.5719992 111.4334990  98.8479997  17.7269992 112.9394990  98.8289997
  17.7341907 112.1815770  99.2568077   4.0109992 112.3294990  95.3609997
   3.7429992 112.6154990  96.2339997   4.7819992 111.7834990  95.5129997
   4.0785600 112.2948341  95.5011482  31.3899992 104.8194990 101.5929997
  31.4789992 105.7634990 101.4609997  30.7509992 104.5444990 100.9349997
  31.3158319 104.9114984 101.4860276  30.3229992 104.0744990 105.0119997
  30.2839992 103.4284990 105.7169997  29.9999992 103.6074990 104.2409997
  30.2740199 103.9230089 105.0042865  22.6909992 103.6884990 106.6049997
  22.7319992 103.0634990 107.3289997  23.3939992 104.3124990 106.7869997
  22.7916054 103.6873262 106.7286311  34.0289992 107.0134990 103.3139997
  33.5879992 106.2934990 103.7639997  34.0159992 107.7344990 103.9439997
  33.9668398 107.0123187 103.4607734  23.6149992 108.1384990 105.1399997
  23.2449992 107.3364990 104.7709997  24.5559992 107.9704990 105.1869997
  23.6915630 108.0058680 105.0957873  20.2249992 101.7984990 100.5329997
  19.7769992 102.6444990 100.5149997  19.6639992 101.2194990 100.0179997
  20.0878546 101.8359004 100.4608874  20.9349992 103.9604990 102.6589997
  21.1489992 103.1904990 103.1859997  21.6729992 104.0504990 102.0559997
  21.0640073 103.8673546 102.6495786  31.5589992  22.6104990  80.1749997
  31.7789992  23.0814990  79.3719997  32.1169992  23.0044990  80.8459997
  31.6645851  22.7283272  80.1556134  31.1399992 112.1174990 103.5259997
  31.7599992 111.4414990 103.2529997  30.9319992 111.8994990 104.4339997
  31.1967360 111.9954792 103.6114387  28.7119992 106.5064990 105.4179997
  29.0159992 105.8204990 104.8239997  29.4339992 106.6254990 106.0359997
  28.8511152 106.4287201 105.4202106  37.3749992  98.1084990 106.2789997
  37.4239992  98.7184990 107.0149997  37.8009992  98.5694990 105.5559997
  37.4392851  98.2543266 106.2820532  31.8529992 100.9004990 105.7459997
  31.9949992  99.9544990 105.7659997  31.7469992 101.1074990 104.8169997
  31.8581158 100.7989722 105.6232241  25.0079992  99.0024990 103.0179997
  25.0509992  99.8624990 102.5999997  24.5499992  98.4494990 102.3849997
  24.9519613  99.0455689 102.8751276  32.7299992  99.1334990 101.4189997
  33.3759992  98.8044990 102.0439997  33.2399992  99.6504990 100.7959997
  32.8874392  99.1583710 101.4203248  21.6279992 101.3994990 103.7799997
  22.2819992 100.8494990 104.2119997  21.6519992 101.1254990 102.8639997
  21.7207022 101.2872005 103.7151698  26.7839992 102.9494990 102.9959997
  27.3999992 102.4224990 103.5049997  26.1979992 102.3094990 102.5919997
  26.7890652 102.7908919 103.0110277  37.7669992  99.5864990 108.5149997
  37.0779992 100.2444990 108.4199997  37.7819992  99.3884990 109.4519997
  37.6747756  99.6497614 108.6285795  23.8179992  97.9204990 107.0919997
  23.5989992  98.4504990 106.3259997  23.1499992  98.1464990 107.7399997
  23.6977271  98.0236508 107.0746206  29.2279992  34.7404990  79.0379997
  28.4109992  35.2374990  79.0909997  29.7569992  35.2164990  78.3979997
  29.1877898  34.8728123  78.9587274  31.1869992 107.4204990 100.6359997
  30.8909992 107.0974990  99.7849997  30.8629992 108.3204990 100.6779997
  31.1026501 107.4979058 100.5250893  26.3869992 105.5954990 107.3799997
  25.6469992 106.1944990 107.4829997  27.1009992 106.1494990 107.0639997
  26.3823288 105.7522368 107.3513787  34.4939992  98.4244990 103.3999997
  34.2789992  97.6584990 103.9319997  35.1499992  98.8964990 103.9129997
  34.5532451  98.3834472 103.5421699  23.4119992  99.8124990 105.0449997
  24.0249992 100.4454990 105.4179997  23.9239992  99.3404990 104.3879997
  23.5651680  99.8354006 105.0072830  24.7939992 107.5604990 108.1669997
  24.7889992 108.4394990 107.7889997  23.9409992 107.4764990 108.5919997
  24.6779199 107.6695901 108.1726942  20.9159992 107.2314990  98.9489997
  20.6439992 107.4604990  98.0599997  20.9609992 108.0684990  99.4089997
  20.8848709 107.3761069  98.8896089  34.5409992 108.8524990 105.6619997
  33.5989992 108.9114990 105.8229997  34.8169992 109.7584990 105.5249997
  34.4495771 108.9830270 105.6654827  34.8409992  97.1394990 107.0789997
  34.1049992  97.7494990 107.0409997  35.5249992  97.5544990 106.5529997
  34.8325885  97.2791924 107.0026931  27.8439992  95.2254990 104.5449997
  27.7269992  94.2774990 104.4909997  26.9889992  95.5584990 104.8179997
  27.7123691  95.1405842 104.5745072  32.7929992 110.6334990 102.2869997
  33.2179992 109.9264990 101.8019997  33.1099992 111.4354990 101.8699997
  32.8940266 110.6450201 102.1642461  28.7589992  24.3384990  81.0099997
  29.5709992  24.8424990  81.0559997  28.5139992  24.1934990  81.9239997
  28.8371091  24.3879366  81.1398552  33.9519992 108.5344990 100.7959997
  33.6949992 107.8444990 100.1839997  34.0229992 108.0914990 101.6409997
  33.9264322 108.3801568 100.8265372  35.6379992 107.1014990 109.2729997
  35.7779992 106.5094990 108.5339997  35.8059992 107.9744990 108.9169997
  35.6798734 107.1384041 109.1236937  30.1109992 104.0634990  99.0449997
  29.3989992 104.5984990  98.6939997  30.8019992 104.1184990  98.3849997
  30.1068696 104.1442591  98.9076372  30.1649992 102.5204990  96.0839997
  30.8659992 102.5434990  96.7349997  30.4669992 101.8924990  95.4279997
  30.3018282 102.4387350  96.0844478  37.4799992 103.4414990 107.3389997
  36.8279992 104.1354990 107.4279997  37.9449992 103.6514990 106.5289997
  37.4535357 103.5649544 107.2417056  33.5169992 104.2724990  99.9969997
  32.7849992 104.5014990 100.5699997  33.9639992 103.5594990 100.4519997
  33.4772753 104.2073984 100.1369698  33.4139992 102.4474990 109.0649997
  33.4939992 103.2104990 109.6369997  32.8129992 102.7264990 108.3739997
  33.3437115 102.5897707 109.0499631  25.1619992 104.9034990 101.8799997
  24.8319992 104.5324990 101.0609997  25.7499992 104.2324990 102.2259997
  25.1964056 104.7621257 101.8149035  26.5289992 108.3314990 104.5609997
  26.4339992 107.7524990 103.8039997  27.2579992 107.9604990 105.0569997
  26.6146161 108.2020902 104.5245192  25.5289992 103.6714990 105.5129997
  26.0939992 103.7934990 104.7499997  25.8469992 104.3094990 106.1519997
  25.6493430 103.7744448 105.4949094  29.2949992  25.3244990  90.1949997
  29.4139992  25.8984990  90.9519997  29.9499992  24.6364990  90.3099997
  29.3998684  25.3100205  90.3141656  31.8379992 109.1754990 106.2469997
  31.5969992 109.8374990 106.8949997  31.6399992 108.3404990 106.6719997
  31.7782662 109.1532704 106.3931008  32.3879992 103.4354990  97.6819997
  32.9669992 103.5854990  98.4289997  32.8019992 103.9054990  96.9589997
  32.5233122 103.5196288  97.6865024  23.3289992 104.2694990 109.4589997
  23.3989992 104.9204990 110.1569997  22.4379992 104.3724990 109.1239997
  23.2181802 104.3724769 109.5092231  30.1139992 110.1714990 101.1179997
  30.5879992 110.4674990 101.8949997  29.5509992 110.9104990 100.8839997
  30.1028460 110.3118336 101.1927626  36.0859992  95.1854990  97.4949997
  35.1859992  95.3234990  97.7899997  36.3379992  96.0164990  97.0929997
  35.9967355  95.3168200  97.4810539  24.1519992 103.9724990  99.4689997
  23.8599992 104.7404990  98.9779997  23.4779992 103.3134990  99.3059997
  24.0208843 103.9884537  99.3797695  37.2759992 109.5514990  95.8719997
  37.3489992 110.4904990  96.0419997  38.1809992 109.2464990  95.8149997
  37.4084168 109.6388531  95.8875736  20.2449992 106.3354990 108.2839997
  19.7439992 106.3074990 107.4689997  20.2509992 105.4304990 108.5939997
  20.1771690 106.2092234 108.2142770  19.9959992 109.1164990 105.1679997
  20.9419992 108.9714990 105.1489997  19.8829992 109.9004990 105.7049997
  20.1103578 109.2026708 105.2380300  29.1719992 109.3564990 109.7259997
  29.2589992 110.1824990 110.2009997  28.3079992 109.0264990 109.9749997
  29.0671944 109.4249871 109.8246558  29.6429992  21.4194990  81.9479997
  29.2959992  22.0364990  82.5929997  30.3009992  21.9204990  81.4669997
  29.6845290  21.5716384  81.9711635  29.5859992 113.1284990  99.5319997
  29.5109992 113.0074990  98.5859997  29.6189992 114.0774990  99.6509997
  29.5801862 113.2402492  99.4184840  23.2399992 111.9174990 101.3129997
  23.3919992 111.5694990 102.1919997  22.3889992 111.5604990 101.0579997
  23.1457899 111.8216749 101.3987322  32.6879992 112.2824990  96.5349997
  33.0629992 111.5384990  96.0639997  32.6919992 112.0124990  97.4529997
  32.7398969 112.1440920  96.5946475  32.3569992 112.2084990  99.2839997
  31.4219992 112.3084990  99.4629997  32.6369992 111.4984990  99.8619997
  32.2669270 112.1262300  99.3865984  22.4939992 107.6594990 109.3269997
  22.7099992 107.2974990 110.1869997  21.6389992 107.2844990 109.1169997
  22.4079349 107.5592914 109.4162134  25.1129992  96.1294990 105.3229997
  24.2509992  96.0424990 104.9149997  25.0909992  96.9854990 105.7499997
  24.9920953  96.2333558 105.3249262  29.7759992  95.8514990 108.6969997
  30.1959992  95.4364990 109.4499997  28.8429992  95.6724990 108.8139997
  29.7073736  95.7704921 108.8158950  33.1019992  99.6064990 109.5509997
  32.5879992  99.4814990 110.3479997  32.9469992 100.5194990 109.3059997
  33.0106643  99.7127068 109.6270624  33.8649992 104.4674990  95.3119997
  33.9069992 104.2454990  94.3819997  34.7139992 104.8664990  95.5019997
  33.9855253 104.4910510  95.2103804  29.4379992  98.3434990  95.9819997
  29.1839992  98.3624990  96.9049997  29.1809992  97.4724990  95.6809997
  29.3685133  98.2283121  96.0675065  25.2999992  22.4824990  78.6359997
  25.2169992  23.3704990  78.9819997  26.1899992  22.2174990  78.8669997
  25.4089751  22.5682482  78.7146066  25.2039992 101.0944990 106.4179997
  24.5619992 101.0544990 107.1269997  25.2409992 102.0214990 106.1799997
  25.1211659 101.2142540 106.4828463  25.2009992 101.3154990 101.3299997
  24.3079992 100.9754990 101.2709997  25.6519992 100.9384990 100.5739997
  25.1397185 101.2180220 101.2197698  30.7369992 101.7314990 100.1469997
  30.3279992 102.5464990  99.8549997  31.4569992 101.5914990  99.5319997
  30.7783946 101.8239963 100.0239616  31.7409992 101.1774990 102.9609997
  31.5459992 101.7834990 102.2459997  31.9229992 100.3444990 102.5259997
  31.7389272 101.1477955 102.8044075  22.9539992 101.4154990 108.2849997
  22.9159992 101.8154990 109.1529997  22.4629992 100.5984990 108.3749997
  22.8824246 101.3598842 108.4161171  26.3199992  98.7894990  95.0829997
  25.8889992  98.3444990  95.8129997  25.6019992  99.1604990  94.5709997
  26.1639363  98.7787979  95.1136194  19.5619992  98.5314990 102.1349997
  20.1929992  98.5024990 102.8549997  20.0119992  98.1064990 101.4049997
  19.7090905  98.4700839 102.1347479  20.8359992  99.2774990  97.5589997
  21.3109992  99.8684990  96.9739997  20.1189992  99.8074990  97.9059997
  20.8040406  99.4301011  97.5258495  31.0049992 102.8154990 107.6319997
  31.3289992 102.1844990 106.9889997  30.5649992 102.2814990 108.2929997
  30.9898707 102.6568261 107.6333195  27.7829992  98.7434990 102.4159997
  26.8719992  98.8004990 102.7049997  28.2879992  98.6834990 103.2269997
  27.7266873  98.7431838 102.5651190  35.4989992  23.2314990  91.0299997
  34.5829992  23.4934990  90.9419997  35.8349992  23.2284990  90.1329997
  35.4189789  23.2669637  90.8967829  22.6109992 100.3724990 101.2429997
  21.7219992 100.4714990 100.9029997  22.9069992  99.5304990 100.8969997
  22.5294001 100.2722473 101.1497318  26.2639992 100.3724990  98.8989997
  27.1959992 100.5014990  99.0769997  26.0489992 101.0414990  98.2499997
  26.3624245 100.4806452  98.8355602  32.1879992  97.9784990 105.6799997
  31.5109992  98.1094990 106.3439997  31.7019992  97.8234990 104.8699997
  32.0297265  97.9754665 105.6613380  24.9379992 101.5664990  96.4659997
  24.3959992 101.1874990  95.7749997  25.7719992 101.7614990  96.0369997
  24.9764283 101.5409383  96.3134298  29.1029992 101.5304990 104.3029997
  29.6669992 100.9844990 103.7559997  28.9549992 101.0094990 105.0919997
  29.1603037 101.3851798 104.3347212  24.1049992  97.6674990 100.7209997
  23.7869992  96.7644990 100.6859997  24.8859992  97.6694990 100.1689997
  24.1671560  97.5441148 100.6414975  27.7289992  99.9194990 106.7169997
  26.8939992 100.3734990 106.8269997  28.2529992 100.1954990 107.4689997
  27.6855070 100.0189677 106.8337134  28.2729992 106.1324990  98.4019997
  27.5279992 105.6244990  98.0789997  28.1389992 106.1814990  99.3479997
  28.1528633 106.0695714  98.4857563  35.4229992 105.2654990 107.1879997
  36.0649992 105.7214990 106.6449997  34.5929992 105.3784990 106.7259997
  35.3987352 105.3433223 107.0510234  32.1709992  98.9464990  96.6009997
  31.2319992  99.0574990  96.4499997  32.4679992  99.8024990  96.9069997
  32.0826371  99.0775327  96.6217362  34.1009992  26.9814990  85.1259997
  33.3039992  26.5664990  84.7969997  34.5459992  26.2914990  85.6169997
  34.0520317  26.8313197  85.1473556  29.7929992 106.3164990 109.6389997
  29.4469992 105.9344990 110.4449997  29.5929992 107.2494990 109.7099997
  29.7185400 106.3903489 109.7590401  32.8889992 100.8134990  98.2619997
  33.7809992 100.6754990  98.5809997  32.9459992 101.6044990  97.7249997
  33.0187380 100.9014777  98.2330981  23.3979992 105.4274990 104.1709997
  24.1429992 105.4244990 103.5699997  23.4759992 104.6034990 104.6529997
  23.5104158 105.3157928 104.1539136  30.3989992 107.5904990  97.4269997
  30.1039992 108.4174990  97.8089997  29.6959992 106.9714990  97.6229997
  30.2635855 107.6199458  97.5057634  20.4059992 103.8874990 109.4859997
  20.6289992 103.4694990 110.3179997  19.8039992 103.2754990 109.0639997
  20.3550802 103.7475216 109.5427561  32.0429992 108.7784990 109.5889997
  31.1419992 108.9614990 109.3209997  32.0769992 109.0374990 110.5099997
  31.9243021 108.8385505 109.6768206  37.7739992 101.0224990  97.9559997
  37.2199992 100.6264990  97.2839997  37.8749992 101.9334990  97.6789997
  37.7117084 101.0913565  97.8264381  36.0689992 109.8084990  98.4209997
  35.6969992 108.9834990  98.7309997  36.3469992 109.6254990  97.5239997
  36.0555997 109.6706160  98.3421551  33.2299992 104.6164990 105.4429997
  32.3019992 104.3854990 105.4159997  33.6809992 103.8394990 105.1129997
  33.1638165 104.4797785 105.3946772  25.7729992 108.9454990 101.5759997
  26.2999992 109.7184990 101.3749997  24.8929992 109.1694990 101.2739997
  25.7261793 109.0816652 101.5076304  23.5589992  32.9094990  77.6959997
  24.1509992  33.6094990  77.9719997  24.0179992  32.4764990  76.9769997
  23.7021172  32.9467371  77.6365163  21.5279992 103.8074990  96.1629997
  22.1439992 104.4344990  96.5419997  20.6659992 104.1234990  96.4339997
  21.4958195 103.9360810  96.2515369  27.1999992 106.6084990 101.1519997
  26.9589992 107.5334990 101.1939997  26.4599992 106.1494990 101.5479997
  27.0668934 106.6730881 101.2113191  27.7149992 110.7574990 107.4669997
  28.0779992 111.6114990 107.2339997  28.2469992 110.4654990 108.2079997
  27.8365141 110.8348907 107.5352079  25.8829992 111.6294990 100.6969997
  24.9339992 111.7354990 100.7489997  26.2349992 112.4504990 101.0419997
  25.8006214 111.7549361 100.7507317  31.2589992 106.8564990 107.1679997
  30.8329992 106.6284990 107.9939997  31.8399992 106.1174990 106.9849997
  31.2791587 106.7254084 107.2564111  33.4619992 107.7854990  96.2419997
  33.8149992 107.4054990  97.0459997  32.5129992 107.6914990  96.3279997
  33.3820985 107.7207330  96.3637738  33.9179992 111.4084990 109.6369997
  33.3159992 110.8524990 109.1419997  34.1989992 112.0754990 109.0109997
  33.8735757 111.4225755 109.4845657  37.9649992 112.2644990  96.4429997
  38.7089992 112.8504990  96.3029997  37.2709992 112.8334990  96.7759997
  37.9729809 112.4215830  96.4688572  22.0399992  98.6414990 109.0439997
  21.1469992  98.9794990 108.9769997  21.9409992  97.7854990 109.4619997
  21.9045241  98.5720941 109.0912982  34.3279992 106.4574990  98.4679997
  34.0509992 105.7294990  99.0239997  35.2549992 106.5764990  98.6739997
  34.4154181 106.3740068  98.5718972  21.8749992  25.5744990  76.8119997
  21.8299992  26.5134990  76.9909997  20.9869992  25.3384990  76.5419997
  21.7488472  25.6711946  76.8000282  21.6909992 110.4454990 107.4789997
  21.9079992 109.5134990 107.4479997  21.9379992 110.7204990 108.3629997
  21.7540543 110.3550877 107.5941412  27.5529992 108.8974990  94.6889997
  27.7919992 108.1484990  94.1409997  27.2839992 108.5094990  95.5209997
  27.5492804 108.7426524  94.7266352  26.4899992 108.4674990  97.1449997
  26.6369992 107.9474990  97.9349997  26.4869992 109.3744990  97.4509997
  26.5097300 108.5188975  97.2945877  22.9429992 105.7194990  97.6549997
  22.2569992 106.0724990  98.2219997  23.4659992 106.4824990  97.4089997
  22.9199033 105.8708757  97.6992644  30.7739992  98.3824990 107.9339997
  31.4729992  98.4564990 108.5839997  30.3939992  97.5174990 108.0889997
  30.8182095  98.2757402 108.0437982  31.5589992  98.0344990  99.0309997
  31.7789992  98.5054990  98.2279997  32.1169992  98.4284990  99.7019997
  31.6645851  98.1523272  99.0116134  29.2279992 110.1644990  97.8939997
  28.4109992 110.6614990  97.9469997  29.7569992 110.6404990  97.2539997
  29.1877898 110.2968123  97.8147274  28.7589992  99.7624990  99.8659997
  29.5709992 100.2664990  99.9119997  28.5139992  99.6174990 100.7799997
  28.8371091  99.8119366  99.9958552  29.2949992 100.7484990 109.0509997
  29.4139992 101.3224990 109.8079997  29.9499992 100.0604990 109.1659997
  29.3998684 100.7340205 109.1701656  29.6429992  96.8434990 100.8039997
  29.2959992  97.4604990 101.4489997  30.3009992  97.3444990 100.3229997
  29.6845290  96.9956384 100.8271635  35.1879992  36.2374990  86.7479997
  35.0319992  36.9164990  86.0909997  36.1199992  36.3094990  86.9509997
  35.2927328  36.3401586  86.6855529  26.5659992 111.2084990  97.8759997
  26.7269992 112.0084990  97.3749997  26.3689992 111.5154990  98.7609997
  26.5613919 111.3594140  97.9270988  25.2999992  97.9064990  97.4919997
  25.2169992  98.7944990  97.8379997  26.1899992  97.6414990  97.7229997
  25.4089751  97.9922482  97.5706066  35.4989992  98.6554990 109.8859997
  34.5829992  98.9174990 109.7979997  35.8349992  98.6524990 108.9889997
  35.4189789  98.6909637 109.7527829  34.1009992 102.4054990 103.9819997
  33.3039992 101.9904990 103.6529997  34.5459992 101.7154990 104.4729997
  34.0520317 102.2553197 104.0033557  23.5589992 108.3334990  96.5519997
  24.1509992 109.0334990  96.8279997  24.0179992 107.9004990  95.8329997
  23.7021172 108.3707371  96.4925163  21.8749992 100.9984990  95.6679997
  21.8299992 101.9374990  95.8469997  20.9869992 100.7624990  95.3979997
  21.7488472 101.0951946  95.6560282  35.1879992 111.6614990 105.6039997
  35.0319992 112.3404990 104.9469997  36.1199992 111.7334990 105.8069997
  35.2927328 111.7641586 105.5415529  22.6829992  95.7794990 104.3409997
  22.4539992  95.8384990 103.4139997  22.2399992  94.9884990 104.6479997
  22.5917387  95.6806412 104.2555223  21.6129992 109.7204990 100.5019997
  20.7809992 110.1924990 100.5289997  22.1589992 110.2304990  99.9029997
  21.5728710 109.8540317 100.4247570  29.5909992 110.7604990  94.8269997
  28.9469992 110.1294990  95.1489997  30.3529992 110.2294990  94.5949997
  29.6058260 110.6023035  94.8397298  22.6829992  20.3554990  85.4849997
  22.4539992  20.4144990  84.5579997  22.2399992  19.5644990  85.7919997
  22.5917387  20.2566412  85.3995223  34.1949992 110.5774990  95.0609997
  34.4779992 109.7824990  95.5139997  34.9349992 110.8104990  94.4999997
  34.3337295 110.5002349  95.0471469  25.1499992 106.4864990  94.9179997
  25.2139992 105.6924990  95.4489997  25.8029992 106.3684990  94.2289997
  25.2471168 106.3617748  94.8975119  30.5019992 107.5334990  94.6539997
  30.2339992 107.7144990  95.5549997  30.2959992 106.6084990  94.5229997
  30.4374251 107.4331528  94.7596809  33.1989992 106.0284990 109.6019997
  33.9439992 106.6174990 109.4819997  32.4409992 106.6104990 109.6649997
  33.1985185 106.1877000 109.5940940  26.2989992 104.4594990  97.2239997
  25.8399992 103.9754990  97.9099997  26.5539992 103.7904990  96.5879997
  26.2706178 104.3028511  97.2319785  25.5879992 102.3524990 109.5799997
  24.9699992 103.0264990 109.8609997  25.9319992 102.6734990 108.7469997
  25.5498181 102.4883233 109.5058266  27.3699992 102.7024990  95.4869997
  27.1899992 102.5474990  94.5589997  28.3199992 102.8104990  95.5309997
  27.4738016 102.6959264  95.3662123  36.7599992 105.0564990  94.9319997
  36.4869992 104.6324990  94.1189997  36.7999992 105.9884990  94.7149997
  36.7280201 105.1243523  94.7913548  26.3399992  98.0764990 108.1549997
  26.8759992  98.5284990 107.5029997  25.4879992  97.9684990 107.7329997
  26.2981648  98.1237883 108.0086395  27.9219992 103.5164990 108.3949997
  28.6729992 103.3604990 107.8219997  27.5829992 104.3684990 108.1189997
  27.9789052 103.6102745 108.2793469  21.6129992  34.2964990  81.6459997
  20.7809992  34.7684990  81.6729997  22.1589992  34.8064990  81.0469997
  21.5728710  34.4300317  81.5687570  27.1459992  95.5334990 108.5869997
  27.0479992  96.4794990 108.4809997  26.4029992  95.1604990 108.1109997
  27.0322363  95.6125987 108.5082029  27.2679992 113.3924990  96.4879997
  28.2009992 113.5504990  96.6319997  27.0029992 114.0684990  95.8629997
  27.3599846 113.5054567  96.4232930  20.8359992 108.0294990  95.9709997
  21.7499992 108.1084990  96.2439997  20.8429992 107.3424990  95.3039997
  20.9620769 107.9474735  95.9182366  19.4849992 113.4224990 101.0479997
  18.8379992 112.9604990 100.5149997  19.8399992 112.7504990 101.6309997
  19.4443861 113.2684707 101.0537939  20.3549992 111.5024990 102.8529997
  20.0209992 110.6224990 103.0249997  20.5769992 111.8484990 103.7169997
  20.3392677 111.4287365 102.9934252  37.9039992 112.3124990 105.8329997
  37.8819992 112.4974990 106.7719997  38.5939992 112.8804990 105.4919997
  37.9943439 112.4146898 105.9154774  37.4669992 111.8794990 108.7549997
  36.9799992 111.1434990 108.3839997  38.0159992 111.4854990 109.4329997
  37.4746101 111.7256267 108.7959034  37.2189992 105.9254990  98.9069997
  38.0689992 106.3464990  99.0349997  37.2239992 105.1854990  99.5149997
  37.3359745 105.8831347  99.0066479  37.6129992 103.9794990 100.7309997
  36.8869992 103.4994990 101.1289997  38.1939992 104.1844990 101.4629997
  37.5922504 103.9415592 100.8844199  37.3719992 106.7644990 105.6789997
  38.2059992 106.3864990 105.3979997  37.4839992 107.7074990 105.5599997
  37.5011917 106.8402954 105.6244844  20.9019992  36.9084990  92.9759997
  21.4419992  36.6924990  93.7349997  20.4199992  36.1034990  92.7859997
  20.9109101  36.7700216  93.0544364  35.8579992 109.6424990 107.9859997
  35.2109992 109.9674990 108.6109997  35.3409992 109.2014990 107.3109997
  35.6994068 109.6274726 107.9804918  37.8809992 103.8804990  97.1219997
  37.3599992 104.2364990  96.4029997  37.8479992 104.5554990  97.7999997
  37.8051525 104.0205273  97.1151408  36.2299992 101.1194990  95.6729997
  36.3269992 101.7864990  94.9929997  36.0899992 100.3044990  95.1909997
  36.2243428 101.1005667  95.5148311  35.3999992 102.5004990 101.2939997
  35.2499992 101.5554990 101.2739997  35.0459992 102.7814990 102.1379997
  35.3316351 102.4091656 101.4053202  20.4349992 104.5784990 105.3039997
  20.6189992 104.4964990 104.3689997  21.2839992 104.4544990 105.7279997
  20.5750259 104.5504915 105.2331771  35.4779992  98.5274990  94.7899997
  36.0879992  98.1564990  95.4269997  34.6409992  98.1064990  94.9859997
  35.4483704  98.4197942  94.9037077  35.1099992 100.0824990  99.7559997
  35.3899992  99.1754990  99.8809997  35.8689992 100.5164990  99.3669997
  35.2509471 100.0170654  99.7205051  35.7219992 100.6644990 105.1919997
  36.6549992 100.8764990 105.1579997  35.4869992 100.7654990 106.1149997
  35.8178357 100.7071303 105.3120232  35.7509992 101.4014990 107.9679997
  34.9079992 101.6694990 108.3339997  36.1939992 102.2234990 107.7569997
  35.6954358 101.5493294 107.9895999  35.7239992  97.3454990  99.8049997
  35.9059992  96.8964990 100.6299997  35.1239992  96.7614990  99.3409997
  35.6678187  97.2050563  99.8552721  25.4989992  35.8284990  94.5959997
  26.2669992  35.3694990  94.9369997  25.4779992  35.6024990  93.6659997
  25.6012135  35.7351680  94.5169473  21.2539992  98.1614990 104.3359997
  21.6989992  97.3694990 104.6379997  21.7199992  98.8774990 104.7669997
  21.3779059  98.1499485 104.4356061  19.5579992 101.1604990 105.4049997
  20.0499992 100.9394990 104.6149997  19.9199992 102.0004990 105.6859997
  19.6743429 101.2438220 105.3347918  37.5899992  97.4134990  96.3329997
  38.0029992  96.6924990  95.8569997  38.2719992  98.0824990  96.3909997
  37.7385712  97.4054304  96.2758247  19.8709992  97.4184990  99.4599997
  18.9459992  97.6264990  99.3299997  20.3249992  97.9024990  98.7699997
  19.8057401  97.5123895  99.3489433  34.6419992 112.4024990 101.4049997
  35.2939992 112.0544990 100.7969997  35.1529992 112.8904990 102.0509997
  34.8002872 112.4208248 101.4090964  19.8349992  96.1564990 107.8039997
  19.1699992  95.9104990 108.4469997  19.3919992  96.7784990 107.2269997
  19.6841168  96.2069225 107.8139830  24.9809992 110.3054990 108.2069997
  24.5559992 111.1154990 107.9239997  25.8849992 110.3914990 107.9049997
  25.0451002 110.4278728 108.1274798  36.5549992  95.5804990 109.4899997
  35.7419992  95.9054990 109.1019997  36.7879992  94.8194990 108.9569997
  36.4752566  95.5221570 109.3649196  22.3829992 113.5624990 108.2539997
  21.6619992 114.0024990 107.8029997  22.0169992 113.3114990 109.1029997
  22.2349785 113.5887691 108.3069849  24.8499992 113.1624990 107.2839997
  23.9849992 113.2344990 107.6879997  24.7949992 113.7094990 106.4999997
  24.7242066 113.2462678 107.2333371  32.0759992  34.2084990  93.3249997
  31.7249992  33.3514990  93.5679997  32.8019992  34.3504990  93.9319997
  32.1261590  34.1105189  93.4402889  29.5609992 113.0504990 106.4599997
  29.1039992 113.5794990 105.8059997  29.7229992 113.6534990 107.1849997
  29.5203919 113.2043990 106.4685740  31.8879992 111.9284990 107.4049997
  30.9839992 112.0934990 107.1389997  32.3169992 112.7814990 107.3389997
  31.8222017 112.0664184 107.3596495  34.4919992 113.4984990 107.6999997
  34.3109992 114.4144990 107.4889997  34.6689992 113.0874990 106.8529997
  34.4911377 113.5683365 107.5567178  21.7979992 112.1854990 105.1649997
  21.7789992 111.7594990 106.0219997  22.6019992 111.8664990 104.7559997
  21.9041393 112.0840297 105.2270155  23.9389992 110.8954990 103.8199997
  23.7199992 109.9784990 103.9889997  24.7629992 111.0354990 104.2859997
  24.0204637 110.7889586 103.9061414  26.4759992 111.3654990 104.6679997
  26.6889992 110.4774990 104.3809997  26.5409992 111.3304990 105.6229997
  26.5139075 111.2393318 104.7577355  29.9849992  97.0294990 103.8129997
  29.3099992  96.3994990 104.0679997  30.5489992  96.5454990 103.2099997
  29.9689558  96.8779283 103.7663451  35.1269992  95.1364990 103.9249997
  35.7309992  95.6844990 103.4239997  34.2579992  95.4554990 103.6849997
  35.0921126  95.2547070 103.8239180  36.8539992  96.2754990 102.2589997
  37.4659992  95.7614990 101.7319997  37.2369992  97.1524990 102.2819997
  36.9893867  96.3237613 102.1900888  22.3109992  95.6634990 101.6349997
  21.5339992  95.4284990 101.1269997  22.8419992  94.8664990 101.6439997
  22.2764443  95.5236721 101.5667200  20.8089992  30.7194990  93.9299997
  20.9529992  29.8174990  93.6439997  20.0359992  31.0054990  93.4419997
  20.7242854  30.6346876  93.8249363  21.1479992  95.4614990  97.4379997
  21.5869992  96.0724990  96.8469997  20.5139992  95.9994990  97.9119997
  21.1224103  95.6179233  97.4211376  26.8909992  95.5894990 101.4479997
  27.7649992  95.9784990 101.4179997  26.7549992  95.3744990 102.3709997
  26.9923125  95.6137120 101.5686523  32.4469992  95.6194990 103.0969997
  32.5239992  95.7154990 102.1479997  32.1719992  94.7124990 103.2259997
  32.4203407  95.5099188 102.9843532  33.8009992  95.6454990  98.7899997
  33.0979992  96.2604990  98.5799997  33.3559992  94.8084990  98.9209997
  33.6446550  95.6164679  98.7789819  21.0489992 111.4094990  98.3359997
  20.3639992 111.3714990  97.6679997  21.0519992 112.3214990  98.6239997
  20.9557358 111.5276744  98.2836145  23.0089992  97.3774990  95.8809997
  23.4999992  96.7474990  95.3529997  23.6319992  97.6734990  96.5439997
  23.1605459  97.3312419  95.8983667  28.0349992  97.6704990  98.3379997
  28.2129992  97.0234990  99.0209997  27.9809992  98.5044990  98.8049997
  28.0520678  97.6946615  98.4946283  29.9129992 112.6184990  96.7329997
  30.7789992 112.9854990  96.5549997  29.6659992 112.1794990  95.9199997
  29.9982041 112.6093648  96.5985958  36.6219992 112.1814990  99.4129997
  36.4279992 111.4334990  98.8479997  36.5829992 112.9394990  98.8289997
  36.5901907 112.1815770  99.2568077  22.8669992 112.3294990  95.3609997
  22.5989992 112.6154990  96.2339997  23.6379992 111.7834990  95.5129997
  22.9345600 112.2948341  95.5011482  27.4639992  30.6884990  93.3629997
  27.1359992  30.9594990  92.5049997  27.6159992  29.7474990  93.2749997
  27.4396970  30.5983694  93.2337953  50.2459992 104.8194990 101.5929997
  50.3349992 105.7634990 101.4609997  49.6069992 104.5444990 100.9349997
  50.1718319 104.9114984 101.4860276  49.1789992 104.0744990 105.0119997
  49.1399992 103.4284990 105.7169997  48.8559992 103.6074990 104.2409997
  49.1300199 103.9230089 105.0042865  41.5469992 103.6884990 106.6049997
  41.5879992 103.0634990 107.3289997  42.2499992 104.3124990 106.7869997
  41.6476054 103.6873262 106.7286311  52.8849992 107.0134990 103.3139997
  52.4439992 106.2934990 103.7639997  52.8719992 107.7344990 103.9439997
  52.8228398 107.0123187 103.4607734  42.4709992 108.1384990 105.1399997
  42.1009992 107.3364990 104.7709997  43.4119992 107.9704990 105.1869997
  42.5475630 108.0058680 105.0957873  39.0809992 101.7984990 100.5329997
  38.6329992 102.6444990 100.5149997  38.5199992 101.2194990 100.0179997
  38.9438546 101.8359004 100.4608874  39.7909992 103.9604990 102.6589997
  40.0049992 103.1904990 103.1859997  40.5289992 104.0504990 102.0559997
  39.9200073 103.8673546 102.6495786  49.9959992 112.1174990 103.5259997
  50.6159992 111.4414990 103.2529997  49.7879992 111.8994990 104.4339997
  50.0527360 111.9954792 103.6114387  47.5679992 106.5064990 105.4179997
  47.8719992 105.8204990 104.8239997  48.2899992 106.6254990 106.0359997
  47.7071152 106.4287201 105.4202106  56.2309992  98.1084990 106.2789997
  56.2799992  98.7184990 107.0149997  56.6569992  98.5694990 105.5559997
  56.2952851  98.2543266 106.2820532  33.1989992  30.6044990  90.7459997
  33.9439992  31.1934990  90.6259997  32.4409992  31.1864990  90.8089997
  33.1985185  30.7637000  90.7380940  50.7089992 100.9004990 105.7459997
  50.8509992  99.9544990 105.7659997  50.6029992 101.1074990 104.8169997
  50.7141158 100.7989722 105.6232241  43.8639992  99.0024990 103.0179997
  43.9069992  99.8624990 102.5999997  43.4059992  98.4494990 102.3849997
  43.8079613  99.0455689 102.8751276  51.5859992  99.1334990 101.4189997
  52.2319992  98.8044990 102.0439997  52.0959992  99.6504990 100.7959997
  51.7434392  99.1583710 101.4203248  40.4839992 101.3994990 103.7799997
  41.1379992 100.8494990 104.2119997  40.5079992 101.1254990 102.8639997
  40.5767022 101.2872005 103.7151698  45.6399992 102.9494990 102.9959997
  46.2559992 102.4224990 103.5049997  45.0539992 102.3094990 102.5919997
  45.6450652 102.7908919 103.0110277  56.6229992  99.5864990 108.5149997
  55.9339992 100.2444990 108.4199997  56.6379992  99.3884990 109.4519997
  56.5307756  99.6497614 108.6285795  42.6739992  97.9204990 107.0919997
  42.4549992  98.4504990 106.3259997  42.0059992  98.1464990 107.7399997
  42.5537271  98.0236508 107.0746206  50.0429992 107.4204990 100.6359997
  49.7469992 107.0974990  99.7849997  49.7189992 108.3204990 100.6779997
  49.9586501 107.4979058 100.5250893  45.2429992 105.5954990 107.3799997
  44.5029992 106.1944990 107.4829997  45.9569992 106.1494990 107.0639997
  45.2383288 105.7522368 107.3513787  53.3499992  98.4244990 103.3999997
  53.1349992  97.6584990 103.9319997  54.0059992  98.8964990 103.9129997
  53.4092451  98.3834472 103.5421699  21.6409992  27.9194990  93.3499997
  22.0489992  27.0624990  93.2289997  21.3809992  27.9334990  94.2709997
  21.6617082  27.8040596  93.4579469  42.2679992  99.8124990 105.0449997
  42.8809992 100.4454990 105.4179997  42.7799992  99.3404990 104.3879997
  42.4211680  99.8354006 105.0072830  43.6499992 107.5604990 108.1669997
  43.6449992 108.4394990 107.7889997  42.7969992 107.4764990 108.5919997
  43.5339199 107.6695901 108.1726942  39.7719992 107.2314990  98.9489997
  39.4999992 107.4604990  98.0599997  39.8169992 108.0684990  99.4089997
  39.7408709 107.3761069  98.8896089  53.3969992 108.8524990 105.6619997
  52.4549992 108.9114990 105.8229997  53.6729992 109.7584990 105.5249997
  53.3055771 108.9830270 105.6654827  53.6969992  97.1394990 107.0789997
  52.9609992  97.7494990 107.0409997  54.3809992  97.5544990 106.5529997
  53.6885885  97.2791924 107.0026931  46.6999992  95.2254990 104.5449997
  46.5829992  94.2774990 104.4909997  45.8449992  95.5584990 104.8179997
  46.5683691  95.1405842 104.5745072  51.6489992 110.6334990 102.2869997
  52.0739992 109.9264990 101.8019997  51.9659992 111.4354990 101.8699997
  51.7500266 110.6450201 102.1642461  52.8079992 108.5344990 100.7959997
  52.5509992 107.8444990 100.1839997  52.8789992 108.0914990 101.6409997
  52.7824322 108.3801568 100.8265372  54.4939992 107.1014990 109.2729997
  54.6339992 106.5094990 108.5339997  54.6619992 107.9744990 108.9169997
  54.5358734 107.1384041 109.1236937  48.9669992 104.0634990  99.0449997
  48.2549992 104.5984990  98.6939997  49.6579992 104.1184990  98.3849997
  48.9628696 104.1442591  98.9076372  25.5879992  26.9284990  90.7239997
  24.9699992  27.6024990  91.0049997  25.9319992  27.2494990  89.8909997
  25.5498181  27.0643233  90.6498266  49.0209992 102.5204990  96.0839997
  49.7219992 102.5434990  96.7349997  49.3229992 101.8924990  95.4279997
  49.1578282 102.4387350  96.0844478  56.3359992 103.4414990 107.3389997
  55.6839992 104.1354990 107.4279997  56.8009992 103.6514990 106.5289997
  56.3095357 103.5649544 107.2417056  52.3729992 104.2724990  99.9969997
  51.6409992 104.5014990 100.5699997  52.8199992 103.5594990 100.4519997
  52.3332753 104.2073984 100.1369698  52.2699992 102.4474990 109.0649997
  52.3499992 103.2104990 109.6369997  51.6689992 102.7264990 108.3739997
  52.1997115 102.5897707 109.0499631  44.0179992 104.9034990 101.8799997
  43.6879992 104.5324990 101.0609997  44.6059992 104.2324990 102.2259997
  44.0524056 104.7621257 101.8149035  45.3849992 108.3314990 104.5609997
  45.2899992 107.7524990 103.8039997  46.1139992 107.9604990 105.0569997
  45.4706161 108.2020902 104.5245192  44.3849992 103.6714990 105.5129997
  44.9499992 103.7934990 104.7499997  44.7029992 104.3094990 106.1519997
  44.5053430 103.7744448 105.4949094  50.6939992 109.1754990 106.2469997
  50.4529992 109.8374990 106.8949997  50.4959992 108.3404990 106.6719997
  50.6342662 109.1532704 106.3931008  51.2439992 103.4354990  97.6819997
  51.8229992 103.5854990  98.4289997  51.6579992 103.9054990  96.9589997
  51.3793122 103.5196288  97.6865024  42.1849992 104.2694990 109.4589997
  42.2549992 104.9204990 110.1569997  41.2939992 104.3724990 109.1239997
  42.0741802 104.3724769 109.5092231  30.6079992  29.3994990  94.0019997
  31.5609992  29.4834990  93.9739997  30.4479992  28.6874990  94.6209997
  30.7168161  29.3147198  94.0818689  48.9699992 110.1714990 101.1179997
  49.4439992 110.4674990 101.8949997  48.4069992 110.9104990 100.8839997
  48.9588460 110.3118336 101.1927626  54.9419992  95.1854990  97.4949997
  54.0419992  95.3234990  97.7899997  55.1939992  96.0164990  97.0929997
  54.8527355  95.3168200  97.4810539  43.0079992 103.9724990  99.4689997
  42.7159992 104.7404990  98.9779997  42.3339992 103.3134990  99.3059997
  42.8768843 103.9884537  99.3797695  56.1319992 109.5514990  95.8719997
  56.2049992 110.4904990  96.0419997  57.0369992 109.2464990  95.8149997
  56.2644168 109.6388531  95.8875736  39.1009992 106.3354990 108.2839997
  38.5999992 106.3074990 107.4689997  39.1069992 105.4304990 108.5939997
  39.0331690 106.2092234 108.2142770  38.8519992 109.1164990 105.1679997
  39.7979992 108.9714990 105.1489997  38.7389992 109.9004990 105.7049997
  38.9663578 109.2026708 105.2380300  48.0279992 109.3564990 109.7259997
  48.1149992 110.1824990 110.2009997  47.1639992 109.0264990 109.9749997
  47.9231944 109.4249871 109.8246558  48.4419992 113.1284990  99.5319997
  48.3669992 113.0074990  98.5859997  48.4749992 114.0774990  99.6509997
  48.4361862 113.2402492  99.4184840  42.0959992 111.9174990 101.3129997
  42.2479992 111.5694990 102.1919997  41.2449992 111.5604990 101.0579997
  42.0017899 111.8216749 101.3987322  51.5439992 112.2824990  96.5349997
  51.9189992 111.5384990  96.0639997  51.5479992 112.0124990  97.4529997
  51.5958969 112.1440920  96.5946475  25.9279992  24.2834990  91.8069997
  26.0779992  23.5544990  91.2039997  25.9299992  25.0604990  91.2479997
  25.9487664  24.2888971  91.6490525  51.2129992 112.2084990  99.2839997
  50.2779992 112.3084990  99.4629997  51.4929992 111.4984990  99.8619997
  51.1229270 112.1262300  99.3865984  41.3499992 107.6594990 109.3269997
  41.5659992 107.2974990 110.1869997  40.4949992 107.2844990 109.1169997
  41.2639349 107.5592914 109.4162134  43.9689992  96.1294990 105.3229997
  43.1069992  96.0424990 104.9149997  43.9469992  96.9854990 105.7499997
  43.8480953  96.2333558 105.3249262  48.6319992  95.8514990 108.6969997
  49.0519992  95.4364990 109.4499997  47.6989992  95.6724990 108.8139997
  48.5633736  95.7704921 108.8158950  51.9579992  99.6064990 109.5509997
  51.4439992  99.4814990 110.3479997  51.8029992 100.5194990 109.3059997
  51.8666643  99.7127068 109.6270624  52.7209992 104.4674990  95.3119997
  52.7629992 104.2454990  94.3819997  53.5699992 104.8664990  95.5019997
  52.8415253 104.4910510  95.2103804  48.2939992  98.3434990  95.9819997
  48.0399992  98.3624990  96.9049997  48.0369992  97.4724990  95.6809997
  48.2245133  98.2283121  96.0675065  44.0599992 101.0944990 106.4179997
  43.4179992 101.0544990 107.1269997  44.0969992 102.0214990 106.1799997
  43.9771659 101.2142540 106.4828463  44.0569992 101.3154990 101.3299997
  43.1639992 100.9754990 101.2709997  44.5079992 100.9384990 100.5739997
  43.9957185 101.2180220 101.2197698  49.5929992 101.7314990 100.1469997
  49.1839992 102.5464990  99.8549997  50.3129992 101.5914990  99.5319997
  49.6343946 101.8239963 100.0239616  26.3399992  22.6524990  89.2989997
  26.8759992  23.1044990  88.6469997  25.4879992  22.5444990  88.8769997
  26.2981648  22.6997883  89.1526395  50.5969992 101.1774990 102.9609997
  50.4019992 101.7834990 102.2459997  50.7789992 100.3444990 102.5259997
  50.5949272 101.1477955 102.8044075  41.8099992 101.4154990 108.2849997
  41.7719992 101.8154990 109.1529997  41.3189992 100.5984990 108.3749997
  41.7384246 101.3598842 108.4161171  45.1759992  98.7894990  95.0829997
  44.7449992  98.3444990  95.8129997  44.4579992  99.1604990  94.5709997
  45.0199363  98.7787979  95.1136194  38.4179992  98.5314990 102.1349997
  39.0489992  98.5024990 102.8549997  38.8679992  98.1064990 101.4049997
  38.5650905  98.4700839 102.1347479  39.6919992  99.2774990  97.5589997
  40.1669992  99.8684990  96.9739997  38.9749992  99.8074990  97.9059997
  39.6600406  99.4301011  97.5258495  49.8609992 102.8154990 107.6319997
  50.1849992 102.1844990 106.9889997  49.4209992 102.2814990 108.2929997
  49.8458707 102.6568261 107.6333195  46.6389992  98.7434990 102.4159997
  45.7279992  98.8004990 102.7049997  47.1439992  98.6834990 103.2269997
  46.5826873  98.7431838 102.5651190  41.4669992 100.3724990 101.2429997
  40.5779992 100.4714990 100.9029997  41.7629992  99.5304990 100.8969997
  41.3854001 100.2722473 101.1497318  45.1199992 100.3724990  98.8989997
  46.0519992 100.5014990  99.0769997  44.9049992 101.0414990  98.2499997
  45.2184245 100.4806452  98.8355602  51.0439992  97.9784990 105.6799997
  50.3669992  98.1094990 106.3439997  50.5579992  97.8234990 104.8699997
  50.8857265  97.9754665 105.6613380  27.9219992  28.0924990  89.5389997
  28.6729992  27.9364990  88.9659997  27.5829992  28.9444990  89.2629997
  27.9789052  28.1862745  89.4233469  43.7939992 101.5664990  96.4659997
  43.2519992 101.1874990  95.7749997  44.6279992 101.7614990  96.0369997
  43.8324283 101.5409383  96.3134298  47.9589992 101.5304990 104.3029997
  48.5229992 100.9844990 103.7559997  47.8109992 101.0094990 105.0919997
  48.0163037 101.3851798 104.3347212  42.9609992  97.6674990 100.7209997
  42.6429992  96.7644990 100.6859997  43.7419992  97.6694990 100.1689997
  43.0231560  97.5441148 100.6414975  46.5849992  99.9194990 106.7169997
  45.7499992 100.3734990 106.8269997  47.1089992 100.1954990 107.4689997
  46.5415070 100.0189677 106.8337134  47.1289992 106.1324990  98.4019997
  46.3839992 105.6244990  98.0789997  46.9949992 106.1814990  99.3479997
  47.0088633 106.0695714  98.4857563  54.2789992 105.2654990 107.1879997
  54.9209992 105.7214990 106.6449997  53.4489992 105.3784990 106.7259997
  54.2547352 105.3433223 107.0510234  51.0269992  98.9464990  96.6009997
  50.0879992  99.0574990  96.4499997  51.3239992  99.8024990  96.9069997
  50.9386371  99.0775327  96.6217362  48.6489992 106.3164990 109.6389997
  48.3029992 105.9344990 110.4449997  48.4489992 107.2494990 109.7099997
  48.5745399 106.3903489 109.7590401  51.7449992 100.8134990  98.2619997
  52.6369992 100.6754990  98.5809997  51.8019992 101.6044990  97.7249997
  51.8747380 100.9014777  98.2330981  42.2539992 105.4274990 104.1709997
  42.9989992 105.4244990 103.5699997  42.3319992 104.6034990 104.6529997
  42.3664158 105.3157928 104.1539136  32.3379992  25.9074990  94.5669997
  32.5299992  24.9764990  94.4559997  33.1949992  26.3324990  94.5569997
  32.4802320  25.8374743  94.5504433  49.2549992 107.5904990  97.4269997
  48.9599992 108.4174990  97.8089997  48.5519992 106.9714990  97.6229997
  49.1195855 107.6199458  97.5057634  39.2619992 103.8874990 109.4859997
  39.4849992 103.4694990 110.3179997  38.6599992 103.2754990 109.0639997
  39.2110802 103.7475216 109.5427561  50.8989992 108.7784990 109.5889997
  49.9979992 108.9614990 109.3209997  50.9329992 109.0374990 110.5099997
  50.7803021 108.8385505 109.6768206  56.6299992 101.0224990  97.9559997
  56.0759992 100.6264990  97.2839997  56.7309992 101.9334990  97.6789997
  56.5677084 101.0913565  97.8264381  54.9249992 109.8084990  98.4209997
  54.5529992 108.9834990  98.7309997  55.2029992 109.6254990  97.5239997
  54.9115997 109.6706160  98.3421551  52.0859992 104.6164990 105.4429997
  51.1579992 104.3854990 105.4159997  52.5369992 103.8394990 105.1129997
  52.0198165 104.4797785 105.3946772  44.6289992 108.9454990 101.5759997
  45.1559992 109.7184990 101.3749997  43.7489992 109.1694990 101.2739997
  44.5821793 109.0816652 101.5076304  40.3839992 103.8074990  96.1629997
  40.9999992 104.4344990  96.5419997  39.5219992 104.1234990  96.4339997
  40.3518195 103.9360810  96.2515369  46.0559992 106.6084990 101.1519997
  45.8149992 107.5334990 101.1939997  45.3159992 106.1494990 101.5479997
  45.9228934 106.6730881 101.2113191  46.5709992 110.7574990 107.4669997
  46.9339992 111.6114990 107.2339997  47.1029992 110.4654990 108.2079997
  46.6925141 110.8348907 107.5352079  33.6539992  28.6964990  92.6449997
  33.3729992  29.4054990  92.0669997  34.5969992  28.6234990  92.4939997
  33.7429272  28.7836704  92.5454976  44.7389992 111.6294990 100.6969997
  43.7899992 111.7354990 100.7489997  45.0909992 112.4504990 101.0419997
  44.6566214 111.7549361 100.7507317  50.1149992 106.8564990 107.1679997
  49.6889992 106.6284990 107.9939997  50.6959992 106.1174990 106.9849997
  50.1351587 106.7254084 107.2564111  52.3179992 107.7854990  96.2419997
  52.6709992 107.4054990  97.0459997  51.3689992 107.6914990  96.3279997
  52.2380985 107.7207330  96.3637738  52.7739992 111.4084990 109.6369997
  52.1719992 110.8524990 109.1419997  53.0549992 112.0754990 109.0109997
  52.7295757 111.4225755 109.4845657  56.8209992 112.2644990  96.4429997
  57.5649992 112.8504990  96.3029997  56.1269992 112.8334990  96.7759997
  56.8289809 112.4215830  96.4688572  40.8959992  98.6414990 109.0439997
  40.0029992  98.9794990 108.9769997  40.7969992  97.7854990 109.4619997
  40.7605241  98.5720941 109.0912982  53.1839992 106.4574990  98.4679997
  52.9069992 105.7294990  99.0239997  54.1109992 106.5764990  98.6739997
  53.2714181 106.3740068  98.5718972  40.5469992 110.4454990 107.4789997
  40.7639992 109.5134990 107.4479997  40.7939992 110.7204990 108.3629997
  40.6100543 110.3550877 107.5941412  46.4089992 108.8974990  94.6889997
  46.6479992 108.1484990  94.1409997  46.1399992 108.5094990  95.5209997
  46.4052804 108.7426524  94.7266352  45.3459992 108.4674990  97.1449997
  45.4929992 107.9474990  97.9349997  45.3429992 109.3744990  97.4509997
  45.3657300 108.5188975  97.2945877  24.4059992  25.4814990  93.7179997
  23.6389992  24.9484990  93.5079997  25.0849992  25.1714990  93.1189997
  24.3928292  25.3666360  93.6082693  41.7989992 105.7194990  97.6549997
  41.1129992 106.0724990  98.2219997  42.3219992 106.4824990  97.4089997
  41.7759033 105.8708757  97.6992644  49.6299992  98.3824990 107.9339997
  50.3289992  98.4564990 108.5839997  49.2499992  97.5174990 108.0889997
  49.6742095  98.2757402 108.0437982  50.4149992  98.0344990  99.0309997
  50.6349992  98.5054990  98.2279997  50.9729992  98.4284990  99.7019997
  50.5205851  98.1523272  99.0116134  48.0839992 110.1644990  97.8939997
  47.2669992 110.6614990  97.9469997  48.6129992 110.6404990  97.2539997
  48.0437898 110.2968123  97.8147274  47.6149992  99.7624990  99.8659997
  48.4269992 100.2664990  99.9119997  47.3699992  99.6174990 100.7799997
  47.6931091  99.8119366  99.9958552  48.1509992 100.7484990 109.0509997
  48.2699992 101.3224990 109.8079997  48.8059992 100.0604990 109.1659997
  48.2558684 100.7340205 109.1701656  48.4989992  96.8434990 100.8039997
  48.1519992  97.4604990 101.4489997  49.1569992  97.3444990 100.3229997
  48.5405290  96.9956384 100.8271635  45.4219992 111.2084990  97.8759997
  45.5829992 112.0084990  97.3749997  45.2249992 111.5154990  98.7609997
  45.4173919 111.3594140  97.9270988  44.1559992  97.9064990  97.4919997
  44.0729992  98.7944990  97.8379997  45.0459992  97.6414990  97.7229997
  44.2649751  97.9922482  97.5706066  54.3549992  98.6554990 109.8859997
  53.4389992  98.9174990 109.7979997  54.6909992  98.6524990 108.9889997
  54.2749789  98.6909637 109.7527829  27.1459992  20.1094990  89.7309997
  27.0479992  21.0554990  89.6249997  26.4029992  19.7364990  89.2549997
  27.0322363  20.1885987  89.6522029  52.9569992 102.4054990 103.9819997
  52.1599992 101.9904990 103.6529997  53.4019992 101.7154990 104.4729997
  52.9080317 102.2553197 104.0033557  42.4149992 108.3334990  96.5519997
  43.0069992 109.0334990  96.8279997  42.8739992 107.9004990  95.8329997
  42.5581172 108.3707370  96.4925163  40.7309992 100.9984990  95.6679997
  40.6859992 101.9374990  95.8469997  39.8429992 100.7624990  95.3979997
  40.6048472 101.0951946  95.6560282  54.0439992 111.6614990 105.6039997
  53.8879992 112.3404990 104.9469997  54.9759992 111.7334990 105.8069997
  54.1487328 111.7641586 105.5415529  41.5389992  95.7794990 104.3409997
  41.3099992  95.8384990 103.4139997  41.0959992  94.9884990 104.6479997
  41.4477387  95.6806412 104.2555223  40.4689992 109.7204990 100.5019997
  39.6369992 110.1924990 100.5289997  41.0149992 110.2304990  99.9029997
  40.4288710 109.8540317 100.4247570  48.4469992 110.7604990  94.8269997
  47.8029992 110.1294990  95.1489997  49.2089992 110.2294990  94.5949997
  48.4618260 110.6023035  94.8397298  53.0509992 110.5774990  95.0609997
  53.3339992 109.7824990  95.5139997  53.7909992 110.8104990  94.4999997
  53.1897295 110.5002349  95.0471469  44.0059992 106.4864990  94.9179997
  44.0699992 105.6924990  95.4489997  44.6589992 106.3684990  94.2289997
  44.1031168 106.3617747  94.8975119  49.3579992 107.5334990  94.6539997
  49.0899992 107.7144990  95.5549997  49.1519992 106.6084990  94.5229997
  49.2934251 107.4331528  94.7596809  28.4099992  24.4304990  93.2939997
  28.1739992  24.2114990  94.1959997  27.6269992  24.2234990  92.7849997
  28.2718444  24.3725688  93.3484518  52.0549992 106.0284990 109.6019997
  52.7999992 106.6174990 109.4819997  51.2969992 106.6104990 109.6649997
  52.0545185 106.1877000 109.5940940  45.1549992 104.4594990  97.2239997
  44.6959992 103.9754990  97.9099997  45.4099992 103.7904990  96.5879997
  45.1266178 104.3028511  97.2319785  44.4439992 102.3524990 109.5799997
  43.8259992 103.0264990 109.8609997  44.7879992 102.6734990 108.7469997
  44.4058181 102.4883233 109.5058266  46.2259992 102.7024990  95.4869997
  46.0459992 102.5474990  94.5589997  47.1759992 102.8104990  95.5309997
  46.3298016 102.6959264  95.3662123  55.6159992 105.0564990  94.9319997
  55.3429992 104.6324990  94.1189997  55.6559992 105.9884990  94.7149997
  55.5840201 105.1243523  94.7913548  45.1959992  98.0764990 108.1549997
  45.7319992  98.5284990 107.5029997  44.3439992  97.9684990 107.7329997
  45.1541648  98.1237883 108.0086395  46.7779992 103.5164990 108.3949997
  47.5289992 103.3604990 107.8219997  46.4389992 104.3684990 108.1189997
  46.8349052 103.6102745 108.2793469  46.0019992  95.5334990 108.5869997
  45.9039992  96.4794990 108.4809997  45.2589992  95.1604990 108.1109997
  45.8882363  95.6125987 108.5082029  46.1239992 113.3924990  96.4879997
  47.0569992 113.5504990  96.6319997  45.8589992 114.0684990  95.8629997
  46.2159846 113.5054567  96.4232930  39.6919992 108.0294990  95.9709997
  40.6059992 108.1084990  96.2439997  39.6989992 107.3424990  95.3039997
  39.8180769 107.9474735  95.9182366  31.1259992  23.5584990  92.3699997
  30.1779992  23.5904990  92.5019997  31.4379992  22.9324990  93.0239997
  31.0385293  23.4782934  92.4764130  38.3409992 113.4224990 101.0479997
  37.6939992 112.9604990 100.5149997  38.6959992 112.7504990 101.6309997
  38.3003861 113.2684707 101.0537939  39.2109992 111.5024990 102.8529997
  38.8769992 110.6224990 103.0249997  39.4329992 111.8484990 103.7169997
  39.1952677 111.4287366 102.9934252  56.7599992 112.3124990 105.8329997
  56.7379992 112.4974990 106.7719997  57.4499992 112.8804990 105.4919997
  56.8503439 112.4146898 105.9154774  56.3229992 111.8794990 108.7549997
  55.8359992 111.1434990 108.3839997  56.8719992 111.4854990 109.4329997
  56.3306101 111.7256267 108.7959034  56.0749992 105.9254990  98.9069997
  56.9249992 106.3464990  99.0349997  56.0799992 105.1854990  99.5149997
  56.1919745 105.8831347  99.0066479  56.4689992 103.9794990 100.7309997
  55.7429992 103.4994990 101.1289997  57.0499992 104.1844990 101.4629997
  56.4482504 103.9415592 100.8844199  56.2279992 106.7644990 105.6789997
  57.0619992 106.3864990 105.3979997  56.3399992 107.7074990 105.5599997
  56.3571917 106.8402954 105.6244844  54.7139992 109.6424990 107.9859997
  54.0669992 109.9674990 108.6109997  54.1969992 109.2014990 107.3109997
  54.5554068 109.6274726 107.9804918  56.7369992 103.8804990  97.1219997
  56.2159992 104.2364990  96.4029997  56.7039992 104.5554990  97.7999997
  56.6611525 104.0205273  97.1151408  55.0859992 101.1194990  95.6729997
  55.1829992 101.7864990  94.9929997  54.9459992 100.3044990  95.1909997
  55.0803428 101.1005667  95.5148311  32.7599992  22.1924990  94.3749997
  32.6629992  21.2404990  94.3689997  32.4379992  22.4604990  95.2359997
  32.7032229  22.0984706  94.4905108  54.2559992 102.5004990 101.2939997
  54.1059992 101.5554990 101.2739997  53.9019992 102.7814990 102.1379997
  54.1876351 102.4091656 101.4053202  39.2909992 104.5784990 105.3039997
  39.4749992 104.4964990 104.3689997  40.1399992 104.4544990 105.7279997
  39.4310259 104.5504915 105.2331771  54.3339992  98.5274990  94.7899997
  54.9439992  98.1564990  95.4269997  53.4969992  98.1064990  94.9859997
  54.3043704  98.4197942  94.9037077  53.9659992 100.0824990  99.7559997
  54.2459992  99.1754990  99.8809997  54.7249992 100.5164990  99.3669997
  54.1069471 100.0170654  99.7205052  54.5779992 100.6644990 105.1919997
  55.5109992 100.8764990 105.1579997  54.3429992 100.7654990 106.1149997
  54.6738357 100.7071303 105.3120232  54.6069992 101.4014990 107.9679997
  53.7639992 101.6694990 108.3339997  55.0499992 102.2234990 107.7569997
  54.5514358 101.5493294 107.9895999  54.5799992  97.3454990  99.8049997
  54.7619992  96.8964990 100.6299997  53.9799992  96.7614990  99.3409997
  54.5238187  97.2050563  99.8552721  40.1099992  98.1614990 104.3359997
  40.5549992  97.3694990 104.6379997  40.5759992  98.8774990 104.7669997
  40.2339059  98.1499485 104.4356061  38.4139992 101.1604990 105.4049997
  38.9059992 100.9394990 104.6149997  38.7759992 102.0004990 105.6859997
  38.5303429 101.2438220 105.3347918  56.4459992  97.4134990  96.3329997
  56.8589992  96.6924990  95.8569997  57.1279992  98.0824990  96.3909997
  56.5945712  97.4054304  96.2758247  22.5869992  23.4014990  93.4229997
  22.7979992  22.6954990  92.8119997  22.4749992  22.9644990  94.2669997
  22.6007674  23.2456376  93.4534199  38.7269992  97.4184990  99.4599997
  37.8019992  97.6264990  99.3299997  39.1809992  97.9024990  98.7699997
  38.6617401  97.5123895  99.3489433  53.4979992 112.4024990 101.4049997
  54.1499992 112.0544990 100.7969997  54.0089992 112.8904990 102.0509997
  53.6562872 112.4208248 101.4090964  38.6909992  96.1564990 107.8039997
  38.0259992  95.9104990 108.4469997  38.2479992  96.7784990 107.2269997
  38.5401168  96.2069225 107.8139830  43.8369992 110.3054990 108.2069997
  43.4119992 111.1154990 107.9239997  44.7409992 110.3914990 107.9049997
  43.9011002 110.4278728 108.1274798  55.4109992  95.5804990 109.4899997
  54.5979992  95.9054990 109.1019997  55.6439992  94.8194990 108.9569997
  55.3312566  95.5221570 109.3649196  41.2389992 113.5624990 108.2539997
  40.5179992 114.0024990 107.8029997  40.8729992 113.3114990 109.1029997
  41.0909785 113.5887691 108.3069849  43.7059992 113.1624990 107.2839997
  42.8409992 113.2344990 107.6879997  43.6509992 113.7094990 106.4999997
  43.5802066 113.2462678 107.2333371  48.4169992 113.0504990 106.4599997
  47.9599992 113.5794990 105.8059997  48.5789992 113.6534990 107.1849997
  48.3763919 113.2043990 106.4685740  50.7439992 111.9284990 107.4049997
  49.8399992 112.0934990 107.1389997  51.1729992 112.7814990 107.3389997
  50.6782017 112.0664184 107.3596495  53.3479992 113.4984990 107.6999997
  53.1669992 114.4144990 107.4889997  53.5249992 113.0874990 106.8529997
  53.3471377 113.5683365 107.5567178  27.3679992  19.4034990  92.4019997
  28.0789992  18.7634990  92.3879997  27.2669992  19.6694990  91.4879997
  27.4516732  19.3518451  92.2765475  40.6539992 112.1854990 105.1649997
  40.6349992 111.7594990 106.0219997  41.4579992 111.8664990 104.7559997
  40.7601393 112.0840297 105.2270155  42.7949992 110.8954990 103.8199997
  42.5759992 109.9784990 103.9889997  43.6189992 111.0354990 104.2859997
  42.8764637 110.7889586 103.9061414  45.3319992 111.3654990 104.6679997
  45.5449992 110.4774990 104.3809997  45.3969992 111.3304990 105.6229997
  45.3699075 111.2393318 104.7577355  48.8409992  97.0294990 103.8129997
  48.1659992  96.3994990 104.0679997  49.4049992  96.5454990 103.2099997
  48.8249558  96.8779283 103.7663451  53.9829992  95.1364990 103.9249997
  54.5869992  95.6844990 103.4239997  53.1139992  95.4554990 103.6849997
  53.9481126  95.2547070 103.8239180  55.7099992  96.2754990 102.2589997
  56.3219992  95.7614990 101.7319997  56.0929992  97.1524990 102.2819997
  55.8453867  96.3237613 102.1900888  41.1669992  95.6634990 101.6349997
  40.3899992  95.4284990 101.1269997  41.6979992  94.8664990 101.6439997
  41.1324443  95.5236721 101.5667200  40.0039992  95.4614990  97.4379997
  40.4429992  96.0724990  96.8469997  39.3699992  95.9994990  97.9119997
  39.9784103  95.6179233  97.4211376  45.7469992  95.5894990 101.4479997
  46.6209992  95.9784990 101.4179997  45.6109992  95.3744990 102.3709997
  45.8483125  95.6137120 101.5686523  51.3029992  95.6194990 103.0969997
  51.3799992  95.7154990 102.1479997  51.0279992  94.7124990 103.2259997
  51.2763407  95.5099188 102.9843532  27.7209992  21.0854990  94.4559997
  27.5899992  20.6104990  93.6349997  27.1219992  21.8304990  94.3999997
  27.6221524  21.1211968  94.3361553  52.6569992  95.6454990  98.7899997
  51.9539992  96.2604990  98.5799997  52.2119992  94.8084990  98.9209997
  52.5006550  95.6164679  98.7789819  39.9049992 111.4094990  98.3359997
  39.2199992 111.3714990  97.6679997  39.9079992 112.3214990  98.6239997
  39.8117358 111.5276744  98.2836145  41.8649992  97.3774990  95.8809997
  42.3559992  96.7474990  95.3529997  42.4879992  97.6734990  96.5439997
  42.0165459  97.3312419  95.8983667  46.8909992  97.6704990  98.3379997
  47.0689992  97.0234990  99.0209997  46.8369992  98.5044990  98.8049997
  46.9080678  97.6946615  98.4946283  48.7689992 112.6184990  96.7329997
  49.6349992 112.9854990  96.5549997  48.5219992 112.1794990  95.9199997
  48.8542041 112.6093648  96.5985958  55.4779992 112.1814990  99.4129997
  55.2839992 111.4334990  98.8479997  55.4389992 112.9394990  98.8289997
  55.4461907 112.1815770  99.2568077  41.7229992 112.3294990  95.3609997
  41.4549992 112.6154990  96.2339997  42.4939992 111.7834990  95.5129997
  41.7905600 112.2948341  95.5011482  69.1019992 104.8194990 101.5929997
  69.1909992 105.7634990 101.4609997  68.4629992 104.5444990 100.9349997
  69.0278319 104.9114984 101.4860276  68.0349992 104.0744990 105.0119997
  67.9959992 103.4284990 105.7169997  67.7119992 103.6074990 104.2409997
  67.9860199 103.9230089 105.0042865  60.4029992 103.6884990 106.6049997
  60.4439992 103.0634990 107.3289997  61.1059992 104.3124990 106.7869997
  60.5036054 103.6873262 106.7286311  19.4849992  37.9984990  82.1919997
  18.8379992  37.5364990  81.6589997  19.8399992  37.3264990  82.7749997
  19.4443861  37.8444707  82.1977939  71.7409992 107.0134990 103.3139997
  71.2999992 106.2934990 103.7639997  71.7279992 107.7344990 103.9439997
  71.6788398 107.0123187 103.4607734  61.3269992 108.1384990 105.1399997
  60.9569992 107.3364990 104.7709997  62.2679992 107.9704990 105.1869997
  61.4035630 108.0058680 105.0957873  57.9369992 101.7984990 100.5329997
  57.4889992 102.6444990 100.5149997  57.3759992 101.2194990 100.0179997
  57.7998546 101.8359004 100.4608874  58.6469992 103.9604990 102.6589997
  58.8609992 103.1904990 103.1859997  59.3849992 104.0504990 102.0559997
  58.7760073 103.8673546 102.6495786  68.8519992 112.1174990 103.5259997
  69.4719992 111.4414990 103.2529997  68.6439992 111.8994990 104.4339997
  68.9087360 111.9954792 103.6114387  66.4239992 106.5064990 105.4179997
  66.7279992 105.8204990 104.8239997  67.1459992 106.6254990 106.0359997
  66.5631152 106.4287201 105.4202106  75.0869992  98.1084990 106.2789997
  75.1359992  98.7184990 107.0149997  75.5129992  98.5694990 105.5559997
  75.1512851  98.2543266 106.2820532  69.5649992 100.9004990 105.7459997
  69.7069992  99.9544990 105.7659997  69.4589992 101.1074990 104.8169997
  69.5701158 100.7989722 105.6232241  62.7199992  99.0024990 103.0179997
  62.7629992  99.8624990 102.5999997  62.2619992  98.4494990 102.3849997
  62.6639613  99.0455689 102.8751276  70.4419992  99.1334990 101.4189997
  71.0879992  98.8044990 102.0439997  70.9519992  99.6504990 100.7959997
  70.5994392  99.1583710 101.4203248  20.3549992  36.0784990  83.9969997
  20.0209992  35.1984990  84.1689997  20.5769992  36.4244990  84.8609997
  20.3392677  36.0047365  84.1374252  59.3399992 101.3994990 103.7799997
  59.9939992 100.8494990 104.2119997  59.3639992 101.1254990 102.8639997
  59.4327022 101.2872005 103.7151698  64.4959992 102.9494990 102.9959997
  65.1119992 102.4224990 103.5049997  63.9099992 102.3094990 102.5919997
  64.5010652 102.7908919 103.0110277  75.4789992  99.5864990 108.5149997
  74.7899992 100.2444990 108.4199997  75.4939992  99.3884990 109.4519997
  75.3867756  99.6497614 108.6285795  61.5299992  97.9204990 107.0919997
  61.3109992  98.4504990 106.3259997  60.8619992  98.1464990 107.7399997
  61.4097271  98.0236508 107.0746206  68.8989992 107.4204990 100.6359997
  68.6029992 107.0974990  99.7849997  68.5749992 108.3204990 100.6779997
  68.8146501 107.4979058 100.5250893  64.0989992 105.5954990 107.3799997
  63.3589992 106.1944990 107.4829997  64.8129992 106.1494990 107.0639997
  64.0943288 105.7522368 107.3513787  72.2059992  98.4244990 103.3999997
  71.9909992  97.6584990 103.9319997  72.8619992  98.8964990 103.9129997
  72.2652451  98.3834472 103.5421699  61.1239992  99.8124990 105.0449997
  61.7369992 100.4454990 105.4179997  61.6359992  99.3404990 104.3879997
  61.2771680  99.8354006 105.0072830  62.5059992 107.5604990 108.1669997
  62.5009992 108.4394990 107.7889997  61.6529992 107.4764990 108.5919997
  62.3899199 107.6695901 108.1726942  58.6279992 107.2314990  98.9489997
  58.3559992 107.4604990  98.0599997  58.6729992 108.0684990  99.4089997
  58.5968709 107.3761069  98.8896089  37.9039992  36.8884990  86.9769997
  37.8819992  37.0734990  87.9159997  38.5939992  37.4564990  86.6359997
  37.9943439  36.9906898  87.0594774  72.2529992 108.8524990 105.6619997
  71.3109992 108.9114990 105.8229997  72.5289992 109.7584990 105.5249997
  72.1615771 108.9830270 105.6654827  72.5529992  97.1394990 107.0789997
  71.8169992  97.7494990 107.0409997  73.2369992  97.5544990 106.5529997
  72.5445885  97.2791924 107.0026931  65.5559992  95.2254990 104.5449997
  65.4389992  94.2774990 104.4909997  64.7009992  95.5584990 104.8179997
  65.4243691  95.1405842 104.5745072  70.5049992 110.6334990 102.2869997
  70.9299992 109.9264990 101.8019997  70.8219992 111.4354990 101.8699997
  70.6060266 110.6450201 102.1642461  71.6639992 108.5344990 100.7959997
  71.4069992 107.8444990 100.1839997  71.7349992 108.0914990 101.6409997
  71.6384322 108.3801568 100.8265372  73.3499992 107.1014990 109.2729997
  73.4899992 106.5094990 108.5339997  73.5179992 107.9744990 108.9169997
  73.3918734 107.1384041 109.1236937  67.8229992 104.0634990  99.0449997
  67.1109992 104.5984990  98.6939997  68.5139992 104.1184990  98.3849997
  67.8188696 104.1442591  98.9076372  67.8769992 102.5204990  96.0839997
  68.5779992 102.5434990  96.7349997  68.1789992 101.8924990  95.4279997
  68.0138282 102.4387350  96.0844478  75.1919992 103.4414990 107.3389997
  74.5399992 104.1354990 107.4279997  75.6569992 103.6514990 106.5289997
  75.1655357 103.5649544 107.2417056  71.2289992 104.2724990  99.9969997
  70.4969992 104.5014990 100.5699997  71.6759992 103.5594990 100.4519997
  71.1892753 104.2073984 100.1369698  37.4669992  36.4554990  89.8989997
  36.9799992  35.7194990  89.5279997  38.0159992  36.0614990  90.5769997
  37.4746101  36.3016267  89.9399034  71.1259992 102.4474990 109.0649997
  71.2059992 103.2104990 109.6369997  70.5249992 102.7264990 108.3739997
  71.0557115 102.5897707 109.0499631  62.8739992 104.9034990 101.8799997
  62.5439992 104.5324990 101.0609997  63.4619992 104.2324990 102.2259997
  62.9084056 104.7621257 101.8149035  64.2409992 108.3314990 104.5609997
  64.1459992 107.7524990 103.8039997  64.9699992 107.9604990 105.0569997
  64.3266161 108.2020902 104.5245192  63.2409992 103.6714990 105.5129997
  63.8059992 103.7934990 104.7499997  63.5589992 104.3094990 106.1519997
  63.3613430 103.7744448 105.4949094  69.5499992 109.1754990 106.2469997
  69.3089992 109.8374990 106.8949997  69.3519992 108.3404990 106.6719997
  69.4902662 109.1532704 106.3931008  70.0999992 103.4354990  97.6819997
  70.6789992 103.5854990  98.4289997  70.5139992 103.9054990  96.9589997
  70.2353122 103.5196288  97.6865024  61.0409992 104.2694990 109.4589997
  61.1109992 104.9204990 110.1569997  60.1499992 104.3724990 109.1239997
  60.9301802 104.3724769 109.5092231  67.8259992 110.1714990 101.1179997
  68.2999992 110.4674990 101.8949997  67.2629992 110.9104990 100.8839997
  67.8148460 110.3118336 101.1927626  73.7979992  95.1854990  97.4949997
  72.8979992  95.3234990  97.7899997  74.0499992  96.0164990  97.0929997
  73.7087355  95.3168200  97.4810539  61.8639992 103.9724990  99.4689997
  61.5719992 104.7404990  98.9779997  61.1899992 103.3134990  99.3059997
  61.7328843 103.9884537  99.3797695  35.9179992  32.2454990  94.5369997
  35.0519992  32.1404990  94.9309997  36.2939992  33.0034990  94.9839997
  35.8503768  32.3336151  94.6513258  74.9879992 109.5514990  95.8719997
  75.0609992 110.4904990  96.0419997  75.8929992 109.2464990  95.8149997
  75.1204168 109.6388531  95.8875736  57.9569992 106.3354990 108.2839997
  57.4559992 106.3074990 107.4689997  57.9629992 105.4304990 108.5939997
  57.8891690 106.2092234 108.2142770  57.7079992 109.1164990 105.1679997
  58.6539992 108.9714990 105.1489997  57.5949992 109.9004990 105.7049997
  57.8223578 109.2026708 105.2380300  66.8839992 109.3564990 109.7259997
  66.9709992 110.1824990 110.2009997  66.0199992 109.0264990 109.9749997
  66.7791944 109.4249871 109.8246558  67.2979992 113.1284990  99.5319997
  67.2229992 113.0074990  98.5859997  67.3309992 114.0774990  99.6509997
  67.2921862 113.2402492  99.4184840  60.9519992 111.9174990 101.3129997
  61.1039992 111.5694990 102.1919997  60.1009992 111.5604990 101.0579997
  60.8577899 111.8216749 101.3987322  70.3999992 112.2824990  96.5349997
  70.7749992 111.5384990  96.0639997  70.4039992 112.0124990  97.4529997
  70.4518969 112.1440920  96.5946475  70.0689992 112.2084990  99.2839997
  69.1339992 112.3084990  99.4629997  70.3489992 111.4984990  99.8619997
  69.9789270 112.1262300  99.3865984  60.2059992 107.6594990 109.3269997
  60.4219992 107.2974990 110.1869997  59.3509992 107.2844990 109.1169997
  60.1199349 107.5592914 109.4162134  62.8249992  96.1294990 105.3229997
  61.9629992  96.0424990 104.9149997  62.8029992  96.9854990 105.7499997
  62.7040953  96.2333558 105.3249262  37.2189992  30.5014990  80.0509997
  38.0689992  30.9224990  80.1789997  37.2239992  29.7614990  80.6589997
  37.3359745  30.4591347  80.1506479  67.4879992  95.8514990 108.6969997
  67.9079992  95.4364990 109.4499997  66.5549992  95.6724990 108.8139997
  67.4193736  95.7704921 108.8158950  70.8139992  99.6064990 109.5509997
  70.2999992  99.4814990 110.3479997  70.6589992 100.5194990 109.3059997
  70.7226643  99.7127068 109.6270624  71.5769992 104.4674990  95.3119997
  71.6189992 104.2454990  94.3819997  72.4259992 104.8664990  95.5019997
  71.6975253 104.4910510  95.2103804  67.1499992  98.3434990  95.9819997
  66.8959992  98.3624990  96.9049997  66.8929992  97.4724990  95.6809997
  67.0805133  98.2283121  96.0675065  62.9159992 101.0944990 106.4179997
  62.2739992 101.0544990 107.1269997  62.9529992 102.0214990 106.1799997
  62.8331659 101.2142540 106.4828463  62.9129992 101.3154990 101.3299997
  62.0199992 100.9754990 101.2709997  63.3639992 100.9384990 100.5739997
  62.8517185 101.2180220 101.2197698  68.4489992 101.7314990 100.1469997
  68.0399992 102.5464990  99.8549997  69.1689992 101.5914990  99.5319997
  68.4903946 101.8239963 100.0239616  69.4529992 101.1774990 102.9609997
  69.2579992 101.7834990 102.2459997  69.6349992 100.3444990 102.5259997
  69.4509272 101.1477955 102.8044075  60.6659992 101.4154990 108.2849997
  60.6279992 101.8154990 109.1529997  60.1749992 100.5984990 108.3749997
  60.5944246 101.3598842 108.4161171  64.0319992  98.7894990  95.0829997
  63.6009992  98.3444990  95.8129997  63.3139992  99.1604990  94.5709997
  63.8759363  98.7787979  95.1136194  37.6129992  28.5554990  81.8749997
  36.8869992  28.0754990  82.2729997  38.1939992  28.7604990  82.6069997
  37.5922504  28.5175592  82.0284199  57.2739992  98.5314990 102.1349997
  57.9049992  98.5024990 102.8549997  57.7239992  98.1064990 101.4049997
  57.4210905  98.4700839 102.1347479  58.5479992  99.2774990  97.5589997
  59.0229992  99.8684990  96.9739997  57.8309992  99.8074990  97.9059997
  58.5160406  99.4301011  97.5258495  68.7169992 102.8154990 107.6319997
  69.0409992 102.1844990 106.9889997  68.2769992 102.2814990 108.2929997
  68.7018707 102.6568261 107.6333195  65.4949992  98.7434990 102.4159997
  64.5839992  98.8004990 102.7049997  65.9999992  98.6834990 103.2269997
  65.4386873  98.7431838 102.5651190  60.3229992 100.3724990 101.2429997
  59.4339992 100.4714990 100.9029997  60.6189992  99.5304990 100.8969997
  60.2414001 100.2722473 101.1497318  63.9759992 100.3724990  98.8989997
  64.9079992 100.5014990  99.0769997  63.7609992 101.0414990  98.2499997
  64.0744245 100.4806452  98.8355602  69.8999992  97.9784990 105.6799997
  69.2229992  98.1094990 106.3439997  69.4139992  97.8234990 104.8699997
  69.7417265  97.9754665 105.6613380  62.6499992 101.5664990  96.4659997
  62.1079992 101.1874990  95.7749997  63.4839992 101.7614990  96.0369997
  62.6884283 101.5409383  96.3134298  66.8149992 101.5304990 104.3029997
  67.3789992 100.9844990 103.7559997  66.6669992 101.0094990 105.0919997
  66.8723037 101.3851798 104.3347212  61.8169992  97.6674990 100.7209997
  61.4989992  96.7644990 100.6859997  62.5979992  97.6694990 100.1689997
  61.8791560  97.5441148 100.6414975  37.3719992  31.3404990  86.8229997
  38.2059992  30.9624990  86.5419997  37.4839992  32.2834990  86.7039997
  37.5011917  31.4162954  86.7684844  65.4409992  99.9194990 106.7169997
  64.6059992 100.3734990 106.8269997  65.9649992 100.1954990 107.4689997
  65.3975070 100.0189677 106.8337134  65.9849992 106.1324990  98.4019997
  65.2399992 105.6244990  98.0789997  65.8509992 106.1814990  99.3479997
  65.8648633 106.0695714  98.4857563  73.1349992 105.2654990 107.1879997
  73.7769992 105.7214990 106.6449997  72.3049992 105.3784990 106.7259997
  73.1107352 105.3433223 107.0510234  69.8829992  98.9464990  96.6009997
  68.9439992  99.0574990  96.4499997  70.1799992  99.8024990  96.9069997
  69.7946371  99.0775327  96.6217362  67.5049992 106.3164990 109.6389997
  67.1589992 105.9344990 110.4449997  67.3049992 107.2494990 109.7099997
  67.4305399 106.3903489 109.7590401  70.6009992 100.8134990  98.2619997
  71.4929992 100.6754990  98.5809997  70.6579992 101.6044990  97.7249997
  70.7307380 100.9014777  98.2330981  61.1099992 105.4274990 104.1709997
  61.8549992 105.4244990 103.5699997  61.1879992 104.6034990 104.6529997
  61.2224158 105.3157928 104.1539136  68.1109992 107.5904990  97.4269997
  67.8159992 108.4174990  97.8089997  67.4079992 106.9714990  97.6229997
  67.9755855 107.6199458  97.5057634  58.1179992 103.8874990 109.4859997
  58.3409992 103.4694990 110.3179997  57.5159992 103.2754990 109.0639997
  58.0670802 103.7475216 109.5427561  69.7549992 108.7784990 109.5889997
  68.8539992 108.9614990 109.3209997  69.7889992 109.0374990 110.5099997
  69.6363021 108.8385505 109.6768206  35.8579992  34.2184990  89.1299997
  35.2109992  34.5434990  89.7549997  35.3409992  33.7774990  88.4549997
  35.6994068  34.2034726  89.1244918  75.4859992 101.0224990  97.9559997
  74.9319992 100.6264990  97.2839997  75.5869992 101.9334990  97.6789997
  75.4237084 101.0913565  97.8264381  73.7809992 109.8084990  98.4209997
  73.4089992 108.9834990  98.7309997  74.0589992 109.6254990  97.5239997
  73.7675997 109.6706160  98.3421551  70.9419992 104.6164990 105.4429997
  70.0139992 104.3854990 105.4159997  71.3929992 103.8394990 105.1129997
  70.8758165 104.4797785 105.3946772  63.4849992 108.9454990 101.5759997
  64.0119992 109.7184990 101.3749997  62.6049992 109.1694990 101.2739997
  63.4381793 109.0816652 101.5076304  59.2399992 103.8074990  96.1629997
  59.8559992 104.4344990  96.5419997  58.3779992 104.1234990  96.4339997
  59.2078195 103.9360810  96.2515369  64.9119992 106.6084990 101.1519997
  64.6709992 107.5334990 101.1939997  64.1719992 106.1494990 101.5479997
  64.7788934 106.6730881 101.2113191  65.4269992 110.7574990 107.4669997
  65.7899992 111.6114990 107.2339997  65.9589992 110.4654990 108.2079997
  65.5485141 110.8348907 107.5352079  63.5949992 111.6294990 100.6969997
  62.6459992 111.7354990 100.7489997  63.9469992 112.4504990 101.0419997
  63.5126214 111.7549361 100.7507317  68.9709992 106.8564990 107.1679997
  68.5449992 106.6284990 107.9939997  69.5519992 106.1174990 106.9849997
  68.9911587 106.7254084 107.2564111  71.1739992 107.7854990  96.2419997
  71.5269992 107.4054990  97.0459997  70.2249992 107.6914990  96.3279997
  71.0940985 107.7207330  96.3637738  35.3999992  27.0764990  82.4379997
  35.2499992  26.1314990  82.4179997  35.0459992  27.3574990  83.2819997
  35.3316351  26.9851656  82.5493202  71.6299992 111.4084990 109.6369997
  71.0279992 110.8524990 109.1419997  71.9109992 112.0754990 109.0109997
  71.5855757 111.4225755 109.4845657  75.6769992 112.2644990  96.4429997
  76.4209992 112.8504990  96.3029997  74.9829992 112.8334990  96.7759997
  75.6849809 112.4215830  96.4688572  59.7519992  98.6414990 109.0439997
  58.8589992  98.9794990 108.9769997  59.6529992  97.7854990 109.4619997
  59.6165241  98.5720941 109.0912982  72.0399992 106.4574990  98.4679997
  71.7629992 105.7294990  99.0239997  72.9669992 106.5764990  98.6739997
  72.1274181 106.3740068  98.5718972  59.4029992 110.4454990 107.4789997
  59.6199992 109.5134990 107.4479997  59.6499992 110.7204990 108.3629997
  59.4660543 110.3550877 107.5941412  65.2649992 108.8974990  94.6889997
  65.5039992 108.1484990  94.1409997  64.9959992 108.5094990  95.5209997
  65.2612804 108.7426524  94.7266352  64.2019992 108.4674990  97.1449997
  64.3489992 107.9474990  97.9349997  64.1989992 109.3744990  97.4509997
  64.2217300 108.5188975  97.2945877  60.6549992 105.7194990  97.6549997
  59.9689992 106.0724990  98.2219997  61.1779992 106.4824990  97.4089997
  60.6319033 105.8708757  97.6992644  68.4859992  98.3824990 107.9339997
  69.1849992  98.4564990 108.5839997  68.1059992  97.5174990 108.0889997
  68.5302095  98.2757402 108.0437982  69.2709992  98.0344990  99.0309997
  69.4909992  98.5054990  98.2279997  69.8289992  98.4284990  99.7019997
  69.3765851  98.1523272  99.0116134  20.4349992  29.1544990  86.4479997
  20.6189992  29.0724990  85.5129997  21.2839992  29.0304990  86.8719997
  20.5750259  29.1264915  86.3771771  66.9399992 110.1644990  97.8939997
  66.1229992 110.6614990  97.9469997  67.4689992 110.6404990  97.2539997
  66.8997898 110.2968123  97.8147274  66.4709992  99.7624990  99.8659997
  67.2829992 100.2664990  99.9119997  66.2259992  99.6174990 100.7799997
  66.5491091  99.8119366  99.9958552  67.0069992 100.7484990 109.0509997
  67.1259992 101.3224990 109.8079997  67.6619992 100.0604990 109.1659997
  67.1118684 100.7340205 109.1701656  67.3549992  96.8434990 100.8039997
  67.0079992  97.4604990 101.4489997  68.0129992  97.3444990 100.3229997
  67.3965290  96.9956384 100.8271635  64.2779992 111.2084990  97.8759997
  64.4389992 112.0084990  97.3749997  64.0809992 111.5154990  98.7609997
  64.2733919 111.3594140  97.9270988  63.0119992  97.9064990  97.4919997
  62.9289992  98.7944990  97.8379997  63.9019992  97.6414990  97.7229997
  63.1209751  97.9922482  97.5706066  73.2109992  98.6554990 109.8859997
  72.2949992  98.9174990 109.7979997  73.5469992  98.6524990 108.9889997
  73.1309789  98.6909637 109.7527829  71.8129992 102.4054990 103.9819997
  71.0159992 101.9904990 103.6529997  72.2579992 101.7154990 104.4729997
  71.7640317 102.2553197 104.0033556  61.2709992 108.3334990  96.5519997
  61.8629992 109.0334990  96.8279997  61.7299992 107.9004990  95.8329997
  61.4141172 108.3707371  96.4925163  59.5869992 100.9984990  95.6679997
  59.5419992 101.9374990  95.8469997  58.6989992 100.7624990  95.3979997
  59.4608472 101.0951946  95.6560282  36.2559992  29.0464990  92.0769997
  36.8389992  28.3114990  92.2679997  36.8199992  29.8184990  92.1229997
  36.4120326  29.0502746  92.1093579  72.8999992 111.6614990 105.6039997
  72.7439992 112.3404990 104.9469997  73.8319992 111.7334990 105.8069997
  73.0047328 111.7641586 105.5415529  60.3949992  95.7794990 104.3409997
  60.1659992  95.8384990 103.4139997  59.9519992  94.9884990 104.6479997
  60.3037387  95.6806412 104.2555223  59.3249992 109.7204990 100.5019997
  58.4929992 110.1924990 100.5289997  59.8709992 110.2304990  99.9029997
  59.2848710 109.8540317 100.4247570  67.3029992 110.7604990  94.8269997
  66.6589992 110.1294990  95.1489997  68.0649992 110.2294990  94.5949997
  67.3178260 110.6023035  94.8397298  71.9069992 110.5774990  95.0609997
  72.1899992 109.7824990  95.5139997  72.6469992 110.8104990  94.4999997
  72.0457295 110.5002349  95.0471469  62.8619992 106.4864990  94.9179997
  62.9259992 105.6924990  95.4489997  63.5149992 106.3684990  94.2289997
  62.9591168 106.3617748  94.8975119  68.2139992 107.5334990  94.6539997
  67.9459992 107.7144990  95.5549997  68.0079992 106.6084990  94.5229997
  68.1494251 107.4331528  94.7596809  70.9109992 106.0284990 109.6019997
  71.6559992 106.6174990 109.4819997  70.1529992 106.6104990 109.6649997
  70.9105185 106.1877000 109.5940940  64.0109992 104.4594990  97.2239997
  63.5519992 103.9754990  97.9099997  64.2659992 103.7904990  96.5879997
  63.9826178 104.3028511  97.2319785  63.2999992 102.3524990 109.5799997
  62.6819992 103.0264990 109.8609997  63.6439992 102.6734990 108.7469997
  63.2618181 102.4883233 109.5058266  37.7529992  26.9494990  92.7609997
  36.8889992  26.5704990  92.5959997  38.3569992  26.2104990  92.6869997
  37.7164912  26.7977937  92.7284360  65.0819992 102.7024990  95.4869997
  64.9019992 102.5474990  94.5589997  66.0319992 102.8104990  95.5309997
  65.1858016 102.6959264  95.3662123  74.4719992 105.0564990  94.9319997
  74.1989992 104.6324990  94.1189997  74.5119992 105.9884990  94.7149997
  74.4400201 105.1243523  94.7913548  64.0519992  98.0764990 108.1549997
  64.5879992  98.5284990 107.5029997  63.1999992  97.9684990 107.7329997
  64.0101648  98.1237883 108.0086395  65.6339992 103.5164990 108.3949997
  66.3849992 103.3604990 107.8219997  65.2949992 104.3684990 108.1189997
  65.6909052 103.6102745 108.2793469  64.8579992  95.5334990 108.5869997
  64.7599992  96.4794990 108.4809997  64.1149992  95.1604990 108.1109997
  64.7442363  95.6125987 108.5082029  64.9799992 113.3924990  96.4879997
  65.9129992 113.5504990  96.6319997  64.7149992 114.0684990  95.8629997
  65.0719846 113.5054567  96.4232930  58.5479992 108.0294990  95.9709997
  59.4619992 108.1084990  96.2439997  58.5549992 107.3424990  95.3039997
  58.6740769 107.9474735  95.9182366  57.1969992 113.4224990 101.0479997
  56.5499992 112.9604990 100.5149997  57.5519992 112.7504990 101.6309997
  57.1563861 113.2684707 101.0537939  58.0669992 111.5024990 102.8529997
  57.7329992 110.6224990 103.0249997  58.2889992 111.8484990 103.7169997
  58.0512677 111.4287365 102.9934252  75.6159992 112.3124990 105.8329997
  75.5939992 112.4974990 106.7719997  76.3059992 112.8804990 105.4919997
  75.7063439 112.4146898 105.9154774  35.1099992  24.6584990  80.8999997
  35.3899992  23.7514990  81.0249997  35.8689992  25.0924990  80.5109997
  35.2509471  24.5930654  80.8645052  75.1789992 111.8794990 108.7549997
  74.6919992 111.1434990 108.3839997  75.7279992 111.4854990 109.4329997
  75.1866101 111.7256267 108.7959034  74.9309992 105.9254990  98.9069997
  75.7809992 106.3464990  99.0349997  74.9359992 105.1854990  99.5149997
  75.0479745 105.8831347  99.0066479  75.3249992 103.9794990 100.7309997
  74.5989992 103.4994990 101.1289997  75.9059992 104.1844990 101.4629997
  75.3042504 103.9415592 100.8844199  75.0839992 106.7644990 105.6789997
  75.9179992 106.3864990 105.3979997  75.1959992 107.7074990 105.5599997
  75.2131917 106.8402954 105.6244844  73.5699992 109.6424990 107.9859997
  72.9229992 109.9674990 108.6109997  73.0529992 109.2014990 107.3109997
  73.4114068 109.6274726 107.9804918  75.5929992 103.8804990  97.1219997
  75.0719992 104.2364990  96.4029997  75.5599992 104.5554990  97.7999997
  75.5171525 104.0205273  97.1151408  73.9419992 101.1194990  95.6729997
  74.0389992 101.7864990  94.9929997  73.8019992 100.3044990  95.1909997
  73.9363428 101.1005667  95.5148311  73.1119992 102.5004990 101.2939997
  72.9619992 101.5554990 101.2739997  72.7579992 102.7814990 102.1379997
  73.0436351 102.4091656 101.4053202  58.1469992 104.5784990 105.3039997
  58.3309992 104.4964990 104.3689997  58.9959992 104.4544990 105.7279997
  58.2870259 104.5504915 105.2331771  73.1899992  98.5274990  94.7899997
  73.7999992  98.1564990  95.4269997  72.3529992  98.1064990  94.9859997
  73.1603704  98.4197942  94.9037077  35.7219992  25.2404990  86.3359997
  36.6549992  25.4524990  86.3019997  35.4869992  25.3414990  87.2589997
  35.8178357  25.2831303  86.4560232  72.8219992 100.0824990  99.7559997
  73.1019992  99.1754990  99.8809997  73.5809992 100.5164990  99.3669997
  72.9629471 100.0170654  99.7205052  73.4339992 100.6644990 105.1919997
  74.3669992 100.8764990 105.1579997  73.1989992 100.7654990 106.1149997
  73.5298357 100.7071303 105.3120232  73.4629992 101.4014990 107.9679997
  72.6199992 101.6694990 108.3339997  73.9059992 102.2234990 107.7569997
  73.4074358 101.5493294 107.9895999  73.4359992  97.3454990  99.8049997
  73.6179992  96.8964990 100.6299997  72.8359992  96.7614990  99.3409997
  73.3798187  97.2050563  99.8552721  58.9659992  98.1614990 104.3359997
  59.4109992  97.3694990 104.6379997  59.4319992  98.8774990 104.7669997
  59.0899059  98.1499485 104.4356061  57.2699992 101.1604990 105.4049997
  57.7619992 100.9394990 104.6149997  57.6319992 102.0004990 105.6859997
  57.3863429 101.2438220 105.3347918  75.3019992  97.4134990  96.3329997
  75.7149992  96.6924990  95.8569997  75.9839992  98.0824990  96.3909997
  75.4505712  97.4054304  96.2758247  57.5829992  97.4184990  99.4599997
  56.6579992  97.6264990  99.3299997  58.0369992  97.9024990  98.7699997
  57.5177401  97.5123895  99.3489433  72.3539992 112.4024990 101.4049997
  73.0059992 112.0544990 100.7969997  72.8649992 112.8904990 102.0509997
  72.5122872 112.4208248 101.4090964  57.5469992  96.1564990 107.8039997
  56.8819992  95.9104990 108.4469997  57.1039992  96.7784990 107.2269997
  57.3961168  96.2069225 107.8139830  35.7509992  25.9774990  89.1119997
  34.9079992  26.2454990  89.4779997  36.1939992  26.7994990  88.9009997
  35.6954358  26.1253294  89.1335999  62.6929992 110.3054990 108.2069997
  62.2679992 111.1154990 107.9239997  63.5969992 110.3914990 107.9049997
  62.7571002 110.4278728 108.1274798  74.2669992  95.5804990 109.4899997
  73.4539992  95.9054990 109.1019997  74.4999992  94.8194990 108.9569997
  74.1872566  95.5221570 109.3649196  60.0949992 113.5624990 108.2539997
  59.3739992 114.0024990 107.8029997  59.7289992 113.3114990 109.1029997
  59.9469785 113.5887691 108.3069849  62.5619992 113.1624990 107.2839997
  61.6969992 113.2344990 107.6879997  62.5069992 113.7094990 106.4999997
  62.4362066 113.2462678 107.2333371  67.2729992 113.0504990 106.4599997
  66.8159992 113.5794990 105.8059997  67.4349992 113.6534990 107.1849997
  67.2323919 113.2043990 106.4685740  69.5999992 111.9284990 107.4049997
  68.6959992 112.0934990 107.1389997  70.0289992 112.7814990 107.3389997
  69.5342017 112.0664184 107.3596495  72.2039992 113.4984990 107.6999997
  72.0229992 114.4144990 107.4889997  72.3809992 113.0874990 106.8529997
  72.2031377 113.5683365 107.5567178  59.5099992 112.1854990 105.1649997
  59.4909992 111.7594990 106.0219997  60.3139992 111.8664990 104.7559997
  59.6161393 112.0840297 105.2270155  61.6509992 110.8954990 103.8199997
  61.4319992 109.9784990 103.9889997  62.4749992 111.0354990 104.2859997
  61.7324637 110.7889586 103.9061414  64.1879992 111.3654990 104.6679997
  64.4009992 110.4774990 104.3809997  64.2529992 111.3304990 105.6229997
  64.2259075 111.2393318 104.7577355  20.0319992  24.4244990  92.5889997
  20.9519992  24.3024990  92.8249997  19.5829992  23.6744990  92.9779997
  20.0971561  24.3063720  92.6739015  67.6969992  97.0294990 103.8129997
  67.0219992  96.3994990 104.0679997  68.2609992  96.5454990 103.2099997
  67.6809558  96.8779283 103.7663451  72.8389992  95.1364990 103.9249997
  73.4429992  95.6844990 103.4239997  71.9699992  95.4554990 103.6849997
  72.8041126  95.2547070 103.8239180  74.5659992  96.2754990 102.2589997
  75.1779992  95.7614990 101.7319997  74.9489992  97.1524990 102.2819997
  74.7013867  96.3237613 102.1900888  60.0229992  95.6634990 101.6349997
  59.2459992  95.4284990 101.1269997  60.5539992  94.8664990 101.6439997
  59.9884443  95.5236721 101.5667200  58.8599992  95.4614990  97.4379997
  59.2989992  96.0724990  96.8469997  58.2259992  95.9994990  97.9119997
  58.8344103  95.6179233  97.4211376  64.6029992  95.5894990 101.4479997
  65.4769992  95.9784990 101.4179997  64.4669992  95.3744990 102.3709997
  64.7043125  95.6137120 101.5686523  70.1589992  95.6194990 103.0969997
  70.2359992  95.7154990 102.1479997  69.8839992  94.7124990 103.2259997
  70.1323407  95.5099188 102.9843532  71.5129992  95.6454990  98.7899997
  70.8099992  96.2604990  98.5799997  71.0679992  94.8084990  98.9209997
  71.3566550  95.6164679  98.7789819  58.7609992 111.4094990  98.3359997
  58.0759992 111.3714990  97.6679997  58.7639992 112.3214990  98.6239997
  58.6677358 111.5276744  98.2836145  60.7209992  97.3774990  95.8809997
  61.2119992  96.7474990  95.3529997  61.3439992  97.6734990  96.5439997
  60.8725459  97.3312419  95.8983667  38.0339992  19.9574990  94.4659997
  38.3839992  19.3034990  93.8599997  38.1809992  20.7944990  94.0259997
  38.1017192  19.9812545  94.3236712  65.7469992  97.6704990  98.3379997
  65.9249992  97.0234990  99.0209997  65.6929992  98.5044990  98.8049997
  65.7640678  97.6946615  98.4946283  67.6249992 112.6184990  96.7329997
  68.4909992 112.9854990  96.5549997  67.3779992 112.1794990  95.9199997
  67.7102041 112.6093648  96.5985958  74.3339992 112.1814990  99.4129997
  74.1399992 111.4334990  98.8479997  74.2949992 112.9394990  98.8289997
  74.3021907 112.1815770  99.2568077  60.5789992 112.3294990  95.3609997
  60.3109992 112.6154990  96.2339997  61.3499992 111.7834990  95.5129997
  60.6465600 112.2948341  95.5011482  87.9579992 104.8194990 101.5929997
  88.0469992 105.7634990 101.4609997  87.3189992 104.5444990 100.9349997
  87.8838319 104.9114984 101.4860276  86.8909992 104.0744990 105.0119997
  86.8519992 103.4284990 105.7169997  86.5679992 103.6074990 104.2409997
  86.8420199 103.9230089 105.0042865  79.2589992 103.6884990 106.6049997
  79.2999992 103.0634990 107.3289997  79.9619992 104.3124990 106.7869997
  79.3596054 103.6873262 106.7286311  90.5969992 107.0134990 103.3139997
  90.1559992 106.2934990 103.7639997  90.5839992 107.7344990 103.9439997
  90.5348398 107.0123187 103.4607734  80.1829992 108.1384990 105.1399997
  79.8129992 107.3364990 104.7709997  81.1239992 107.9704990 105.1869997
  80.2595630 108.0058680 105.0957873  76.7929992 101.7984990 100.5329997
  76.3449992 102.6444990 100.5149997  76.2319992 101.2194990 100.0179997
  76.6558546 101.8359004 100.4608874  35.7239992  21.9214990  80.9489997
  35.9059992  21.4724990  81.7739997  35.1239992  21.3374990  80.4849997
  35.6678187  21.7810563  80.9992721  77.5029992 103.9604990 102.6589997
  77.7169992 103.1904990 103.1859997  78.2409992 104.0504990 102.0559997
  77.6320073 103.8673546 102.6495786  87.7079992 112.1174990 103.5259997
  88.3279992 111.4414990 103.2529997  87.4999992 111.8994990 104.4339997
  87.7647360 111.9954792 103.6114387  85.2799992 106.5064990 105.4179997
  85.5839992 105.8204990 104.8239997  86.0019992 106.6254990 106.0359997
  85.4191152 106.4287201 105.4202106  93.9429992  98.1084990 106.2789997
  93.9919992  98.7184990 107.0149997  94.3689992  98.5694990 105.5559997
  94.0072851  98.2543266 106.2820532  88.4209992 100.9004990 105.7459997
  88.5629992  99.9544990 105.7659997  88.3149992 101.1074990 104.8169997
  88.4261158 100.7989722 105.6232241  81.5759992  99.0024990 103.0179997
  81.6189992  99.8624990 102.5999997  81.1179992  98.4494990 102.3849997
  81.5199613  99.0455689 102.8751276  89.2979992  99.1334990 101.4189997
  89.9439992  98.8044990 102.0439997  89.8079992  99.6504990 100.7959997
  89.4554392  99.1583710 101.4203248  78.1959992 101.3994990 103.7799997
  78.8499992 100.8494990 104.2119997  78.2199992 101.1254990 102.8639997
  78.2887022 101.2872005 103.7151698  83.3519992 102.9494990 102.9959997
  83.9679992 102.4224990 103.5049997  82.7659992 102.3094990 102.5919997
  83.3570652 102.7908919 103.0110277  94.3349992  99.5864990 108.5149997
  93.6459992 100.2444990 108.4199997  94.3499992  99.3884990 109.4519997
  94.2427756  99.6497614 108.6285795  21.2539992  22.7374990  85.4799997
  21.6989992  21.9454990  85.7819997  21.7199992  23.4534990  85.9109997
  21.3779059  22.7259485  85.5796061  80.3859992  97.9204990 107.0919997
  80.1669992  98.4504990 106.3259997  79.7179992  98.1464990 107.7399997
  80.2657271  98.0236508 107.0746206  87.7549992 107.4204990 100.6359997
  87.4589992 107.0974990  99.7849997  87.4309992 108.3204990 100.6779997
  87.6706501 107.4979058 100.5250893  82.9549992 105.5954990 107.3799997
  82.2149992 106.1944990 107.4829997  83.6689992 106.1494990 107.0639997
  82.9503288 105.7522368 107.3513787  91.0619992  98.4244990 103.3999997
  90.8469992  97.6584990 103.9319997  91.7179992  98.8964990 103.9129997
  91.1212451  98.3834472 103.5421699  79.9799992  99.8124990 105.0449997
  80.5929992 100.4454990 105.4179997  80.4919992  99.3404990 104.3879997
  80.1331680  99.8354006 105.0072830  81.3619992 107.5604990 108.1669997
  81.3569992 108.4394990 107.7889997  80.5089992 107.4764990 108.5919997
  81.2459199 107.6695901 108.1726942  77.4839992 107.2314990  98.9489997
  77.2119992 107.4604990  98.0599997  77.5289992 108.0684990  99.4089997
  77.4528709 107.3761069  98.8896089  91.1089992 108.8524990 105.6619997
  90.1669992 108.9114990 105.8229997  91.3849992 109.7584990 105.5249997
  91.0175771 108.9830270 105.6654827  91.4089992  97.1394990 107.0789997
  90.6729992  97.7494990 107.0409997  92.0929992  97.5544990 106.5529997
  91.4005885  97.2791924 107.0026931  84.4119992  95.2254990 104.5449997
  84.2949992  94.2774990 104.4909997  83.5569992  95.5584990 104.8179997
  84.2803691  95.1405842 104.5745072  19.5579992  25.7364990  86.5489997
  20.0499992  25.5154990  85.7589997  19.9199992  26.5764990  86.8299997
  19.6743428  25.8198220  86.4787918  89.3609992 110.6334990 102.2869997
  89.7859992 109.9264990 101.8019997  89.6779992 111.4354990 101.8699997
  89.4620266 110.6450201 102.1642461  90.5199992 108.5344990 100.7959997
  90.2629992 107.8444990 100.1839997  90.5909992 108.0914990 101.6409997
  90.4944322 108.3801568 100.8265372  92.2059992 107.1014990 109.2729997
  92.3459992 106.5094990 108.5339997  92.3739992 107.9744990 108.9169997
  92.2478734 107.1384041 109.1236937  86.6789992 104.0634990  99.0449997
  85.9669992 104.5984990  98.6939997  87.3699992 104.1184990  98.3849997
  86.6748696 104.1442591  98.9076372  86.7329992 102.5204990  96.0839997
  87.4339992 102.5434990  96.7349997  87.0349992 101.8924990  95.4279997
  86.8698282 102.4387350  96.0844478  94.0479992 103.4414990 107.3389997
  93.3959992 104.1354990 107.4279997  94.5129992 103.6514990 106.5289997
  94.0215357 103.5649544 107.2417056  90.0849992 104.2724990  99.9969997
  89.3529992 104.5014990 100.5699997  90.5319992 103.5594990 100.4519997
  90.0452753 104.2073984 100.1369698  89.9819992 102.4474990 109.0649997
  90.0619992 103.2104990 109.6369997  89.3809992 102.7264990 108.3739997
  89.9117115 102.5897707 109.0499631  81.7299992 104.9034990 101.8799997
  81.3999992 104.5324990 101.0609997  82.3179992 104.2324990 102.2259997
  81.7644056 104.7621257 101.8149035  83.0969992 108.3314990 104.5609997
  83.0019992 107.7524990 103.8039997  83.8259992 107.9604990 105.0569997
  83.1826161 108.2020902 104.5245192  37.5539992  22.0664990  92.8149997
  36.6369992  22.3374990  92.7789997  37.6769992  21.5314990  92.0309997
  37.4450828  22.0312711  92.7040767  82.0969992 103.6714990 105.5129997
  82.6619992 103.7934990 104.7499997  82.4149992 104.3094990 106.1519997
  82.2173430 103.7744448 105.4949094  88.4059992 109.1754990 106.2469997
  88.1649992 109.8374990 106.8949997  88.2079992 108.3404990 106.6719997
  88.3462662 109.1532704 106.3931008  88.9559992 103.4354990  97.6819997
  89.5349992 103.5854990  98.4289997  89.3699992 103.9054990  96.9589997
  89.0913122 103.5196288  97.6865024  79.8969992 104.2694990 109.4589997
  79.9669992 104.9204990 110.1569997  79.0059992 104.3724990 109.1239997
  79.7861802 104.3724769 109.5092231  86.6819992 110.1714990 101.1179997
  87.1559992 110.4674990 101.8949997  86.1189992 110.9104990 100.8839997
  86.6708460 110.3118336 101.1927626  92.6539992  95.1854990  97.4949997
  91.7539992  95.3234990  97.7899997  92.9059992  96.0164990  97.0929997
  92.5647355  95.3168200  97.4810539  80.7199992 103.9724990  99.4689997
  80.4279992 104.7404990  98.9779997  80.0459992 103.3134990  99.3059997
  80.5888843 103.9884537  99.3797695  93.8439992 109.5514990  95.8719997
  93.9169992 110.4904990  96.0419997  94.7489992 109.2464990  95.8149997
  93.9764168 109.6388531  95.8875736  76.8129992 106.3354990 108.2839997
  76.3119992 106.3074990 107.4689997  76.8189992 105.4304990 108.5939997
  76.7451690 106.2092234 108.2142770  76.5639992 109.1164990 105.1679997
  77.5099992 108.9714990 105.1489997  76.4509992 109.9004990 105.7049997
  76.6783578 109.2026708 105.2380300  19.8709992  21.9944990  80.6039997
  18.9459992  22.2024990  80.4739997  20.3249992  22.4784990  79.9139997
  19.8057401  22.0883895  80.4929433  85.7399992 109.3564990 109.7259997
  85.8269992 110.1824990 110.2009997  84.8759992 109.0264990 109.9749997
  85.6351944 109.4249871 109.8246558  86.1539992 113.1284990  99.5319997
  86.0789992 113.0074990  98.5859997  86.1869992 114.0774990  99.6509997
  86.1481862 113.2402492  99.4184840  79.8079992 111.9174990 101.3129997
  79.9599992 111.5694990 102.1919997  78.9569992 111.5604990 101.0579997
  79.7137899 111.8216749 101.3987322  89.2559992 112.2824990  96.5349997
  89.6309992 111.5384990  96.0639997  89.2599992 112.0124990  97.4529997
  89.3078969 112.1440920  96.5946475  88.9249992 112.2084990  99.2839997
  87.9899992 112.3084990  99.4629997  89.2049992 111.4984990  99.8619997
  88.8349270 112.1262300  99.3865984  79.0619992 107.6594990 109.3269997
  79.2779992 107.2974990 110.1869997  78.2069992 107.2844990 109.1169997
  78.9759349 107.5592914 109.4162134  81.6809992  96.1294990 105.3229997
  80.8189992  96.0424990 104.9149997  81.6589992  96.9854990 105.7499997
  81.5600953  96.2333558 105.3249262  86.3439992  95.8514990 108.6969997
  86.7639992  95.4364990 109.4499997  85.4109992  95.6724990 108.8139997
  86.2753736  95.7704921 108.8158950  89.6699992  99.6064990 109.5509997
  89.1559992  99.4814990 110.3479997  89.5149992 100.5194990 109.3059997
  89.5786643  99.7127068 109.6270624  90.4329992 104.4674990  95.3119997
  90.4749992 104.2454990  94.3819997  91.2819992 104.8664990  95.5019997
  90.5535253 104.4910510  95.2103804  34.6419992  36.9784990  82.5489997
  35.2939992  36.6304990  81.9409997  35.1529992  37.4664990  83.1949997
  34.8002872  36.9968248  82.5530964  86.0059992  98.3434990  95.9819997
  85.7519992  98.3624990  96.9049997  85.7489992  97.4724990  95.6809997
  85.9365133  98.2283121  96.0675065  81.7719992 101.0944990 106.4179997
  81.1299992 101.0544990 107.1269997  81.8089992 102.0214990 106.1799997
  81.6891659 101.2142540 106.4828463  81.7689992 101.3154990 101.3299997
  80.8759992 100.9754990 101.2709997  82.2199992 100.9384990 100.5739997
  81.7077185 101.2180220 101.2197698  87.3049992 101.7314990 100.1469997
  86.8959992 102.5464990  99.8549997  88.0249992 101.5914990  99.5319997
  87.3463946 101.8239963 100.0239616  88.3089992 101.1774990 102.9609997
  88.1139992 101.7834990 102.2459997  88.4909992 100.3444990 102.5259997
  88.3069272 101.1477955 102.8044075  79.5219992 101.4154990 108.2849997
  79.4839992 101.8154990 109.1529997  79.0309992 100.5984990 108.3749997
  79.4504246 101.3598842 108.4161171  82.8879992  98.7894990  95.0829997
  82.4569992  98.3444990  95.8129997  82.1699992  99.1604990  94.5709997
  82.7319363  98.7787979  95.1136194  76.1299992  98.5314990 102.1349997
  76.7609992  98.5024990 102.8549997  76.5799992  98.1064990 101.4049997
  76.2770905  98.4700839 102.1347479  77.4039992  99.2774990  97.5589997
  77.8789992  99.8684990  96.9739997  76.6869992  99.8074990  97.9059997
  77.3720406  99.4301011  97.5258495  87.5729992 102.8154990 107.6319997
  87.8969992 102.1844990 106.9889997  87.1329992 102.2814990 108.2929997
  87.5578707 102.6568261 107.6333195  19.8349992  20.7324990  88.9479997
  19.1699992  20.4864990  89.5909997  19.3919992  21.3544990  88.3709997
  19.6841168  20.7829225  88.9579830  84.3509992  98.7434990 102.4159997
  83.4399992  98.8004990 102.7049997  84.8559992  98.6834990 103.2269997
  84.2946873  98.7431838 102.5651190  79.1789992 100.3724990 101.2429997
  78.2899992 100.4714990 100.9029997  79.4749992  99.5304990 100.8969997
  79.0974001 100.2722473 101.1497318  82.8319992 100.3724990  98.8989997
  83.7639992 100.5014990  99.0769997  82.6169992 101.0414990  98.2499997
  82.9304245 100.4806452  98.8355602  88.7559992  97.9784990 105.6799997
  88.0789992  98.1094990 106.3439997  88.2699992  97.8234990 104.8699997
  88.5977265  97.9754665 105.6613380  81.5059992 101.5664990  96.4659997
  80.9639992 101.1874990  95.7749997  82.3399992 101.7614990  96.0369997
  81.5444283 101.5409383  96.3134298  85.6709992 101.5304990 104.3029997
  86.2349992 100.9844990 103.7559997  85.5229992 101.0094990 105.0919997
  85.7283037 101.3851798 104.3347212  80.6729992  97.6674990 100.7209997
  80.3549992  96.7644990 100.6859997  81.4539992  97.6694990 100.1689997
  80.7351560  97.5441148 100.6414975  84.2969992  99.9194990 106.7169997
  83.4619992 100.3734990 106.8269997  84.8209992 100.1954990 107.4689997
  84.2535070 100.0189677 106.8337134  84.8409992 106.1324990  98.4019997
  84.0959992 105.6244990  98.0789997  84.7069992 106.1814990  99.3479997
  84.7208633 106.0695714  98.4857563  91.9909992 105.2654990 107.1879997
  92.6329992 105.7214990 106.6449997  91.1609992 105.3784990 106.7259997
  91.9667352 105.3433223 107.0510234  22.0269992  33.9074990  93.0919997
  21.2059992  34.0824990  92.6319997  21.7749992  33.8344990  94.0129997
  21.8806173  33.9215806  93.1534954  88.7389992  98.9464990  96.6009997
  87.7999992  99.0574990  96.4499997  89.0359992  99.8024990  96.9069997
  88.6506371  99.0775327  96.6217362  86.3609992 106.3164990 109.6389997
  86.0149992 105.9344990 110.4449997  86.1609992 107.2494990 109.7099997
  86.2865399 106.3903489 109.7590401  89.4569992 100.8134990  98.2619997
  90.3489992 100.6754990  98.5809997  89.5139992 101.6044990  97.7249997
  89.5867380 100.9014777  98.2330981  79.9659992 105.4274990 104.1709997
  80.7109992 105.4244990 103.5699997  80.0439992 104.6034990 104.6529997
  80.0784158 105.3157928 104.1539136  86.9669992 107.5904990  97.4269997
  86.6719992 108.4174990  97.8089997  86.2639992 106.9714990  97.6229997
  86.8315855 107.6199458  97.5057634  76.9739992 103.8874990 109.4859997
  77.1969992 103.4694990 110.3179997  76.3719992 103.2754990 109.0639997
  76.9230802 103.7475216 109.5427561  88.6109992 108.7784990 109.5889997
  87.7099992 108.9614990 109.3209997  88.6449992 109.0374990 110.5099997
  88.4923021 108.8385505 109.6768206  94.3419992 101.0224990  97.9559997
  93.7879992 100.6264990  97.2839997  94.4429992 101.9334990  97.6789997
  94.2797084 101.0913565  97.8264381  92.6369992 109.8084990  98.4209997
  92.2649992 108.9834990  98.7309997  92.9149992 109.6254990  97.5239997
  92.6235997 109.6706160  98.3421551  89.7979992 104.6164990 105.4429997
  88.8699992 104.3854990 105.4159997  90.2489992 103.8394990 105.1129997
  89.7318165 104.4797785 105.3946772  24.9809992  34.8814990  89.3509997
  24.5559992  35.6914990  89.0679997  25.8849992  34.9674990  89.0489997
  25.0451002  35.0038728  89.2714798  82.3409992 108.9454990 101.5759997
  82.8679992 109.7184990 101.3749997  81.4609992 109.1694990 101.2739997
  82.2941793 109.0816652 101.5076304  78.0959992 103.8074990  96.1629997
  78.7119992 104.4344990  96.5419997  77.2339992 104.1234990  96.4339997
  78.0638195 103.9360810  96.2515369  83.7679992 106.6084990 101.1519997
  83.5269992 107.5334990 101.1939997  83.0279992 106.1494990 101.5479997
  83.6348934 106.6730881 101.2113191  84.2829992 110.7574990 107.4669997
  84.6459992 111.6114990 107.2339997  84.8149992 110.4654990 108.2079997
  84.4045141 110.8348907 107.5352079  82.4509992 111.6294990 100.6969997
  81.5019992 111.7354990 100.7489997  82.8029992 112.4504990 101.0419997
  82.3686214 111.7549361 100.7507317  87.8269992 106.8564990 107.1679997
  87.4009992 106.6284990 107.9939997  88.4079992 106.1174990 106.9849997
  87.8471587 106.7254084 107.2564111  90.0299992 107.7854990  96.2419997
  90.3829992 107.4054990  97.0459997  89.0809992 107.6914990  96.3279997
  89.9500985 107.7207330  96.3637738  90.4859992 111.4084990 109.6369997
  89.8839992 110.8524990 109.1419997  90.7669992 112.0754990 109.0109997
  90.4415757 111.4225755 109.4845657  94.5329992 112.2644990  96.4429997
  95.2769992 112.8504990  96.3029997  93.8389992 112.8334990  96.7759997
  94.5409809 112.4215830  96.4688572  78.6079992  98.6414990 109.0439997
  77.7149992  98.9794990 108.9769997  78.5089992  97.7854990 109.4619997
  78.4725241  98.5720941 109.0912982  29.2919992  36.2804990  92.3099997
  29.4769992  35.9474990  93.1879997  30.1389992  36.5904990  91.9879997
  29.4317291  36.2768214  92.3866140  90.8959992 106.4574990  98.4679997
  90.6189992 105.7294990  99.0239997  91.8229992 106.5764990  98.6739997
  90.9834181 106.3740068  98.5718972  78.2589992 110.4454990 107.4789997
  78.4759992 109.5134990 107.4479997  78.5059992 110.7204990 108.3629997
  78.3220543 110.3550877 107.5941412  84.1209992 108.8974990  94.6889997
  84.3599992 108.1484990  94.1409997  83.8519992 108.5094990  95.5209997
  84.1172804 108.7426524  94.7266352  83.0579992 108.4674990  97.1449997
  83.2049992 107.9474990  97.9349997  83.0549992 109.3744990  97.4509997
  83.0777300 108.5188975  97.2945877  79.5109992 105.7194990  97.6549997
  78.8249992 106.0724990  98.2219997  80.0339992 106.4824990  97.4089997
  79.4879033 105.8708757  97.6992644  87.3419992  98.3824990 107.9339997
  88.0409992  98.4564990 108.5839997  86.9619992  97.5174990 108.0889997
  87.3862095  98.2757402 108.0437982  88.1269992  98.0344990  99.0309997
  88.3469992  98.5054990  98.2279997  88.6849992  98.4284990  99.7019997
  88.2325851  98.1523272  99.0116134  85.7959992 110.1644990  97.8939997
  84.9789992 110.6614990  97.9469997  86.3249992 110.6404990  97.2539997
  85.7557898 110.2968123  97.8147274  85.3269992  99.7624990  99.8659997
  86.1389992 100.2664990  99.9119997  85.0819992  99.6174990 100.7799997
  85.4051091  99.8119366  99.9958552  85.8629992 100.7484990 109.0509997
  85.9819992 101.3224990 109.8079997  86.5179992 100.0604990 109.1659997
  85.9678684 100.7340205 109.1701656  31.6369992  37.5664990  91.5539997
  32.3139992  36.9334990  91.3139997  31.9589992  37.9674990  92.3619997
  31.7731280  37.5340638  91.6303190  86.2109992  96.8434990 100.8039997
  85.8639992  97.4604990 101.4489997  86.8689992  97.3444990 100.3229997
  86.2525290  96.9956384 100.8271635  83.1339992 111.2084990  97.8759997
  83.2949992 112.0084990  97.3749997  82.9369992 111.5154990  98.7609997
  83.1293919 111.3594140  97.9270988  81.8679992  97.9064990  97.4919997
  81.7849992  98.7944990  97.8379997  82.7579992  97.6414990  97.7229997
  81.9769751  97.9922482  97.5706066  92.0669992  98.6554990 109.8859997
  91.1509992  98.9174990 109.7979997  92.4029992  98.6524990 108.9889997
  91.9869789  98.6909637 109.7527829  90.6689992 102.4054990 103.9819997
  89.8719992 101.9904990 103.6529997  91.1139992 101.7154990 104.4729997
  90.6200317 102.2553197 104.0033557  80.1269992 108.3334990  96.5519997
  80.7189992 109.0334990  96.8279997  80.5859992 107.9004990  95.8329997
  80.2701172 108.3707371  96.4925163  78.4429992 100.9984990  95.6679997
  78.3979992 101.9374990  95.8469997  77.5549992 100.7624990  95.3979997
  78.3168472 101.0951946  95.6560282  91.7559992 111.6614990 105.6039997
  91.5999992 112.3404990 104.9469997  92.6879992 111.7334990 105.8069997
  91.8607328 111.7641586 105.5415529  79.2509992  95.7794990 104.3409997
  79.0219992  95.8384990 103.4139997  78.8079992  94.9884990 104.6479997
  79.1597387  95.6806412 104.2555223  78.1809992 109.7204990 100.5019997
  77.3489992 110.1924990 100.5289997  78.7269992 110.2304990  99.9029997
  78.1408710 109.8540317 100.4247570  36.5549992  20.1564990  90.6339997
  35.7419992  20.4814990  90.2459997  36.7879992  19.3954990  90.1009997
  36.4752566  20.0981570  90.5089196  86.1589992 110.7604990  94.8269997
  85.5149992 110.1294990  95.1489997  86.9209992 110.2294990  94.5949997
  86.1738260 110.6023035  94.8397298  90.7629992 110.5774990  95.0609997
  91.0459992 109.7824990  95.5139997  91.5029992 110.8104990  94.4999997
  90.9017295 110.5002349  95.0471469  81.7179992 106.4864990  94.9179997
  81.7819992 105.6924990  95.4489997  82.3709992 106.3684990  94.2289997
  81.8151168 106.3617748  94.8975119  87.0699992 107.5334990  94.6539997
  86.8019992 107.7144990  95.5549997  86.8639992 106.6084990  94.5229997
  87.0054251 107.4331528  94.7596809  89.7669992 106.0284990 109.6019997
  90.5119992 106.6174990 109.4819997  89.0089992 106.6104990 109.6649997
  89.7665185 106.1877000 109.5940940  82.8669992 104.4594990  97.2239997
  82.4079992 103.9754990  97.9099997  83.1219992 103.7904990  96.5879997
  82.8386178 104.3028511  97.2319785  82.1559992 102.3524990 109.5799997
  81.5379992 103.0264990 109.8609997  82.4999992 102.6734990 108.7469997
  82.1178181 102.4883233 109.5058266  83.9379992 102.7024990  95.4869997
  83.7579992 102.5474990  94.5589997  84.8879992 102.8104990  95.5309997
  84.0418016 102.6959264  95.3662123  93.3279992 105.0564990  94.9319997
  93.0549992 104.6324990  94.1189997  93.3679992 105.9884990  94.7149997
  93.2960201 105.1243523  94.7913548  82.9079992  98.0764990 108.1549997
  83.4439992  98.5284990 107.5029997  82.0559992  97.9684990 107.7329997
  82.8661648  98.1237883 108.0086395  22.3829992  38.1384990  89.3979997
  21.6619992  38.5784990  88.9469997  22.0169992  37.8874990  90.2469997
  22.2349785  38.1647691  89.4509849  84.4899992 103.5164990 108.3949997
  85.2409992 103.3604990 107.8219997  84.1509992 104.3684990 108.1189997
  84.5469052 103.6102745 108.2793469  83.7139992  95.5334990 108.5869997
  83.6159992  96.4794990 108.4809997  82.9709992  95.1604990 108.1109997
  83.6002363  95.6125987 108.5082029  83.8359992 113.3924990  96.4879997
  84.7689992 113.5504990  96.6319997  83.5709992 114.0684990  95.8629997
  83.9279846 113.5054567  96.4232930  77.4039992 108.0294990  95.9709997
  78.3179992 108.1084990  96.2439997  77.4109992 107.3424990  95.3039997
  77.5300769 107.9474735  95.9182366  76.0529992 113.4224990 101.0479997
  75.4059992 112.9604990 100.5149997  76.4079992 112.7504990 101.6309997
  76.0123861 113.2684707 101.0537939  76.9229992 111.5024990 102.8529997
  76.5889992 110.6224990 103.0249997  77.1449992 111.8484990 103.7169997
  76.9072677 111.4287365 102.9934252  94.4719992 112.3124990 105.8329997
  94.4499992 112.4974990 106.7719997  95.1619992 112.8804990 105.4919997
  94.5623439 112.4146898 105.9154774  94.0349992 111.8794990 108.7549997
  93.5479992 111.1434990 108.3839997  94.5839992 111.4854990 109.4329997
  94.0426101 111.7256267 108.7959034  93.7869992 105.9254990  98.9069997
  94.6369992 106.3464990  99.0349997  93.7919992 105.1854990  99.5149997
  93.9039745 105.8831347  99.0066479  94.1809992 103.9794990 100.7309997
  93.4549992 103.4994990 101.1289997  94.7619992 104.1844990 101.4629997
  94.1602504 103.9415592 100.8844199  24.8499992  37.7384990  88.4279997
  23.9849992  37.8104990  88.8319997  24.7949992  38.2854990  87.6439997
  24.7242066  37.8222678  88.3773371  93.9399992 106.7644990 105.6789997
  94.7739992 106.3864990 105.3979997  94.0519992 107.7074990 105.5599997
  94.0691917 106.8402954 105.6244844  92.4259992 109.6424990 107.9859997
  91.7789992 109.9674990 108.6109997  91.9089992 109.2014990 107.3109997
  92.2674068 109.6274726 107.9804918  94.4489992 103.8804990  97.1219997
  93.9279992 104.2364990  96.4029997  94.4159992 104.5554990  97.7999997
  94.3731525 104.0205273  97.1151408  92.7979992 101.1194990  95.6729997
  92.8949992 101.7864990  94.9929997  92.6579992 100.3044990  95.1909997
  92.7923428 101.1005667  95.5148311  91.9679992 102.5004990 101.2939997
  91.8179992 101.5554990 101.2739997  91.6139992 102.7814990 102.1379997
  91.8996351 102.4091656 101.4053202  77.0029992 104.5784990 105.3039997
  77.1869992 104.4964990 104.3689997  77.8519992 104.4544990 105.7279997
  77.1430259 104.5504915 105.2331771  92.0459992  98.5274990  94.7899997
  92.6559992  98.1564990  95.4269997  91.2089992  98.1064990  94.9859997
  92.0163704  98.4197942  94.9037077  91.6779992 100.0824990  99.7559997
  91.9579992  99.1754990  99.8809997  92.4369992 100.5164990  99.3669997
  91.8189471 100.0170654  99.7205051  92.2899992 100.6644990 105.1919997
  93.2229992 100.8764990 105.1579997  92.0549992 100.7654990 106.1149997
  92.3858357 100.7071303 105.3120232  92.3189992 101.4014990 107.9679997
  91.4759992 101.6694990 108.3339997  92.7619992 102.2234990 107.7569997
  92.2634358 101.5493294 107.9895999  29.5609992  37.6264990  87.6039997
  29.1039992  38.1554990  86.9499997  29.7229992  38.2294990  88.3289997
  29.5203919  37.7803990  87.6125740  92.2919992  97.3454990  99.8049997
  92.4739992  96.8964990 100.6299997  91.6919992  96.7614990  99.3409997
  92.2358187  97.2050563  99.8552721  77.8219992  98.1614990 104.3359997
  78.2669992  97.3694990 104.6379997  78.2879992  98.8774990 104.7669997
  77.9459059  98.1499485 104.4356061  76.1259992 101.1604990 105.4049997
  76.6179992 100.9394990 104.6149997  76.4879992 102.0004990 105.6859997
  76.2423429 101.2438220 105.3347918  94.1579992  97.4134990  96.3329997
  94.5709992  96.6924990  95.8569997  94.8399992  98.0824990  96.3909997
  94.3065712  97.4054304  96.2758247  76.4389992  97.4184990  99.4599997
  75.5139992  97.6264990  99.3299997  76.8929992  97.9024990  98.7699997
  76.3737401  97.5123895  99.3489433  91.2099992 112.4024990 101.4049997
  91.8619992 112.0544990 100.7969997  91.7209992 112.8904990 102.0509997
  91.3682872 112.4208248 101.4090964  76.4029992  96.1564990 107.8039997
  75.7379992  95.9104990 108.4469997  75.9599992  96.7784990 107.2269997
  76.2521168  96.2069225 107.8139830  81.5489992 110.3054990 108.2069997
  81.1239992 111.1154990 107.9239997  82.4529992 110.3914990 107.9049997
  81.6131002 110.4278728 108.1274798  93.1229992  95.5804990 109.4899997
  92.3099992  95.9054990 109.1019997  93.3559992  94.8194990 108.9569997
  93.0432566  95.5221570 109.3649196  78.9509992 113.5624990 108.2539997
  78.2299992 114.0024990 107.8029997  78.5849992 113.3114990 109.1029997
  78.8029785 113.5887691 108.3069849  31.8879992  36.5044990  88.5489997
  30.9839992  36.6694990  88.2829997  32.3169992  37.3574990  88.4829997
  31.8222017  36.6424184  88.5036495  81.4179992 113.1624990 107.2839997
  80.5529992 113.2344990 107.6879997  81.3629992 113.7094990 106.4999997
  81.2922066 113.2462678 107.2333371  86.1289992 113.0504990 106.4599997
  85.6719992 113.5794990 105.8059997  86.2909992 113.6534990 107.1849997
  86.0883919 113.2043990 106.4685740  88.4559992 111.9284990 107.4049997
  87.5519992 112.0934990 107.1389997  88.8849992 112.7814990 107.3389997
  88.3902017 112.0664184 107.3596495  91.0599992 113.4984990 107.6999997
  90.8789992 114.4144990 107.4889997  91.2369992 113.0874990 106.8529997
  91.0591377 113.5683365 107.5567178  78.3659992 112.1854990 105.1649997
  78.3469992 111.7594990 106.0219997  79.1699992 111.8664990 104.7559997
  78.4721393 112.0840297 105.2270155  80.5069992 110.8954990 103.8199997
  80.2879992 109.9784990 103.9889997  81.3309992 111.0354990 104.2859997
  80.5884637 110.7889586 103.9061414  83.0439992 111.3654990 104.6679997
  83.2569992 110.4774990 104.3809997  83.1089992 111.3304990 105.6229997
  83.0819075 111.2393318 104.7577355  86.5529992  97.0294990 103.8129997
  85.8779992  96.3994990 104.0679997  87.1169992  96.5454990 103.2099997
  86.5369558  96.8779283 103.7663451  91.6949992  95.1364990 103.9249997
  92.2989992  95.6844990 103.4239997  90.8259992  95.4554990 103.6849997
  91.6601126  95.2547070 103.8239180  93.4219992  96.2754990 102.2589997
  94.0339992  95.7614990 101.7319997  93.8049992  97.1524990 102.2819997
  93.5573867  96.3237613 102.1900888  34.4919992  38.0744990  88.8439997
  34.3109992  38.9904990  88.6329997  34.6689992  37.6634990  87.9969997
  34.4911377  38.1443365  88.7007178  78.8789992  95.6634990 101.6349997
  78.1019992  95.4284990 101.1269997  79.4099992  94.8664990 101.6439997
  78.8444443  95.5236721 101.5667200  77.7159992  95.4614990  97.4379997
  78.1549992  96.0724990  96.8469997  77.0819992  95.9994990  97.9119997
  77.6904103  95.6179233  97.4211376  83.4589992  95.5894990 101.4479997
  84.3329992  95.9784990 101.4179997  83.3229992  95.3744990 102.3709997
  83.5603125  95.6137120 101.5686523  89.0149992  95.6194990 103.0969997
  89.0919992  95.7154990 102.1479997  88.7399992  94.7124990 103.2259997
  88.9883407  95.5099188 102.9843532  90.3689992  95.6454990  98.7899997
  89.6659992  96.2604990  98.5799997  89.9239992  94.8084990  98.9209997
  90.2126550  95.6164679  98.7789819  77.6169992 111.4094990  98.3359997
  76.9319992 111.3714990  97.6679997  77.6199992 112.3214990  98.6239997
  77.5237358 111.5276744  98.2836145  79.5769992  97.3774990  95.8809997
  80.0679992  96.7474990  95.3529997  80.1999992  97.6734990  96.5439997
  79.7285459  97.3312419  95.8983667  84.6029992  97.6704990  98.3379997
  84.7809992  97.0234990  99.0209997  84.5489992  98.5044990  98.8049997
  84.6200678  97.6946615  98.4946283  86.4809992 112.6184990  96.7329997
  87.3469992 112.9854990  96.5549997  86.2339992 112.1794990  95.9199997
  86.5662041 112.6093648  96.5985958  93.1899992 112.1814990  99.4129997
  92.9959992 111.4334990  98.8479997  93.1509992 112.9394990  98.8289997
  93.1581907 112.1815770  99.2568077  21.7979992  36.7614990  86.3089997
  21.7789992  36.3354990  87.1659997  22.6019992  36.4424990  85.8999997
  21.9041393  36.6600297  86.3710155  79.4349992 112.3294990  95.3609997
  79.1669992 112.6154990  96.2339997  80.2059992 111.7834990  95.5129997
  79.5025600 112.2948341  95.5011482 106.8139992 104.8194990 101.5929997
 106.9029992 105.7634990 101.4609997 106.1749992 104.5444990 100.9349997
 106.7398319 104.9114984 101.4860276 105.7469992 104.0744990 105.0119997
 105.7079992 103.4284990 105.7169997 105.4239992 103.6074990 104.2409997
 105.6980199 103.9230089 105.0042865  98.1149992 103.6884990 106.6049997
  98.1559992 103.0634990 107.3289997  98.8179992 104.3124990 106.7869997
  98.2156054 103.6873262 106.7286311 109.4529992 107.0134990 103.3139997
 109.0119992 106.2934990 103.7639997 109.4399992 107.7344990 103.9439997
 109.3908398 107.0123187 103.4607734  99.0389992 108.1384990 105.1399997
  98.6689992 107.3364990 104.7709997  99.9799992 107.9704990 105.1869997
  99.1155630 108.0058680 105.0957873  95.6489992 101.7984990 100.5329997
  95.2009992 102.6444990 100.5149997  95.0879992 101.2194990 100.0179997
  95.5118546 101.8359004 100.4608874  96.3589992 103.9604990 102.6589997
  96.5729992 103.1904990 103.1859997  97.0969992 104.0504990 102.0559997
  96.4880073 103.8673546 102.6495786 106.5639992 112.1174990 103.5259997
 107.1839992 111.4414990 103.2529997 106.3559992 111.8994990 104.4339997
 106.6207360 111.9954792 103.6114387 104.1359992 106.5064990 105.4179997
 104.4399992 105.8204990 104.8239997 104.8579992 106.6254990 106.0359997
 104.2751152 106.4287201 105.4202106  23.9389992  35.4714990  84.9639997
  23.7199992  34.5544990  85.1329997  24.7629992  35.6114990  85.4299997
  24.0204637  35.3649586  85.0501414 112.7989992  98.1084990 106.2789997
 112.8479992  98.7184990 107.0149997 113.2249992  98.5694990 105.5559997
 112.8632851  98.2543266 106.2820532 107.2769992 100.9004990 105.7459997
 107.4189992  99.9544990 105.7659997 107.1709992 101.1074990 104.8169997
 107.2821158 100.7989722 105.6232241 100.4319992  99.0024990 103.0179997
 100.4749992  99.8624990 102.5999997  99.9739992  98.4494990 102.3849997
 100.3759613  99.0455689 102.8751276 108.1539992  99.1334990 101.4189997
 108.7999992  98.8044990 102.0439997 108.6639992  99.6504990 100.7959997
 108.3114392  99.1583710 101.4203248  97.0519992 101.3994990 103.7799997
  97.7059992 100.8494990 104.2119997  97.0759992 101.1254990 102.8639997
  97.1447022 101.2872005 103.7151698 102.2079992 102.9494990 102.9959997
 102.8239992 102.4224990 103.5049997 101.6219992 102.3094990 102.5919997
 102.2130652 102.7908919 103.0110277 113.1909992  99.5864990 108.5149997
 112.5019992 100.2444990 108.4199997 113.2059992  99.3884990 109.4519997
 113.0987756  99.6497614 108.6285795  99.2419992  97.9204990 107.0919997
  99.0229992  98.4504990 106.3259997  98.5739992  98.1464990 107.7399997
  99.1217271  98.0236508 107.0746206 106.6109992 107.4204990 100.6359997
 106.3149992 107.0974990  99.7849997 106.2869992 108.3204990 100.6779997
 106.5266501 107.4979058 100.5250893 101.8109992 105.5954990 107.3799997
 101.0709992 106.1944990 107.4829997 102.5249992 106.1494990 107.0639997
 101.8063288 105.7522368 107.3513787  26.4759992  35.9414990  85.8119997
  26.6889992  35.0534990  85.5249997  26.5409992  35.9064990  86.7669997
  26.5139075  35.8153318  85.9017355 109.9179992  98.4244990 103.3999997
 109.7029992  97.6584990 103.9319997 110.5739992  98.8964990 103.9129997
 109.9772451  98.3834472 103.5421699  98.8359992  99.8124990 105.0449997
  99.4489992 100.4454990 105.4179997  99.3479992  99.3404990 104.3879997
  98.9891680  99.8354006 105.0072830 100.2179992 107.5604990 108.1669997
 100.2129992 108.4394990 107.7889997  99.3649992 107.4764990 108.5919997
 100.1019199 107.6695901 108.1726942  96.3399992 107.2314990  98.9489997
  96.0679992 107.4604990  98.0599997  96.3849992 108.0684990  99.4089997
  96.3088709 107.3761069  98.8896089 109.9649992 108.8524990 105.6619997
 109.0229992 108.9114990 105.8229997 110.2409992 109.7584990 105.5249997
 109.8735771 108.9830270 105.6654827 110.2649992  97.1394990 107.0789997
 109.5289992  97.7494990 107.0409997 110.9489992  97.5544990 106.5529997
 110.2565885  97.2791924 107.0026931 103.2679992  95.2254990 104.5449997
 103.1509992  94.2774990 104.4909997 102.4129992  95.5584990 104.8179997
 103.1363691  95.1405842 104.5745072 108.2169992 110.6334990 102.2869997
 108.6419992 109.9264990 101.8019997 108.5339992 111.4354990 101.8699997
 108.3180266 110.6450201 102.1642461 109.3759992 108.5344990 100.7959997
 109.1189992 107.8444990 100.1839997 109.4469992 108.0914990 101.6409997
 109.3504322 108.3801568 100.8265372 111.0619992 107.1014990 109.2729997
 111.2019992 106.5094990 108.5339997 111.2299992 107.9744990 108.9169997
 111.1038734 107.1384041 109.1236937  29.9849992  21.6054990  84.9569997
  29.3099992  20.9754990  85.2119997  30.5489992  21.1214990  84.3539997
  29.9689558  21.4539283  84.9103451 105.5349992 104.0634990  99.0449997
 104.8229992 104.5984990  98.6939997 106.2259992 104.1184990  98.3849997
 105.5308696 104.1442591  98.9076372 105.5889992 102.5204990  96.0839997
 106.2899992 102.5434990  96.7349997 105.8909992 101.8924990  95.4279997
 105.7258282 102.4387350  96.0844478 112.9039992 103.4414990 107.3389997
 112.2519992 104.1354990 107.4279997 113.3689992 103.6514990 106.5289997
 112.8775357 103.5649544 107.2417056 108.9409992 104.2724990  99.9969997
 108.2089992 104.5014990 100.5699997 109.3879992 103.5594990 100.4519997
 108.9012753 104.2073984 100.1369698 108.8379992 102.4474990 109.0649997
 108.9179992 103.2104990 109.6369997 108.2369992 102.7264990 108.3739997
 108.7677115 102.5897707 109.0499631 100.5859992 104.9034990 101.8799997
 100.2559992 104.5324990 101.0609997 101.1739992 104.2324990 102.2259997
 100.6204056 104.7621257 101.8149035 101.9529992 108.3314990 104.5609997
 101.8579992 107.7524990 103.8039997 102.6819992 107.9604990 105.0569997
 102.0386161 108.2020902 104.5245192 100.9529992 103.6714990 105.5129997
 101.5179992 103.7934990 104.7499997 101.2709992 104.3094990 106.1519997
 101.0733430 103.7744448 105.4949094 107.2619992 109.1754990 106.2469997
 107.0209992 109.8374990 106.8949997 107.0639992 108.3404990 106.6719997
 107.2022662 109.1532704 106.3931008 107.8119992 103.4354990  97.6819997
 108.3909992 103.5854990  98.4289997 108.2259992 103.9054990  96.9589997
 107.9473122 103.5196288  97.6865024  35.1269992  19.7124990  85.0689997
  35.7309992  20.2604990  84.5679997  34.2579992  20.0314990  84.8289997
  35.0921126  19.8307070  84.9679180  98.7529992 104.2694990 109.4589997
  98.8229992 104.9204990 110.1569997  97.8619992 104.3724990 109.1239997
  98.6421802 104.3724769 109.5092231 105.5379992 110.1714990 101.1179997
 106.0119992 110.4674990 101.8949997 104.9749992 110.9104990 100.8839997
 105.5268460 110.3118336 101.1927626 111.5099992  95.1854990  97.4949997
 110.6099992  95.3234990  97.7899997 111.7619992  96.0164990  97.0929997
 111.4207355  95.3168200  97.4810539  99.5759992 103.9724990  99.4689997
  99.2839992 104.7404990  98.9779997  98.9019992 103.3134990  99.3059997
  99.4448843 103.9884537  99.3797695 112.6999992 109.5514990  95.8719997
 112.7729992 110.4904990  96.0419997 113.6049992 109.2464990  95.8149997
 112.8324168 109.6388531  95.8875736  95.6689992 106.3354990 108.2839997
  95.1679992 106.3074990 107.4689997  95.6749992 105.4304990 108.5939997
  95.6011690 106.2092234 108.2142770  95.4199992 109.1164990 105.1679997
  96.3659992 108.9714990 105.1489997  95.3069992 109.9004990 105.7049997
  95.5343578 109.2026708 105.2380300 104.5959992 109.3564990 109.7259997
 104.6829992 110.1824990 110.2009997 103.7319992 109.0264990 109.9749997
 104.4911944 109.4249871 109.8246558 105.0099992 113.1284990  99.5319997
 104.9349992 113.0074990  98.5859997 105.0429992 114.0774990  99.6509997
 105.0041862 113.2402492  99.4184840  98.6639992 111.9174990 101.3129997
  98.8159992 111.5694990 102.1919997  97.8129992 111.5604990 101.0579997
  98.5697899 111.8216749 101.3987322  36.8539992  20.8514990  83.4029997
  37.4659992  20.3374990  82.8759997  37.2369992  21.7284990  83.4259997
  36.9893867  20.8997613  83.3340888 108.1119992 112.2824990  96.5349997
 108.4869992 111.5384990  96.0639997 108.1159992 112.0124990  97.4529997
 108.1638969 112.1440920  96.5946475 107.7809992 112.2084990  99.2839997
 106.8459992 112.3084990  99.4629997 108.0609992 111.4984990  99.8619997
 107.6909270 112.1262300  99.3865984  97.9179992 107.6594990 109.3269997
  98.1339992 107.2974990 110.1869997  97.0629992 107.2844990 109.1169997
  97.8319349 107.5592914 109.4162134 100.5369992  96.1294990 105.3229997
  99.6749992  96.0424990 104.9149997 100.5149992  96.9854990 105.7499997
 100.4160953  96.2333558 105.3249262 105.1999992  95.8514990 108.6969997
 105.6199992  95.4364990 109.4499997 104.2669992  95.6724990 108.8139997
 105.1313736  95.7704921 108.8158950 108.5259992  99.6064990 109.5509997
 108.0119992  99.4814990 110.3479997 108.3709992 100.5194990 109.3059997
 108.4346643  99.7127068 109.6270624 109.2889992 104.4674990  95.3119997
 109.3309992 104.2454990  94.3819997 110.1379992 104.8664990  95.5019997
 109.4095253 104.4910510  95.2103804 104.8619992  98.3434990  95.9819997
 104.6079992  98.3624990  96.9049997 104.6049992  97.4724990  95.6809997
 104.7925133  98.2283121  96.0675065 100.6279992 101.0944990 106.4179997
  99.9859992 101.0544990 107.1269997 100.6649992 102.0214990 106.1799997
 100.5451659 101.2142540 106.4828463 100.6249992 101.3154990 101.3299997
  99.7319992 100.9754990 101.2709997 101.0759992 100.9384990 100.5739997
 100.5637185 101.2180220 101.2197698  22.3109992  20.2394990  82.7789997
  21.5339992  20.0044990  82.2709997  22.8419992  19.4424990  82.7879997
  22.2764443  20.0996721  82.7107200 106.1609992 101.7314990 100.1469997
 105.7519992 102.5464990  99.8549997 106.8809992 101.5914990  99.5319997
 106.2023946 101.8239963 100.0239616 107.1649992 101.1774990 102.9609997
 106.9699992 101.7834990 102.2459997 107.3469992 100.3444990 102.5259997
 107.1629272 101.1477955 102.8044075  98.3779992 101.4154990 108.2849997
  98.3399992 101.8154990 109.1529997  97.8869992 100.5984990 108.3749997
  98.3064246 101.3598842 108.4161171 101.7439992  98.7894990  95.0829997
 101.3129992  98.3444990  95.8129997 101.0259992  99.1604990  94.5709997
 101.5879363  98.7787979  95.1136194  94.9859992  98.5314990 102.1349997
  95.6169992  98.5024990 102.8549997  95.4359992  98.1064990 101.4049997
  95.1330905  98.4700839 102.1347479  96.2599992  99.2774990  97.5589997
  96.7349992  99.8684990  96.9739997  95.5429992  99.8074990  97.9059997
  96.2280406  99.4301011  97.5258495 106.4289992 102.8154990 107.6319997
 106.7529992 102.1844990 106.9889997 105.9889992 102.2814990 108.2929997
 106.4138707 102.6568261 107.6333195 103.2069992  98.7434990 102.4159997
 102.2959992  98.8004990 102.7049997 103.7119992  98.6834990 103.2269997
 103.1506873  98.7431838 102.5651190  98.0349992 100.3724990 101.2429997
  97.1459992 100.4714990 100.9029997  98.3309992  99.5304990 100.8969997
  97.9534001 100.2722473 101.1497318 101.6879992 100.3724990  98.8989997
 102.6199992 100.5014990  99.0769997 101.4729992 101.0414990  98.2499997
 101.7864245 100.4806452  98.8355602  21.1479992  20.0374990  78.5819997
  21.5869992  20.6484990  77.9909997  20.5139992  20.5754990  79.0559997
  21.1224104  20.1939233  78.5651376 107.6119992  97.9784990 105.6799997
 106.9349992  98.1094990 106.3439997 107.1259992  97.8234990 104.8699997
 107.4537265  97.9754665 105.6613380 100.3619992 101.5664990  96.4659997
  99.8199992 101.1874990  95.7749997 101.1959992 101.7614990  96.0369997
 100.4004283 101.5409383  96.3134298 104.5269992 101.5304990 104.3029997
 105.0909992 100.9844990 103.7559997 104.3789992 101.0094990 105.0919997
 104.5843037 101.3851798 104.3347212  99.5289992  97.6674990 100.7209997
  99.2109992  96.7644990 100.6859997 100.3099992  97.6694990 100.1689997
  99.5911560  97.5441148 100.6414975 103.1529992  99.9194990 106.7169997
 102.3179992 100.3734990 106.8269997 103.6769992 100.1954990 107.4689997
 103.1095070 100.0189677 106.8337134 103.6969992 106.1324990  98.4019997
 102.9519992 105.6244990  98.0789997 103.5629992 106.1814990  99.3479997
 103.5768633 106.0695714  98.4857563 110.8469992 105.2654990 107.1879997
 111.4889992 105.7214990 106.6449997 110.0169992 105.3784990 106.7259997
 110.8227352 105.3433223 107.0510234 107.5949992  98.9464990  96.6009997
 106.6559992  99.0574990  96.4499997 107.8919992  99.8024990  96.9069997
 107.5066371  99.0775327  96.6217362 105.2169992 106.3164990 109.6389997
 104.8709992 105.9344990 110.4449997 105.0169992 107.2494990 109.7099997
 105.1425400 106.3903489 109.7590401 108.3129992 100.8134990  98.2619997
 109.2049992 100.6754990  98.5809997 108.3699992 101.6044990  97.7249997
 108.4427380 100.9014777  98.2330981  26.8909992  20.1654990  82.5919997
  27.7649992  20.5544990  82.5619997  26.7549992  19.9504990  83.5149997
  26.9923125  20.1897120  82.7126523  98.8219992 105.4274990 104.1709997
  99.5669992 105.4244990 103.5699997  98.8999992 104.6034990 104.6529997
  98.9344158 105.3157928 104.1539136 105.8229992 107.5904990  97.4269997
 105.5279992 108.4174990  97.8089997 105.1199992 106.9714990  97.6229997
 105.6875855 107.6199458  97.5057634  95.8299992 103.8874990 109.4859997
  96.0529992 103.4694990 110.3179997  95.2279992 103.2754990 109.0639997
  95.7790802 103.7475216 109.5427561 107.4669992 108.7784990 109.5889997
 106.5659992 108.9614990 109.3209997 107.5009992 109.0374990 110.5099997
 107.3483021 108.8385505 109.6768206 113.1979992 101.0224990  97.9559997
 112.6439992 100.6264990  97.2839997 113.2989992 101.9334990  97.6789997
 113.1357084 101.0913565  97.8264381 111.4929992 109.8084990  98.4209997
 111.1209992 108.9834990  98.7309997 111.7709992 109.6254990  97.5239997
 111.4795997 109.6706160  98.3421551 108.6539992 104.6164990 105.4429997
 107.7259992 104.3854990 105.4159997 109.1049992 103.8394990 105.1129997
 108.5878165 104.4797785 105.3946772 101.1969992 108.9454990 101.5759997
 101.7239992 109.7184990 101.3749997 100.3169992 109.1694990 101.2739997
 101.1501793 109.0816652 101.5076304  96.9519992 103.8074990  96.1629997
  97.5679992 104.4344990  96.5419997  96.0899992 104.1234990  96.4339997
  96.9198195 103.9360810  96.2515369 102.6239992 106.6084990 101.1519997
 102.3829992 107.5334990 101.1939997 101.8839992 106.1494990 101.5479997
 102.4908934 106.6730881 101.2113191  32.4469992  20.1954990  84.2409997
  32.5239992  20.2914990  83.2919997  32.1719992  19.2884990  84.3699997
  32.4203407  20.0859188  84.1283532 103.1389992 110.7574990 107.4669997
 103.5019992 111.6114990 107.2339997 103.6709992 110.4654990 108.2079997
 103.2605141 110.8348907 107.5352079 101.3069992 111.6294990 100.6969997
 100.3579992 111.7354990 100.7489997 101.6589992 112.4504990 101.0419997
 101.2246214 111.7549361 100.7507317 106.6829992 106.8564990 107.1679997
 106.2569992 106.6284990 107.9939997 107.2639992 106.1174990 106.9849997
 106.7031587 106.7254084 107.2564111 108.8859992 107.7854990  96.2419997
 109.2389992 107.4054990  97.0459997 107.9369992 107.6914990  96.3279997
 108.8060985 107.7207330  96.3637738 109.3419992 111.4084990 109.6369997
 108.7399992 110.8524990 109.1419997 109.6229992 112.0754990 109.0109997
 109.2975757 111.4225755 109.4845657 113.3889992 112.2644990  96.4429997
 114.1329992 112.8504990  96.3029997 112.6949992 112.8334990  96.7759997
 113.3969809 112.4215830  96.4688572  97.4639992  98.6414990 109.0439997
  96.5709992  98.9794990 108.9769997  97.3649992  97.7854990 109.4619997
  97.3285241  98.5720941 109.0912982 109.7519992 106.4574990  98.4679997
 109.4749992 105.7294990  99.0239997 110.6789992 106.5764990  98.6739997
 109.8394181 106.3740068  98.5718972  97.1149992 110.4454990 107.4789997
  97.3319992 109.5134990 107.4479997  97.3619992 110.7204990 108.3629997
  97.1780543 110.3550877 107.5941412 102.9769992 108.8974990  94.6889997
 103.2159992 108.1484990  94.1409997 102.7079992 108.5094990  95.5209997
 102.9732804 108.7426524  94.7266352  33.8009992  20.2214990  79.9339997
  33.0979992  20.8364990  79.7239997  33.3559992  19.3844990  80.0649997
  33.6446550  20.1924679  79.9229819 101.9139992 108.4674990  97.1449997
 102.0609992 107.9474990  97.9349997 101.9109992 109.3744990  97.4509997
 101.9337300 108.5188975  97.2945877  98.3669992 105.7194990  97.6549997
  97.6809992 106.0724990  98.2219997  98.8899992 106.4824990  97.4089997
  98.3439033 105.8708757  97.6992644 106.1979992  98.3824990 107.9339997
 106.8969992  98.4564990 108.5839997 105.8179992  97.5174990 108.0889997
 106.2422095  98.2757402 108.0437982 106.9829992  98.0344990  99.0309997
 107.2029992  98.5054990  98.2279997 107.5409992  98.4284990  99.7019997
 107.0885851  98.1523272  99.0116134 104.6519992 110.1644990  97.8939997
 103.8349992 110.6614990  97.9469997 105.1809992 110.6404990  97.2539997
 104.6117898 110.2968123  97.8147274 104.1829992  99.7624990  99.8659997
 104.9949992 100.2664990  99.9119997 103.9379992  99.6174990 100.7799997
 104.2611091  99.8119366  99.9958552 104.7189992 100.7484990 109.0509997
 104.8379992 101.3224990 109.8079997 105.3739992 100.0604990 109.1659997
 104.8238684 100.7340205 109.1701656 105.0669992  96.8434990 100.8039997
 104.7199992  97.4604990 101.4489997 105.7249992  97.3444990 100.3229997
 105.1085290  96.9956384 100.8271635 101.9899992 111.2084990  97.8759997
 102.1509992 112.0084990  97.3749997 101.7929992 111.5154990  98.7609997
 101.9853919 111.3594140  97.9270988 100.7239992  97.9064990  97.4919997
 100.6409992  98.7944990  97.8379997 101.6139992  97.6414990  97.7229997
 100.8329751  97.9922482  97.5706066  21.0489992  35.9854990  79.4799997
  20.3639992  35.9474990  78.8119997  21.0519992  36.8974990  79.7679997
  20.9557358  36.1036744  79.4276145 110.9229992  98.6554990 109.8859997
 110.0069992  98.9174990 109.7979997 111.2589992  98.6524990 108.9889997
 110.8429789  98.6909637 109.7527829 109.5249992 102.4054990 103.9819997
 108.7279992 101.9904990 103.6529997 109.9699992 101.7154990 104.4729997
 109.4760317 102.2553197 104.0033557  98.9829992 108.3334990  96.5519997
  99.5749992 109.0334990  96.8279997  99.4419992 107.9004990  95.8329997
  99.1261172 108.3707371  96.4925163  97.2989992 100.9984990  95.6679997
  97.2539992 101.9374990  95.8469997  96.4109992 100.7624990  95.3979997
  97.1728472 101.0951946  95.6560282 110.6119992 111.6614990 105.6039997
 110.4559992 112.3404990 104.9469997 111.5439992 111.7334990 105.8069997
 110.7167328 111.7641586 105.5415529  98.1069992  95.7794990 104.3409997
  97.8779992  95.8384990 103.4139997  97.6639992  94.9884990 104.6479997
  98.0157387  95.6806413 104.2555223  97.0369992 109.7204990 100.5019997
  96.2049992 110.1924990 100.5289997  97.5829992 110.2304990  99.9029997
  96.9968710 109.8540317 100.4247570 105.0149992 110.7604990  94.8269997
 104.3709992 110.1294990  95.1489997 105.7769992 110.2294990  94.5949997
 105.0298260 110.6023035  94.8397298 109.6189992 110.5774990  95.0609997
 109.9019992 109.7824990  95.5139997 110.3589992 110.8104990  94.4999997
 109.7577295 110.5002349  95.0471469 100.5739992 106.4864990  94.9179997
 100.6379992 105.6924990  95.4489997 101.2269992 106.3684990  94.2289997
 100.6711168 106.3617748  94.8975119  28.0349992  22.2464990  79.4819997
  28.2129992  21.5994990  80.1649997  27.9809992  23.0804990  79.9489997
  28.0520678  22.2706615  79.6386283 105.9259992 107.5334990  94.6539997
 105.6579992 107.7144990  95.5549997 105.7199992 106.6084990  94.5229997
 105.8614251 107.4331528  94.7596809 108.6229992 106.0284990 109.6019997
 109.3679992 106.6174990 109.4819997 107.8649992 106.6104990 109.6649997
 108.6225185 106.1877000 109.5940940 101.7229992 104.4594990  97.2239997
 101.2639992 103.9754990  97.9099997 101.9779992 103.7904990  96.5879997
 101.6946178 104.3028511  97.2319785 101.0119992 102.3524990 109.5799997
 100.3939992 103.0264990 109.8609997 101.3559992 102.6734990 108.7469997
 100.9738181 102.4883233 109.5058266 102.7939992 102.7024990  95.4869997
 102.6139992 102.5474990  94.5589997 103.7439992 102.8104990  95.5309997
 102.8978016 102.6959264  95.3662123 112.1839992 105.0564990  94.9319997
 111.9109992 104.6324990  94.1189997 112.2239992 105.9884990  94.7149997
 112.1520201 105.1243523  94.7913548 101.7639992  98.0764990 108.1549997
 102.2999992  98.5284990 107.5029997 100.9119992  97.9684990 107.7329997
 101.7221648  98.1237883 108.0086395 103.3459992 103.5164990 108.3949997
 104.0969992 103.3604990 107.8219997 103.0069992 104.3684990 108.1189997
 103.4029052 103.6102745 108.2793469 102.5699992  95.5334990 108.5869997
 102.4719992  96.4794990 108.4809997 101.8269992  95.1604990 108.1109997
 102.4562363  95.6125987 108.5082029 102.6919992 113.3924990  96.4879997
 103.6249992 113.5504990  96.6319997 102.4269992 114.0684990  95.8629997
 102.7839846 113.5054567  96.4232930  29.9129992  37.1944990  77.8769997
  30.7789992  37.5614990  77.6989997  29.6659992  36.7554990  77.0639997
  29.9982041  37.1853648  77.7425958  96.2599992 108.0294990  95.9709997
  97.1739992 108.1084990  96.2439997  96.2669992 107.3424990  95.3039997
  96.3860769 107.9474735  95.9182366  94.9089992 113.4224990 101.0479997
  94.2619992 112.9604990 100.5149997  95.2639992 112.7504990 101.6309997
  94.8683861 113.2684707 101.0537939  95.7789992 111.5024990 102.8529997
  95.4449992 110.6224990 103.0249997  96.0009992 111.8484990 103.7169997
  95.7632677 111.4287365 102.9934252 113.3279992 112.3124990 105.8329997
 113.3059992 112.4974990 106.7719997 114.0179992 112.8804990 105.4919997
 113.4183439 112.4146898 105.9154774 112.8909992 111.8794990 108.7549997
 112.4039992 111.1434990 108.3839997 113.4399992 111.4854990 109.4329997
 112.8986101 111.7256267 108.7959034 112.6429992 105.9254990  98.9069997
 113.4929992 106.3464990  99.0349997 112.6479992 105.1854990  99.5149997
 112.7599745 105.8831347  99.0066479 113.0369992 103.9794990 100.7309997
 112.3109992 103.4994990 101.1289997 113.6179992 104.1844990 101.4629997
 113.0162504 103.9415592 100.8844199 112.7959992 106.7644990 105.6789997
 113.6299992 106.3864990 105.3979997 112.9079992 107.7074990 105.5599997
 112.9251917 106.8402954 105.6244844 111.2819992 109.6424990 107.9859997
 110.6349992 109.9674990 108.6109997 110.7649992 109.2014990 107.3109997
 111.1234068 109.6274726 107.9804918 113.3049992 103.8804990  97.1219997
 112.7839992 104.2364990  96.4029997 113.2719992 104.5554990  97.7999997
 113.2291525 104.0205273  97.1151408  36.6219992  36.7574990  80.5569997
  36.4279992  36.0094990  79.9919997  36.5829992  37.5154990  79.9729997
  36.5901907  36.7575770  80.4008077 111.6539992 101.1194990  95.6729997
 111.7509992 101.7864990  94.9929997 111.5139992 100.3044990  95.1909997
 111.6483428 101.1005667  95.5148311 110.8239992 102.5004990 101.2939997
 110.6739992 101.5554990 101.2739997 110.4699992 102.7814990 102.1379997
 110.7556351 102.4091656 101.4053202  95.8589992 104.5784990 105.3039997
  96.0429992 104.4964990 104.3689997  96.7079992 104.4544990 105.7279997
  95.9990259 104.5504915 105.2331771 110.9019992  98.5274990  94.7899997
 111.5119992  98.1564990  95.4269997 110.0649992  98.1064990  94.9859997
 110.8723704  98.4197942  94.9037077 110.5339992 100.0824990  99.7559997
 110.8139992  99.1754990  99.8809997 111.2929992 100.5164990  99.3669997
 110.6749471 100.0170654  99.7205051 111.1459992 100.6644990 105.1919997
 112.0789992 100.8764990 105.1579997 110.9109992 100.7654990 106.1149997
 111.2418357 100.7071303 105.3120232 111.1749992 101.4014990 107.9679997
 110.3319992 101.6694990 108.3339997 111.6179992 102.2234990 107.7569997
 111.1194358 101.5493294 107.9895999 111.1479992  97.3454990  99.8049997
 111.3299992  96.8964990 100.6299997 110.5479992  96.7614990  99.3409997
 111.0918187  97.2050563  99.8552721  96.6779992  98.1614990 104.3359997
  97.1229992  97.3694990 104.6379997  97.1439992  98.8774990 104.7669997
  96.8019059  98.1499485 104.4356061  94.9819992 101.1604990 105.4049997
  95.4739992 100.9394990 104.6149997  95.3439992 102.0004990 105.6859997
  95.0983429 101.2438220 105.3347918  22.2689992  20.7534990  92.2959997
  21.9029992  19.9874990  92.7389997  23.1819992  20.7824990  92.5829997
  22.3423225  20.6526917  92.3953441 113.0139992  97.4134990  96.3329997
 113.4269992  96.6924990  95.8569997 113.6959992  98.0824990  96.3909997
 113.1625712  97.4054304  96.2758247  95.2949992  97.4184990  99.4599997
  94.3699992  97.6264990  99.3299997  95.7489992  97.9024990  98.7699997
  95.2297401  97.5123895  99.3489433 110.0659992 112.4024990 101.4049997
 110.7179992 112.0544990 100.7969997 110.5769992 112.8904990 102.0509997
 110.2242872 112.4208248 101.4090964  95.2589992  96.1564990 107.8039997
  94.5939992  95.9104990 108.4469997  94.8159992  96.7784990 107.2269997
  95.1081168  96.2069225 107.8139830 100.4049992 110.3054990 108.2069997
  99.9799992 111.1154990 107.9239997 101.3089992 110.3914990 107.9049997
 100.4691002 110.4278728 108.1274798 111.9789992  95.5804990 109.4899997
 111.1659992  95.9054990 109.1019997 112.2119992  94.8194990 108.9569997
 111.8992566  95.5221570 109.3649196  97.8069992 113.5624990 108.2539997
  97.0859992 114.0024990 107.8029997  97.4409992 113.3114990 109.1029997
  97.6589785 113.5887691 108.3069849 100.2739992 113.1624990 107.2839997
  99.4089992 113.2344990 107.6879997 100.2189992 113.7094990 106.4999997
 100.1482066 113.2462678 107.2333371 104.9849992 113.0504990 106.4599997
 104.5279992 113.5794990 105.8059997 105.1469992 113.6534990 107.1849997
 104.9443919 113.2043990 106.4685740 107.3119992 111.9284990 107.4049997
 106.4079992 112.0934990 107.1389997 107.7409992 112.7814990 107.3389997
 107.2462017 112.0664184 107.3596495  24.2419992  20.1034990  93.8319997
  25.1409992  19.8294990  93.6469997  23.8559992  19.3614990  94.2959997
  24.3127237  19.9656520  93.8694693 109.9159992 113.4984990 107.6999997
 109.7349992 114.4144990 107.4889997 110.0929992 113.0874990 106.8529997
 109.9151377 113.5683365 107.5567178  97.2219992 112.1854990 105.1649997
  97.2029992 111.7594990 106.0219997  98.0259992 111.8664990 104.7559997
  97.3281393 112.0840297 105.2270155  99.3629992 110.8954990 103.8199997
  99.1439992 109.9784990 103.9889997 100.1869992 111.0354990 104.2859997
  99.4444637 110.7889586 103.9061414 101.8999992 111.3654990 104.6679997
 102.1129992 110.4774990 104.3809997 101.9649992 111.3304990 105.6229997
 101.9379075 111.2393318 104.7577355 105.4089992  97.0294990 103.8129997
 104.7339992  96.3994990 104.0679997 105.9729992  96.5454990 103.2099997
 105.3929558  96.8779283 103.7663451 110.5509992  95.1364990 103.9249997
 111.1549992  95.6844990 103.4239997 109.6819992  95.4554990 103.6849997
 110.5161126  95.2547070 103.8239180 112.2779992  96.2754990 102.2589997
 112.8899992  95.7614990 101.7319997 112.6609992  97.1524990 102.2819997
 112.4133867  96.3237613 102.1900888  97.7349992  95.6634990 101.6349997
  96.9579992  95.4284990 101.1269997  98.2659992  94.8664990 101.6439997
  97.7004443  95.5236721 101.5667200  96.5719992  95.4614990  97.4379997
  97.0109992  96.0724990  96.8469997  95.9379992  95.9994990  97.9119997
  96.5464104  95.6179233  97.4211376 102.3149992  95.5894990 101.4479997
 103.1889992  95.9784990 101.4179997 102.1789992  95.3744990 102.3709997
 102.4163125  95.6137120 101.5686523  32.6629992  19.4364990  94.0139997
  32.7399992  19.0104990  94.8679997  33.5569992  19.4494990  93.6719997
  32.7943315  19.3800320  94.0845052 107.8709992  95.6194990 103.0969997
 107.9479992  95.7154990 102.1479997 107.5959992  94.7124990 103.2259997
 107.8443407  95.5099188 102.9843532 109.2249992  95.6454990  98.7899997
 108.5219992  96.2604990  98.5799997 108.7799992  94.8084990  98.9209997
 109.0686550  95.6164679  98.7789819  96.4729992 111.4094990  98.3359997
  95.7879992 111.3714990  97.6679997  96.4759992 112.3214990  98.6239997
  96.3797358 111.5276744  98.2836145  98.4329992  97.3774990  95.8809997
  98.9239992  96.7474990  95.3529997  99.0559992  97.6734990  96.5439997
  98.5845459  97.3312419  95.8983667 103.4589992  97.6704990  98.3379997
 103.6369992  97.0234990  99.0209997 103.4049992  98.5044990  98.8049997
 103.4760678  97.6946615  98.4946283 105.3369992 112.6184990  96.7329997
 106.2029992 112.9854990  96.5549997 105.0899992 112.1794990  95.9199997
 105.4222041 112.6093648  96.5985958 112.0459992 112.1814990  99.4129997
 111.8519992 111.4334990  98.8479997 112.0069992 112.9394990  98.8289997
 112.0141907 112.1815770  99.2568077  98.2909992 112.3294990  95.3609997
  98.0229992 112.6154990  96.2339997  99.0619992 111.7834990  95.5129997
  98.3585600 112.2948341  95.5011482 125.6699992 104.8194990 101.5929997
 125.7589992 105.7634990 101.4609997 125.0309992 104.5444990 100.9349997
 125.5958319 104.9114984 101.4860276 124.6029992 104.0744990 105.0119997
 124.5639992 103.4284990 105.7169997 124.2799992 103.6074990 104.2409997
 124.5540199 103.9230089 105.0042865  35.8399992  35.5084990  92.7069997
  35.0579992  35.3224990  92.1869997  35.7679992  36.4384990  92.9239997
  35.7232975  35.6086973  92.6651822 116.9709992 103.6884990 106.6049997
 117.0119992 103.0634990 107.3289997 117.6739992 104.3124990 106.7869997
 117.0716054 103.6873262 106.7286311 128.3089992 107.0134990 103.3139997
 127.8679992 106.2934990 103.7639997 128.2959992 107.7344990 103.9439997
 128.2468398 107.0123187 103.4607734 117.8949992 108.1384990 105.1399997
 117.5249992 107.3364990 104.7709997 118.8359992 107.9704990 105.1869997
 117.9715630 108.0058680 105.0957873 114.5049992 101.7984990 100.5329997
 114.0569992 102.6444990 100.5149997 113.9439992 101.2194990 100.0179997
 114.3678546 101.8359004 100.4608874 115.2149992 103.9604990 102.6589997
 115.4289992 103.1904990 103.1859997 115.9529992 104.0504990 102.0559997
 115.3440073 103.8673546 102.6495786 125.4199992 112.1174990 103.5259997
 126.0399992 111.4414990 103.2529997 125.2119992 111.8994990 104.4339997
 125.4767360 111.9954792 103.6114387 122.9919992 106.5064990 105.4179997
 123.2959992 105.8204990 104.8239997 123.7139992 106.6254990 106.0359997
 123.1311152 106.4287201 105.4202106 131.6549992  98.1084990 106.2789997
 131.7039992  98.7184990 107.0149997 132.0809992  98.5694990 105.5559997
 131.7192851  98.2543266 106.2820532 126.1329992 100.9004990 105.7459997
 126.2749992  99.9544990 105.7659997 126.0269992 101.1074990 104.8169997
 126.1381158 100.7989722 105.6232241 119.2879992  99.0024990 103.0179997
 119.3309992  99.8624990 102.5999997 118.8299992  98.4494990 102.3849997
 119.2319613  99.0455689 102.8751276  50.2459992  29.3954990  82.7369997
  50.3349992  30.3394990  82.6049997  49.6069992  29.1204990  82.0789997
  50.1718319  29.4874984  82.6300276 127.0099992  99.1334990 101.4189997
 127.6559992  98.8044990 102.0439997 127.5199992  99.6504990 100.7959997
 127.1674392  99.1583710 101.4203248 115.9079992 101.3994990 103.7799997
 116.5619992 100.8494990 104.2119997 115.9319992 101.1254990 102.8639997
 116.0007022 101.2872005 103.7151698 121.0639992 102.9494990 102.9959997
 121.6799992 102.4224990 103.5049997 120.4779992 102.3094990 102.5919997
 121.0690652 102.7908919 103.0110277 132.0469992  99.5864990 108.5149997
 131.3579992 100.2444990 108.4199997 132.0619992  99.3884990 109.4519997
 131.9547756  99.6497614 108.6285795 118.0979992  97.9204990 107.0919997
 117.8789992  98.4504990 106.3259997 117.4299992  98.1464990 107.7399997
 117.9777271  98.0236508 107.0746206 125.4669992 107.4204990 100.6359997
 125.1709992 107.0974990  99.7849997 125.1429992 108.3204990 100.6779997
 125.3826501 107.4979058 100.5250893 120.6669992 105.5954990 107.3799997
 119.9269992 106.1944990 107.4829997 121.3809992 106.1494990 107.0639997
 120.6623288 105.7522368 107.3513787 128.7739992  98.4244990 103.3999997
 128.5589992  97.6584990 103.9319997 129.4299992  98.8964990 103.9129997
 128.8332451  98.3834472 103.5421699 117.6919992  99.8124990 105.0449997
 118.3049992 100.4454990 105.4179997 118.2039992  99.3404990 104.3879997
 117.8451680  99.8354006 105.0072830 119.0739992 107.5604990 108.1669997
 119.0689992 108.4394990 107.7889997 118.2209992 107.4764990 108.5919997
 118.9579199 107.6695901 108.1726942  49.1789992  28.6504990  86.1559997
  49.1399992  28.0044990  86.8609997  48.8559992  28.1834990  85.3849997
  49.1300199  28.4990089  86.1482865 115.1959992 107.2314990  98.9489997
 114.9239992 107.4604990  98.0599997 115.2409992 108.0684990  99.4089997
 115.1648709 107.3761069  98.8896089 128.8209992 108.8524990 105.6619997
 127.8789992 108.9114990 105.8229997 129.0969992 109.7584990 105.5249997
 128.7295771 108.9830270 105.6654827 129.1209992  97.1394990 107.0789997
 128.3849992  97.7494990 107.0409997 129.8049992  97.5544990 106.5529997
 129.1125885  97.2791924 107.0026931 122.1239992  95.2254990 104.5449997
 122.0069992  94.2774990 104.4909997 121.2689992  95.5584990 104.8179997
 121.9923691  95.1405842 104.5745072 127.0729992 110.6334990 102.2869997
 127.4979992 109.9264990 101.8019997 127.3899992 111.4354990 101.8699997
 127.1740266 110.6450201 102.1642461 128.2319992 108.5344990 100.7959997
 127.9749992 107.8444990 100.1839997 128.3029992 108.0914990 101.6409997
 128.2064322 108.3801568 100.8265372 129.9179992 107.1014990 109.2729997
 130.0579992 106.5094990 108.5339997 130.0859992 107.9744990 108.9169997
 129.9598734 107.1384041 109.1236937 124.3909992 104.0634990  99.0449997
 123.6789992 104.5984990  98.6939997 125.0819992 104.1184990  98.3849997
 124.3868696 104.1442591  98.9076372 124.4449992 102.5204990  96.0839997
 125.1459992 102.5434990  96.7349997 124.7469992 101.8924990  95.4279997
 124.5818282 102.4387350  96.0844478 131.7599992 103.4414990 107.3389997
 131.1079992 104.1354990 107.4279997 132.2249992 103.6514990 106.5289997
 131.7335357 103.5649544 107.2417056  41.5469992  28.2644990  87.7489997
  41.5879992  27.6394990  88.4729997  42.2499992  28.8884990  87.9309997
  41.6476054  28.2633262  87.8726311 127.7969992 104.2724990  99.9969997
 127.0649992 104.5014990 100.5699997 128.2439992 103.5594990 100.4519997
 127.7572753 104.2073984 100.1369698 127.6939992 102.4474990 109.0649997
 127.7739992 103.2104990 109.6369997 127.0929992 102.7264990 108.3739997
 127.6237115 102.5897707 109.0499631 119.4419992 104.9034990 101.8799997
 119.1119992 104.5324990 101.0609997 120.0299992 104.2324990 102.2259997
 119.4764056 104.7621257 101.8149035 120.8089992 108.3314990 104.5609997
 120.7139992 107.7524990 103.8039997 121.5379992 107.9604990 105.0569997
 120.8946161 108.2020902 104.5245192 119.8089992 103.6714990 105.5129997
 120.3739992 103.7934990 104.7499997 120.1269992 104.3094990 106.1519997
 119.9293430 103.7744448 105.4949094 126.1179992 109.1754990 106.2469997
 125.8769992 109.8374990 106.8949997 125.9199992 108.3404990 106.6719997
 126.0582662 109.1532704 106.3931008 126.6679992 103.4354990  97.6819997
 127.2469992 103.5854990  98.4289997 127.0819992 103.9054990  96.9589997
 126.8033122 103.5196288  97.6865024 117.6089992 104.2694990 109.4589997
 117.6789992 104.9204990 110.1569997 116.7179992 104.3724990 109.1239997
 117.4981802 104.3724769 109.5092231 124.3939992 110.1714990 101.1179997
 124.8679992 110.4674990 101.8949997 123.8309992 110.9104990 100.8839997
 124.3828460 110.3118336 101.1927626 130.3659992  95.1854990  97.4949997
 129.4659992  95.3234990  97.7899997 130.6179992  96.0164990  97.0929997
 130.2767355  95.3168200  97.4810539  52.8849992  31.5894990  84.4579997
  52.4439992  30.8694990  84.9079997  52.8719992  32.3104990  85.0879997
  52.8228398  31.5883187  84.6047734 118.4319992 103.9724990  99.4689997
 118.1399992 104.7404990  98.9779997 117.7579992 103.3134990  99.3059997
 118.3008843 103.9884537  99.3797695 131.5559992 109.5514990  95.8719997
 131.6289992 110.4904990  96.0419997 132.4609992 109.2464990  95.8149997
 131.6884168 109.6388531  95.8875736 114.5249992 106.3354990 108.2839997
 114.0239992 106.3074990 107.4689997 114.5309992 105.4304990 108.5939997
 114.4571690 106.2092234 108.2142770 114.2759992 109.1164990 105.1679997
 115.2219992 108.9714990 105.1489997 114.1629992 109.9004990 105.7049997
 114.3903578 109.2026708 105.2380300 123.4519992 109.3564990 109.7259997
 123.5389992 110.1824990 110.2009997 122.5879992 109.0264990 109.9749997
 123.3471944 109.4249871 109.8246558 123.8659992 113.1284990  99.5319997
 123.7909992 113.0074990  98.5859997 123.8989992 114.0774990  99.6509997
 123.8601862 113.2402492  99.4184840 117.5199992 111.9174990 101.3129997
 117.6719992 111.5694990 102.1919997 116.6689992 111.5604990 101.0579997
 117.4257899 111.8216749 101.3987322 126.9679992 112.2824990  96.5349997
 127.3429992 111.5384990  96.0639997 126.9719992 112.0124990  97.4529997
 127.0198969 112.1440920  96.5946475 126.6369992 112.2084990  99.2839997
 125.7019992 112.3084990  99.4629997 126.9169992 111.4984990  99.8619997
 126.5469270 112.1262300  99.3865984 116.7739992 107.6594990 109.3269997
 116.9899992 107.2974990 110.1869997 115.9189992 107.2844990 109.1169997
 116.6879349 107.5592914 109.4162134  42.4709992  32.7144990  86.2839997
  42.1009992  31.9124990  85.9149997  43.4119992  32.5464990  86.3309997
  42.5475630  32.5818680  86.2397873 119.3929992  96.1294990 105.3229997
 118.5309992  96.0424990 104.9149997 119.3709992  96.9854990 105.7499997
 119.2720953  96.2333558 105.3249262 124.0559992  95.8514990 108.6969997
 124.4759992  95.4364990 109.4499997 123.1229992  95.6724990 108.8139997
 123.9873736  95.7704921 108.8158950 127.3819992  99.6064990 109.5509997
 126.8679992  99.4814990 110.3479997 127.2269992 100.5194990 109.3059997
 127.2906643  99.7127068 109.6270624 128.1449992 104.4674990  95.3119997
 128.1869992 104.2454990  94.3819997 128.9939992 104.8664990  95.5019997
 128.2655253 104.4910510  95.2103804 123.7179992  98.3434990  95.9819997
 123.4639992  98.3624990  96.9049997 123.4609992  97.4724990  95.6809997
 123.6485133  98.2283121  96.0675065 119.4839992 101.0944990 106.4179997
 118.8419992 101.0544990 107.1269997 119.5209992 102.0214990 106.1799997
 119.4011659 101.2142540 106.4828463 119.4809992 101.3154990 101.3299997
 118.5879992 100.9754990 101.2709997 119.9319992 100.9384990 100.5739997
 119.4197185 101.2180220 101.2197698 125.0169992 101.7314990 100.1469997
 124.6079992 102.5464990  99.8549997 125.7369992 101.5914990  99.5319997
 125.0583946 101.8239963 100.0239616 126.0209992 101.1774990 102.9609997
 125.8259992 101.7834990 102.2459997 126.2029992 100.3444990 102.5259997
 126.0189272 101.1477955 102.8044075 117.2339992 101.4154990 108.2849997
 117.1959992 101.8154990 109.1529997 116.7429992 100.5984990 108.3749997
 117.1624246 101.3598842 108.4161171  39.0809992  26.3744990  81.6769997
  38.6329992  27.2204990  81.6589997  38.5199992  25.7954990  81.1619997
  38.9438546  26.4119004  81.6048874 120.5999992  98.7894990  95.0829997
 120.1689992  98.3444990  95.8129997 119.8819992  99.1604990  94.5709997
 120.4439363  98.7787979  95.1136194 113.8419992  98.5314990 102.1349997
 114.4729992  98.5024990 102.8549997 114.2919992  98.1064990 101.4049997
 113.9890905  98.4700839 102.1347479 115.1159992  99.2774990  97.5589997
 115.5909992  99.8684990  96.9739997 114.3989992  99.8074990  97.9059997
 115.0840406  99.4301011  97.5258495 125.2849992 102.8154990 107.6319997
 125.6089992 102.1844990 106.9889997 124.8449992 102.2814990 108.2929997
 125.2698707 102.6568261 107.6333195 122.0629992  98.7434990 102.4159997
 121.1519992  98.8004990 102.7049997 122.5679992  98.6834990 103.2269997
 122.0066873  98.7431838 102.5651190 116.8909992 100.3724990 101.2429997
 116.0019992 100.4714990 100.9029997 117.1869992  99.5304990 100.8969997
 116.8094001 100.2722473 101.1497318 120.5439992 100.3724990  98.8989997
 121.4759992 100.5014990  99.0769997 120.3289992 101.0414990  98.2499997
 120.6424245 100.4806452  98.8355602 126.4679992  97.9784990 105.6799997
 125.7909992  98.1094990 106.3439997 125.9819992  97.8234990 104.8699997
 126.3097265  97.9754665 105.6613380 119.2179992 101.5664990  96.4659997
 118.6759992 101.1874990  95.7749997 120.0519992 101.7614990  96.0369997
 119.2564283 101.5409383  96.3134298 123.3829992 101.5304990 104.3029997
 123.9469992 100.9844990 103.7559997 123.2349992 101.0094990 105.0919997
 123.4403037 101.3851798 104.3347212  39.7909992  28.5364990  83.8029997
  40.0049992  27.7664990  84.3299997  40.5289992  28.6264990  83.1999997
  39.9200073  28.4433546  83.7935786 118.3849992  97.6674990 100.7209997
 118.0669992  96.7644990 100.6859997 119.1659992  97.6694990 100.1689997
 118.4471560  97.5441148 100.6414975 122.0089992  99.9194990 106.7169997
 121.1739992 100.3734990 106.8269997 122.5329992 100.1954990 107.4689997
 121.9655070 100.0189677 106.8337134 122.5529992 106.1324990  98.4019997
 121.8079992 105.6244990  98.0789997 122.4189992 106.1814990  99.3479997
 122.4328633 106.0695714  98.4857563 129.7029992 105.2654990 107.1879997
 130.3449992 105.7214990 106.6449997 128.8729992 105.3784990 106.7259997
 129.6787352 105.3433223 107.0510234 126.4509992  98.9464990  96.6009997
 125.5119992  99.0574990  96.4499997 126.7479992  99.8024990  96.9069997
 126.3626371  99.0775327  96.6217362 124.0729992 106.3164990 109.6389997
 123.7269992 105.9344990 110.4449997 123.8729992 107.2494990 109.7099997
 123.9985400 106.3903489 109.7590401 127.1689992 100.8134990  98.2619997
 128.0609992 100.6754990  98.5809997 127.2259992 101.6044990  97.7249997
 127.2987380 100.9014777  98.2330981 117.6779992 105.4274990 104.1709997
 118.4229992 105.4244990 103.5699997 117.7559992 104.6034990 104.6529997
 117.7904158 105.3157928 104.1539136 124.6789992 107.5904990  97.4269997
 124.3839992 108.4174990  97.8089997 123.9759992 106.9714990  97.6229997
 124.5435855 107.6199458  97.5057634 114.6859992 103.8874990 109.4859997
 114.9089992 103.4694990 110.3179997 114.0839992 103.2754990 109.0639997
 114.6350802 103.7475216 109.5427561  49.9959992  36.6934990  84.6699997
  50.6159992  36.0174990  84.3969997  49.7879992  36.4754990  85.5779997
  50.0527360  36.5714792  84.7554387 126.3229992 108.7784990 109.5889997
 125.4219992 108.9614990 109.3209997 126.3569992 109.0374990 110.5099997
 126.2043021 108.8385505 109.6768206 132.0539992 101.0224990  97.9559997
 131.4999992 100.6264990  97.2839997 132.1549992 101.9334990  97.6789997
 131.9917084 101.0913565  97.8264381 130.3489992 109.8084990  98.4209997
 129.9769992 108.9834990  98.7309997 130.6269992 109.6254990  97.5239997
 130.3355997 109.6706160  98.3421551 127.5099992 104.6164990 105.4429997
 126.5819992 104.3854990 105.4159997 127.9609992 103.8394990 105.1129997
 127.4438165 104.4797785 105.3946772 120.0529992 108.9454990 101.5759997
 120.5799992 109.7184990 101.3749997 119.1729992 109.1694990 101.2739997
 120.0061793 109.0816652 101.5076304 115.8079992 103.8074990  96.1629997
 116.4239992 104.4344990  96.5419997 114.9459992 104.1234990  96.4339997
 115.7758195 103.9360810  96.2515369 121.4799992 106.6084990 101.1519997
 121.2389992 107.5334990 101.1939997 120.7399992 106.1494990 101.5479997
 121.3468934 106.6730881 101.2113191 121.9949992 110.7574990 107.4669997
 122.3579992 111.6114990 107.2339997 122.5269992 110.4654990 108.2079997
 122.1165141 110.8348907 107.5352079 120.1629992 111.6294990 100.6969997
 119.2139992 111.7354990 100.7489997 120.5149992 112.4504990 101.0419997
 120.0806214 111.7549361 100.7507317 125.5389992 106.8564990 107.1679997
 125.1129992 106.6284990 107.9939997 126.1199992 106.1174990 106.9849997
 125.5591587 106.7254084 107.2564111  47.5679992  31.0824990  86.5619997
  47.8719992  30.3964990  85.9679997  48.2899992  31.2014990  87.1799997
  47.7071152  31.0047201  86.5642106 127.7419992 107.7854990  96.2419997
 128.0949992 107.4054990  97.0459997 126.7929992 107.6914990  96.3279997
 127.6620985 107.7207330  96.3637738 128.1979992 111.4084990 109.6369997
 127.5959992 110.8524990 109.1419997 128.4789992 112.0754990 109.0109997
 128.1535757 111.4225755 109.4845657 132.2449992 112.2644990  96.4429997
 132.9889992 112.8504990  96.3029997 131.5509992 112.8334990  96.7759997
 132.2529809 112.4215830  96.4688572 116.3199992  98.6414990 109.0439997
 115.4269992  98.9794990 108.9769997 116.2209992  97.7854990 109.4619997
 116.1845241  98.5720941 109.0912982 128.6079992 106.4574990  98.4679997
 128.3309992 105.7294990  99.0239997 129.5349992 106.5764990  98.6739997
 128.6954181 106.3740068  98.5718972 115.9709992 110.4454990 107.4789997
 116.1879992 109.5134990 107.4479997 116.2179992 110.7204990 108.3629997
 116.0340543 110.3550877 107.5941412 121.8329992 108.8974990  94.6889997
 122.0719992 108.1484990  94.1409997 121.5639992 108.5094990  95.5209997
 121.8292804 108.7426524  94.7266352 120.7699992 108.4674990  97.1449997
 120.9169992 107.9474990  97.9349997 120.7669992 109.3744990  97.4509997
 120.7897300 108.5188975  97.2945877 117.2229992 105.7194990  97.6549997
 116.5369992 106.0724990  98.2219997 117.7459992 106.4824990  97.4089997
 117.1999033 105.8708757  97.6992644 125.0539992  98.3824990 107.9339997
 125.7529992  98.4564990 108.5839997 124.6739992  97.5174990 108.0889997
 125.0982095  98.2757402 108.0437982  56.2309992  22.6844990  87.4229997
  56.2799992  23.2944990  88.1589997  56.6569992  23.1454990  86.6999997
  56.2952851  22.8303266  87.4260532 125.8389992  98.0344990  99.0309997
 126.0589992  98.5054990  98.2279997 126.3969992  98.4284990  99.7019997
 125.9445851  98.1523272  99.0116134 123.5079992 110.1644990  97.8939997
 122.6909992 110.6614990  97.9469997 124.0369992 110.6404990  97.2539997
 123.4677898 110.2968123  97.8147274 123.0389992  99.7624990  99.8659997
 123.8509992 100.2664990  99.9119997 122.7939992  99.6174990 100.7799997
 123.1171091  99.8119366  99.9958552 123.5749992 100.7484990 109.0509997
 123.6939992 101.3224990 109.8079997 124.2299992 100.0604990 109.1659997
 123.6798684 100.7340205 109.1701656 123.9229992  96.8434990 100.8039997
 123.5759992  97.4604990 101.4489997 124.5809992  97.3444990 100.3229997
 123.9645290  96.9956384 100.8271635 120.8459992 111.2084990  97.8759997
 121.0069992 112.0084990  97.3749997 120.6489992 111.5154990  98.7609997
 120.8413919 111.3594140  97.9270988 119.5799992  97.9064990  97.4919997
 119.4969992  98.7944990  97.8379997 120.4699992  97.6414990  97.7229997
 119.6889751  97.9922482  97.5706066 129.7789992  98.6554990 109.8859997
 128.8629992  98.9174990 109.7979997 130.1149992  98.6524990 108.9889997
 129.6989789  98.6909637 109.7527829 128.3809992 102.4054990 103.9819997
 127.5839992 101.9904990 103.6529997 128.8259992 101.7154990 104.4729997
 128.3320317 102.2553197 104.0033557 117.8389992 108.3334990  96.5519997
 118.4309992 109.0334990  96.8279997 118.2979992 107.9004990  95.8329997
 117.9821172 108.3707371  96.4925163  50.7089992  25.4764990  86.8899997
  50.8509992  24.5304990  86.9099997  50.6029992  25.6834990  85.9609997
  50.7141158  25.3749722  86.7672241 116.1549992 100.9984990  95.6679997
 116.1099992 101.9374990  95.8469997 115.2669992 100.7624990  95.3979997
 116.0288472 101.0951946  95.6560282 129.4679992 111.6614990 105.6039997
 129.3119992 112.3404990 104.9469997 130.3999992 111.7334990 105.8069997
 129.5727328 111.7641586 105.5415529 116.9629992  95.7794990 104.3409997
 116.7339992  95.8384990 103.4139997 116.5199992  94.9884990 104.6479997
 116.8717387  95.6806413 104.2555223 115.8929992 109.7204990 100.5019997
 115.0609992 110.1924990 100.5289997 116.4389992 110.2304990  99.9029997
 115.8528710 109.8540317 100.4247570 123.8709992 110.7604990  94.8269997
 123.2269992 110.1294990  95.1489997 124.6329992 110.2294990  94.5949997
 123.8858260 110.6023035  94.8397298 128.4749992 110.5774990  95.0609997
 128.7579992 109.7824990  95.5139997 129.2149992 110.8104990  94.4999997
 128.6137295 110.5002349  95.0471469 119.4299992 106.4864990  94.9179997
 119.4939992 105.6924990  95.4489997 120.0829992 106.3684990  94.2289997
 119.5271168 106.3617748  94.8975119 124.7819992 107.5334990  94.6539997
 124.5139992 107.7144990  95.5549997 124.5759992 106.6084990  94.5229997
 124.7174251 107.4331528  94.7596809 127.4789992 106.0284990 109.6019997
 128.2239992 106.6174990 109.4819997 126.7209992 106.6104990 109.6649997
 127.4785185 106.1877000 109.5940940 120.5789992 104.4594990  97.2239997
 120.1199992 103.9754990  97.9099997 120.8339992 103.7904990  96.5879997
 120.5506178 104.3028511  97.2319785  43.8639992  23.5784990  84.1619997
  43.9069992  24.4384990  83.7439997  43.4059992  23.0254990  83.5289997
  43.8079613  23.6215689  84.0191276 119.8679992 102.3524990 109.5799997
 119.2499992 103.0264990 109.8609997 120.2119992 102.6734990 108.7469997
 119.8298181 102.4883233 109.5058266 121.6499992 102.7024990  95.4869997
 121.4699992 102.5474990  94.5589997 122.5999992 102.8104990  95.5309997
 121.7538016 102.6959264  95.3662123 131.0399992 105.0564990  94.9319997
 130.7669992 104.6324990  94.1189997 131.0799992 105.9884990  94.7149997
 131.0080201 105.1243523  94.7913548 120.6199992  98.0764990 108.1549997
 121.1559992  98.5284990 107.5029997 119.7679992  97.9684990 107.7329997
 120.5781648  98.1237883 108.0086395 122.2019992 103.5164990 108.3949997
 122.9529992 103.3604990 107.8219997 121.8629992 104.3684990 108.1189997
 122.2589052 103.6102745 108.2793469 121.4259992  95.5334990 108.5869997
 121.3279992  96.4794990 108.4809997 120.6829992  95.1604990 108.1109997
 121.3122363  95.6125987 108.5082029 121.5479992 113.3924990  96.4879997
 122.4809992 113.5504990  96.6319997 121.2829992 114.0684990  95.8629997
 121.6399846 113.5054567  96.4232930 115.1159992 108.0294990  95.9709997
 116.0299992 108.1084990  96.2439997 115.1229992 107.3424990  95.3039997
 115.2420769 107.9474735  95.9182366 113.7649992 113.4224990 101.0479997
 113.1179992 112.9604990 100.5149997 114.1199992 112.7504990 101.6309997
 113.7243861 113.2684707 101.0537939 114.6349992 111.5024990 102.8529997
 114.3009992 110.6224990 103.0249997 114.8569992 111.8484990 103.7169997
 114.6192677 111.4287365 102.9934252  51.5859992  23.7094990  82.5629997
  52.2319992  23.3804990  83.1879997  52.0959992  24.2264990  81.9399997
  51.7434392  23.7343710  82.5643248 132.1839992 112.3124990 105.8329997
 132.1619992 112.4974990 106.7719997 132.8739992 112.8804990 105.4919997
 132.2743439 112.4146898 105.9154774 131.7469992 111.8794990 108.7549997
 131.2599992 111.1434990 108.3839997 132.2959992 111.4854990 109.4329997
 131.7546101 111.7256267 108.7959034 131.4989992 105.9254990  98.9069997
 132.3489992 106.3464990  99.0349997 131.5039992 105.1854990  99.5149997
 131.6159745 105.8831347  99.0066479 131.8929992 103.9794990 100.7309997
 131.1669992 103.4994990 101.1289997 132.4739992 104.1844990 101.4629997
 131.8722504 103.9415592 100.8844199 131.6519992 106.7644990 105.6789997
 132.4859992 106.3864990 105.3979997 131.7639992 107.7074990 105.5599997
 131.7811917 106.8402954 105.6244844 130.1379992 109.6424990 107.9859997
 129.4909992 109.9674990 108.6109997 129.6209992 109.2014990 107.3109997
 129.9794068 109.6274726 107.9804918 132.1609992 103.8804990  97.1219997
 131.6399992 104.2364990  96.4029997 132.1279992 104.5554990  97.7999997
 132.0851525 104.0205273  97.1151408 130.5099992 101.1194990  95.6729997
 130.6069992 101.7864990  94.9929997 130.3699992 100.3044990  95.1909997
 130.5043428 101.1005667  95.5148311 129.6799992 102.5004990 101.2939997
 129.5299992 101.5554990 101.2739997 129.3259992 102.7814990 102.1379997
 129.6116351 102.4091656 101.4053202 114.7149992 104.5784990 105.3039997
 114.8989992 104.4964990 104.3689997 115.5639992 104.4544990 105.7279997
 114.8550259 104.5504915 105.2331771  40.4839992  25.9754990  84.9239997
  41.1379992  25.4254990  85.3559997  40.5079992  25.7014990  84.0079997
  40.5767022  25.8632005  84.8591698 129.7579992  98.5274990  94.7899997
 130.3679992  98.1564990  95.4269997 128.9209992  98.1064990  94.9859997
 129.7283704  98.4197942  94.9037077 129.3899992 100.0824990  99.7559997
 129.6699992  99.1754990  99.8809997 130.1489992 100.5164990  99.3669997
 129.5309471 100.0170654  99.7205052 130.0019992 100.6644990 105.1919997
 130.9349992 100.8764990 105.1579997 129.7669992 100.7654990 106.1149997
 130.0978357 100.7071303 105.3120232 130.0309992 101.4014990 107.9679997
 129.1879992 101.6694990 108.3339997 130.4739992 102.2234990 107.7569997
 129.9754358 101.5493294 107.9895999 130.0039992  97.3454990  99.8049997
 130.1859992  96.8964990 100.6299997 129.4039992  96.7614990  99.3409997
 129.9478187  97.2050563  99.8552721 115.5339992  98.1614990 104.3359997
 115.9789992  97.3694990 104.6379997 115.9999992  98.8774990 104.7669997
 115.6579059  98.1499485 104.4356061 113.8379992 101.1604990 105.4049997
 114.3299992 100.9394990 104.6149997 114.1999992 102.0004990 105.6859997
 113.9543429 101.2438220 105.3347918 131.8699992  97.4134990  96.3329997
 132.2829992  96.6924990  95.8569997 132.5519992  98.0824990  96.3909997
 132.0185712  97.4054304  96.2758247 114.1509992  97.4184990  99.4599997
 113.2259992  97.6264990  99.3299997 114.6049992  97.9024990  98.7699997
 114.0857401  97.5123895  99.3489433 128.9219992 112.4024990 101.4049997
 129.5739992 112.0544990 100.7969997 129.4329992 112.8904990 102.0509997
 129.0802872 112.4208248 101.4090964  45.6399992  27.5254990  84.1399997
  46.2559992  26.9984990  84.6489997  45.0539992  26.8854990  83.7359997
  45.6450652  27.3668919  84.1550277 114.1149992  96.1564990 107.8039997
 113.4499992  95.9104990 108.4469997 113.6719992  96.7784990 107.2269997
 113.9641168  96.2069225 107.8139830 119.2609992 110.3054990 108.2069997
 118.8359992 111.1154990 107.9239997 120.1649992 110.3914990 107.9049997
 119.3251002 110.4278728 108.1274798 130.8349992  95.5804990 109.4899997
 130.0219992  95.9054990 109.1019997 131.0679992  94.8194990 108.9569997
 130.7552566  95.5221570 109.3649196 116.6629992 113.5624990 108.2539997
 115.9419992 114.0024990 107.8029997 116.2969992 113.3114990 109.1029997
 116.5149785 113.5887691 108.3069849 119.1299992 113.1624990 107.2839997
 118.2649992 113.2344990 107.6879997 119.0749992 113.7094990 106.4999997
 119.0042066 113.2462678 107.2333371 123.8409992 113.0504990 106.4599997
 123.3839992 113.5794990 105.8059997 124.0029992 113.6534990 107.1849997
 123.8003919 113.2043990 106.4685740 126.1679992 111.9284990 107.4049997
 125.2639992 112.0934990 107.1389997 126.5969992 112.7814990 107.3389997
 126.1022017 112.0664184 107.3596495 128.7719992 113.4984990 107.6999997
 128.5909992 114.4144990 107.4889997 128.9489992 113.0874990 106.8529997
 128.7711377 113.5683365 107.5567178 116.0779992 112.1854990 105.1649997
 116.0589992 111.7594990 106.0219997 116.8819992 111.8664990 104.7559997
 116.1841393 112.0840297 105.2270155 118.2189992 110.8954990 103.8199997
 117.9999992 109.9784990 103.9889997 119.0429992 111.0354990 104.2859997
 118.3004637 110.7889586 103.9061414  56.6229992  24.1624990  89.6589997
  55.9339992  24.8204990  89.5639997  56.6379992  23.9644990  90.5959997
  56.5307756  24.2257614  89.7725795 120.7559992 111.3654990 104.6679997
 120.9689992 110.4774990 104.3809997 120.8209992 111.3304990 105.6229997
 120.7939075 111.2393318 104.7577355 124.2649992  97.0294990 103.8129997
 123.5899992  96.3994990 104.0679997 124.8289992  96.5454990 103.2099997
 124.2489558  96.8779283 103.7663451 129.4069992  95.1364990 103.9249997
 130.0109992  95.6844990 103.4239997 128.5379992  95.4554990 103.6849997
 129.3721126  95.2547070 103.8239180 131.1339992  96.2754990 102.2589997
 131.7459992  95.7614990 101.7319997 131.5169992  97.1524990 102.2819997
 131.2693867  96.3237613 102.1900888 116.5909992  95.6634990 101.6349997
 115.8139992  95.4284990 101.1269997 117.1219992  94.8664990 101.6439997
 116.5564443  95.5236721 101.5667200 115.4279992  95.4614990  97.4379997
 115.8669992  96.0724990  96.8469997 114.7939992  95.9994990  97.9119997
 115.4024103  95.6179233  97.4211376 121.1709992  95.5894990 101.4479997
 122.0449992  95.9784990 101.4179997 121.0349992  95.3744990 102.3709997
 121.2723125  95.6137120 101.5686523 126.7269992  95.6194990 103.0969997
 126.8039992  95.7154990 102.1479997 126.4519992  94.7124990 103.2259997
 126.7003407  95.5099188 102.9843532 128.0809992  95.6454990  98.7899997
 127.3779992  96.2604990  98.5799997 127.6359992  94.8084990  98.9209997
 127.9246550  95.6164679  98.7789819 115.3289992 111.4094990  98.3359997
 114.6439992 111.3714990  97.6679997 115.3319992 112.3214990  98.6239997
 115.2357358 111.5276744  98.2836145  42.6739992  22.4964990  88.2359997
  42.4549992  23.0264990  87.4699997  42.0059992  22.7224990  88.8839997
  42.5537271  22.5996508  88.2186206 117.2889992  97.3774990  95.8809997
 117.7799992  96.7474990  95.3529997 117.9119992  97.6734990  96.5439997
 117.4405459  97.3312419  95.8983667 122.3149992  97.6704990  98.3379997
 122.4929992  97.0234990  99.0209997 122.2609992  98.5044990  98.8049997
 122.3320678  97.6946615  98.4946283 124.1929992 112.6184990  96.7329997
 125.0589992 112.9854990  96.5549997 123.9459992 112.1794990  95.9199997
 124.2782041 112.6093648  96.5985958 130.9019992 112.1814990  99.4129997
 130.7079992 111.4334990  98.8479997 130.8629992 112.9394990  98.8289997
 130.8701907 112.1815770  99.2568077 117.1469992 112.3294990  95.3609997
 116.8789992 112.6154990  96.2339997 117.9179992 111.7834990  95.5129997
 117.2145600 112.2948341  95.5011482 135.8269992 103.6884990 106.6049997
 135.8679992 103.0634990 107.3289997 136.5299992 104.3124990 106.7869997
 135.9276054 103.6873262 106.7286311 136.7509992 108.1384990 105.1399997
 136.3809992 107.3364990 104.7709997 137.6919992 107.9704990 105.1869997
 136.8275630 108.0058680 105.0957873 133.3609992 101.7984990 100.5329997
 132.9129992 102.6444990 100.5149997 132.7999992 101.2194990 100.0179997
 133.2238546 101.8359004 100.4608874 134.0709992 103.9604990 102.6589997
 134.2849992 103.1904990 103.1859997 134.8089992 104.0504990 102.0559997
 134.2000073 103.8673546 102.6495786 138.1439992  99.0024990 103.0179997
 138.1869992  99.8624990 102.5999997 137.6859992  98.4494990 102.3849997
 138.0879613  99.0455689 102.8751276  50.0429992  31.9964990  81.7799997
  49.7469992  31.6734990  80.9289997  49.7189992  32.8964990  81.8219997
  49.9586501  32.0739058  81.6690893 134.7639992 101.3994990 103.7799997
 135.4179992 100.8494990 104.2119997 134.7879992 101.1254990 102.8639997
 134.8567022 101.2872005 103.7151698 136.9539992  97.9204990 107.0919997
 136.7349992  98.4504990 106.3259997 136.2859992  98.1464990 107.7399997
 136.8337271  98.0236508 107.0746206 139.5229992 105.5954990 107.3799997
 138.7829992 106.1944990 107.4829997 140.2369992 106.1494990 107.0639997
 139.5183288 105.7522368 107.3513787 136.5479992  99.8124990 105.0449997
 137.1609992 100.4454990 105.4179997 137.0599992  99.3404990 104.3879997
 136.7011680  99.8354006 105.0072830 137.9299992 107.5604990 108.1669997
 137.9249992 108.4394990 107.7889997 137.0769992 107.4764990 108.5919997
 137.8139199 107.6695901 108.1726942 134.0519992 107.2314990  98.9489997
 133.7799992 107.4604990  98.0599997 134.0969992 108.0684990  99.4089997
 134.0208709 107.3761069  98.8896089 138.2979992 104.9034990 101.8799997
 137.9679992 104.5324990 101.0609997 138.8859992 104.2324990 102.2259997
 138.3324056 104.7621257 101.8149035 138.6649992 103.6714990 105.5129997
 139.2299992 103.7934990 104.7499997 138.9829992 104.3094990 106.1519997
 138.7853430 103.7744448 105.4949094 136.4649992 104.2694990 109.4589997
 136.5349992 104.9204990 110.1569997 135.5739992 104.3724990 109.1239997
 136.3541802 104.3724769 109.5092231 137.2879992 103.9724990  99.4689997
 136.9959992 104.7404990  98.9779997 136.6139992 103.3134990  99.3059997
 137.1568843 103.9884537  99.3797695  45.2429992  30.1714990  88.5239997
  44.5029992  30.7704990  88.6269997  45.9569992  30.7254990  88.2079997
  45.2383288  30.3282368  88.4953787 133.3809992 106.3354990 108.2839997
 132.8799992 106.3074990 107.4689997 133.3869992 105.4304990 108.5939997
 133.3131690 106.2092234 108.2142770 133.1319992 109.1164990 105.1679997
 134.0779992 108.9714990 105.1489997 133.0189992 109.9004990 105.7049997
 133.2463578 109.2026708 105.2380300 136.3759992 111.9174990 101.3129997
 136.5279992 111.5694990 102.1919997 135.5249992 111.5604990 101.0579997
 136.2817899 111.8216749 101.3987322 135.6299992 107.6594990 109.3269997
 135.8459992 107.2974990 110.1869997 134.7749992 107.2844990 109.1169997
 135.5439349 107.5592914 109.4162134 138.2489992  96.1294990 105.3229997
 137.3869992  96.0424990 104.9149997 138.2269992  96.9854990 105.7499997
 138.1280953  96.2333558 105.3249262 138.3399992 101.0944990 106.4179997
 137.6979992 101.0544990 107.1269997 138.3769992 102.0214990 106.1799997
 138.2571659 101.2142540 106.4828463 138.3369992 101.3154990 101.3299997
 137.4439992 100.9754990 101.2709997 138.7879992 100.9384990 100.5739997
 138.2757185 101.2180220 101.2197698 136.0899992 101.4154990 108.2849997
 136.0519992 101.8154990 109.1529997 135.5989992 100.5984990 108.3749997
 136.0184246 101.3598842 108.4161171 139.4559992  98.7894990  95.0829997
 139.0249992  98.3444990  95.8129997 138.7379992  99.1604990  94.5709997
 139.2999363  98.7787979  95.1136194 132.6979992  98.5314990 102.1349997
 133.3289992  98.5024990 102.8549997 133.1479992  98.1064990 101.4049997
 132.8450905  98.4700839 102.1347479  53.3499992  23.0004990  84.5439997
  53.1349992  22.2344990  85.0759997  54.0059992  23.4724990  85.0569997
  53.4092451  22.9594472  84.6861699 133.9719992  99.2774990  97.5589997
 134.4469992  99.8684990  96.9739997 133.2549992  99.8074990  97.9059997
 133.9400406  99.4301011  97.5258495 135.7469992 100.3724990 101.2429997
 134.8579992 100.4714990 100.9029997 136.0429992  99.5304990 100.8969997
 135.6654001 100.2722473 101.1497318 139.3999992 100.3724990  98.8989997
 140.3319992 100.5014990  99.0769997 139.1849992 101.0414990  98.2499997
 139.4984245 100.4806452  98.8355602 138.0739992 101.5664990  96.4659997
 137.5319992 101.1874990  95.7749997 138.9079992 101.7614990  96.0369997
 138.1124283 101.5409383  96.3134298 137.2409992  97.6674990 100.7209997
 136.9229992  96.7644990 100.6859997 138.0219992  97.6694990 100.1689997
 137.3031560  97.5441148 100.6414975 136.5339992 105.4274990 104.1709997
 137.2789992 105.4244990 103.5699997 136.6119992 104.6034990 104.6529997
 136.6464158 105.3157928 104.1539136 133.5419992 103.8874990 109.4859997
 133.7649992 103.4694990 110.3179997 132.9399992 103.2754990 109.0639997
 133.4910802 103.7475216 109.5427561 138.9089992 108.9454990 101.5759997
 139.4359992 109.7184990 101.3749997 138.0289992 109.1694990 101.2739997
 138.8621793 109.0816652 101.5076304 134.6639992 103.8074990  96.1629997
 135.2799992 104.4344990  96.5419997 133.8019992 104.1234990  96.4339997
 134.6318195 103.9360810  96.2515369 139.0189992 111.6294990 100.6969997
 138.0699992 111.7354990 100.7489997 139.3709992 112.4504990 101.0419997
 138.9366214 111.7549361 100.7507317  42.2679992  24.3884990  86.1889997
  42.8809992  25.0214990  86.5619997  42.7799992  23.9164990  85.5319997
  42.4211680  24.4114006  86.1512830 135.1759992  98.6414990 109.0439997
 134.2829992  98.9794990 108.9769997 135.0769992  97.7854990 109.4619997
 135.0405241  98.5720941 109.0912982 134.8269992 110.4454990 107.4789997
 135.0439992 109.5134990 107.4479997 135.0739992 110.7204990 108.3629997
 134.8900543 110.3550877 107.5941412 136.0789992 105.7194990  97.6549997
 135.3929992 106.0724990  98.2219997 136.6019992 106.4824990  97.4089997
 136.0559033 105.8708757  97.6992644 138.4359992  97.9064990  97.4919997
 138.3529992  98.7944990  97.8379997 139.3259992  97.6414990  97.7229997
 138.5449751  97.9922482  97.5706066 136.6949992 108.3334990  96.5519997
 137.2869992 109.0334990  96.8279997 137.1539992 107.9004990  95.8329997
 136.8381172 108.3707371  96.4925163 135.0109992 100.9984990  95.6679997
 134.9659992 101.9374990  95.8469997 134.1229992 100.7624990  95.3979997
 134.8848472 101.0951946  95.6560282 135.8189992  95.7794990 104.3409997
 135.5899992  95.8384990 103.4139997 135.3759992  94.9884990 104.6479997
 135.7277387  95.6806412 104.2555223 134.7489992 109.7204990 100.5019997
 133.9169992 110.1924990 100.5289997 135.2949992 110.2304990  99.9029997
 134.7088710 109.8540317 100.4247570 138.2859992 106.4864990  94.9179997
 138.3499992 105.6924990  95.4489997 138.9389992 106.3684990  94.2289997
 138.3831168 106.3617748  94.8975119 139.4349992 104.4594990  97.2239997
 138.9759992 103.9754990  97.9099997 139.6899992 103.7904990  96.5879997
 139.4066178 104.3028511  97.2319785  43.6499992  32.1364990  89.3109997
  43.6449992  33.0154990  88.9329997  42.7969992  32.0524990  89.7359997
  43.5339199  32.2455901  89.3166942 138.7239992 102.3524990 109.5799997
 138.1059992 103.0264990 109.8609997 139.0679992 102.6734990 108.7469997
 138.6858181 102.4883233 109.5058266 139.4759992  98.0764990 108.1549997
 140.0119992  98.5284990 107.5029997 138.6239992  97.9684990 107.7329997
 139.4341648  98.1237883 108.0086395 133.9719992 108.0294990  95.9709997
 134.8859992 108.1084990  96.2439997 133.9789992 107.3424990  95.3039997
 134.0980769 107.9474735  95.9182366 132.6209992 113.4224990 101.0479997
 131.9739992 112.9604990 100.5149997 132.9759992 112.7504990 101.6309997
 132.5803861 113.2684707 101.0537939 133.4909992 111.5024990 102.8529997
 133.1569992 110.6224990 103.0249997 133.7129992 111.8484990 103.7169997
 133.4752677 111.4287366 102.9934252 133.5709992 104.5784990 105.3039997
 133.7549992 104.4964990 104.3689997 134.4199992 104.4544990 105.7279997
 133.7110259 104.5504915 105.2331771 134.3899992  98.1614990 104.3359997
 134.8349992  97.3694990 104.6379997 134.8559992  98.8774990 104.7669997
 134.5139059  98.1499485 104.4356061 132.6939992 101.1604990 105.4049997
 133.1859992 100.9394990 104.6149997 133.0559992 102.0004990 105.6859997
 132.8103429 101.2438220 105.3347918 133.0069992  97.4184990  99.4599997
 132.0819992  97.6264990  99.3299997 133.4609992  97.9024990  98.7699997
 132.9417401  97.5123895  99.3489433 132.9709992  96.1564990 107.8039997
 132.3059992  95.9104990 108.4469997 132.5279992  96.7784990 107.2269997
 132.8201168  96.2069225 107.8139830  39.7719992  31.8074990  80.0929997
  39.4999992  32.0364990  79.2039997  39.8169992  32.6444990  80.5529997
  39.7408709  31.9521069  80.0336089 138.1169992 110.3054990 108.2069997
 137.6919992 111.1154990 107.9239997 139.0209992 110.3914990 107.9049997
 138.1811002 110.4278728 108.1274798 135.5189992 113.5624990 108.2539997
 134.7979992 114.0024990 107.8029997 135.1529992 113.3114990 109.1029997
 135.3709785 113.5887691 108.3069849 137.9859992 113.1624990 107.2839997
 137.1209992 113.2344990 107.6879997 137.9309992 113.7094990 106.4999997
 137.8602066 113.2462678 107.2333371 134.9339992 112.1854990 105.1649997
 134.9149992 111.7594990 106.0219997 135.7379992 111.8664990 104.7559997
 135.0401393 112.0840297 105.2270155 137.0749992 110.8954990 103.8199997
 136.8559992 109.9784990 103.9889997 137.8989992 111.0354990 104.2859997
 137.1564637 110.7889586 103.9061414 135.4469992  95.6634990 101.6349997
 134.6699992  95.4284990 101.1269997 135.9779992  94.8664990 101.6439997
 135.4124443  95.5236721 101.5667200 134.2839992  95.4614990  97.4379997
 134.7229992  96.0724990  96.8469997 133.6499992  95.9994990  97.9119997
 134.2584103  95.6179233  97.4211376 134.1849992 111.4094990  98.3359997
 133.4999992 111.3714990  97.6679997 134.1879992 112.3214990  98.6239997
 134.0917358 111.5276744  98.2836145 136.1449992  97.3774990  95.8809997
 136.6359992  96.7474990  95.3529997 136.7679992  97.6734990  96.5439997
 136.2965459  97.3312419  95.8983667 136.0029992 112.3294990  95.3609997
 135.7349992 112.6154990  96.2339997 136.7739992 111.7834990  95.5129997
 136.0705600 112.2948341  95.5011482  53.3969992  33.4284990  86.8059997
  52.4549992  33.4874990  86.9669997  53.6729992  34.3344990  86.6689997
  53.3055771  33.5590270  86.8094827  12.5339992 123.6754990 101.5929997
  12.6229992 124.6194990 101.4609997  11.8949992 123.4004990 100.9349997
  12.4598319 123.7674984 101.4860276  11.4669992 122.9304990 105.0119997
  11.4279992 122.2844990 105.7169997  11.1439992 122.4634990 104.2409997
  11.4180199 122.7790089 105.0042865   3.8349992 122.5444990 106.6049997
   3.8759992 121.9194990 107.3289997   4.5379992 123.1684990 106.7869997
   3.9356054 122.5433262 106.7286311  15.1729992 125.8694990 103.3139997
  14.7319992 125.1494990 103.7639997  15.1599992 126.5904990 103.9439997
  15.1108398 125.8683187 103.4607734   4.7589992 126.9944990 105.1399997
   4.3889992 126.1924990 104.7709997   5.6999992 126.8264990 105.1869997
   4.8355630 126.8618680 105.0957873   1.3689992 120.6544990 100.5329997
   0.9209992 121.5004990 100.5149997   0.8079992 120.0754990 100.0179997
   1.2318546 120.6919004 100.4608874   2.0789992 122.8164990 102.6589997
   2.2929992 122.0464990 103.1859997   2.8169992 122.9064990 102.0559997
   2.2080073 122.7233546 102.6495786  12.2839992 130.9734990 103.5259997
  12.9039992 130.2974990 103.2529997  12.0759992 130.7554990 104.4339997
  12.3407360 130.8514792 103.6114387   9.8559992 125.3624990 105.4179997
  10.1599992 124.6764990 104.8239997  10.5779992 125.4814990 106.0359997
   9.9951152 125.2847201 105.4202106  18.5189992 116.9644990 106.2789997
  18.5679992 117.5744990 107.0149997  18.9449992 117.4254990 105.5559997
  18.5832851 117.1103266 106.2820532  53.6969992  21.7154990  88.2229997
  52.9609992  22.3254990  88.1849997  54.3809992  22.1304990  87.6969997
  53.6885885  21.8551924  88.1466931  12.9969992 119.7564990 105.7459997
  13.1389992 118.8104990 105.7659997  12.8909992 119.9634990 104.8169997
  13.0021158 119.6549722 105.6232241   6.1519992 117.8584990 103.0179997
   6.1949992 118.7184990 102.5999997   5.6939992 117.3054990 102.3849997
   6.0959613 117.9015689 102.8751276  13.8739992 117.9894990 101.4189997
  14.5199992 117.6604990 102.0439997  14.3839992 118.5064990 100.7959997
  14.0314392 118.0143710 101.4203248   2.7719992 120.2554990 103.7799997
   3.4259992 119.7054990 104.2119997   2.7959992 119.9814990 102.8639997
   2.8647022 120.1432005 103.7151698   7.9279992 121.8054990 102.9959997
   8.5439992 121.2784990 103.5049997   7.3419992 121.1654990 102.5919997
   7.9330652 121.6468919 103.0110277  18.9109992 118.4424990 108.5149997
  18.2219992 119.1004990 108.4199997  18.9259992 118.2444990 109.4519997
  18.8187756 118.5057614 108.6285795   4.9619992 116.7764990 107.0919997
   4.7429992 117.3064990 106.3259997   4.2939992 117.0024990 107.7399997
   4.8417271 116.8796508 107.0746206  12.3309992 126.2764990 100.6359997
  12.0349992 125.9534990  99.7849997  12.0069992 127.1764990 100.6779997
  12.2466501 126.3539058 100.5250893   7.5309992 124.4514990 107.3799997
   6.7909992 125.0504990 107.4829997   8.2449992 125.0054990 107.0639997
   7.5263288 124.6082368 107.3513787  15.6379992 117.2804990 103.3999997
  15.4229992 116.5144990 103.9319997  16.2939992 117.7524990 103.9129997
  15.6972451 117.2394472 103.5421699  46.6999992  19.8014990  85.6889997
  46.5829992  18.8534990  85.6349997  45.8449992  20.1344990  85.9619997
  46.5683691  19.7165842  85.7185072   4.5559992 118.6684990 105.0449997
   5.1689992 119.3014990 105.4179997   5.0679992 118.1964990 104.3879997
   4.7091680 118.6914006 105.0072830   5.9379992 126.4164990 108.1669997
   5.9329992 127.2954990 107.7889997   5.0849992 126.3324990 108.5919997
   5.8219199 126.5255901 108.1726942   2.0599992 126.0874990  98.9489997
   1.7879992 126.3164990  98.0599997   2.1049992 126.9244990  99.4089997
   2.0288709 126.2321069  98.8896089  15.6849992 127.7084990 105.6619997
  14.7429992 127.7674990 105.8229997  15.9609992 128.6144990 105.5249997
  15.5935771 127.8390270 105.6654827  15.9849992 115.9954990 107.0789997
  15.2489992 116.6054990 107.0409997  16.6689992 116.4104990 106.5529997
  15.9765885 116.1351924 107.0026931   8.9879992 114.0814990 104.5449997
   8.8709992 113.1334990 104.4909997   8.1329992 114.4144990 104.8179997
   8.8563691 113.9965842 104.5745072  13.9369992 129.4894990 102.2869997
  14.3619992 128.7824990 101.8019997  14.2539992 130.2914990 101.8699997
  14.0380266 129.5010201 102.1642461  15.0959992 127.3904990 100.7959997
  14.8389992 126.7004990 100.1839997  15.1669992 126.9474990 101.6409997
  15.0704322 127.2361568 100.8265372  16.7819992 125.9574990 109.2729997
  16.9219992 125.3654990 108.5339997  16.9499992 126.8304990 108.9169997
  16.8238734 125.9944041 109.1236937  11.2549992 122.9194990  99.0449997
  10.5429992 123.4544990  98.6939997  11.9459992 122.9744990  98.3849997
  11.2508696 123.0002591  98.9076372  51.6489992  35.2094990  83.4309997
  52.0739992  34.5024990  82.9459997  51.9659992  36.0114990  83.0139997
  51.7500266  35.2210201  83.3082461  11.3089992 121.3764990  96.0839997
  12.0099992 121.3994990  96.7349997  11.6109992 120.7484990  95.4279997
  11.4458282 121.2947350  96.0844478  18.6239992 122.2974990 107.3389997
  17.9719992 122.9914990 107.4279997  19.0889992 122.5074990 106.5289997
  18.5975357 122.4209544 107.2417056  14.6609992 123.1284990  99.9969997
  13.9289992 123.3574990 100.5699997  15.1079992 122.4154990 100.4519997
  14.6212753 123.0633984 100.1369698  14.5579992 121.3034990 109.0649997
  14.6379992 122.0664990 109.6369997  13.9569992 121.5824990 108.3739997
  14.4877115 121.4457707 109.0499631   6.3059992 123.7594990 101.8799997
   5.9759992 123.3884990 101.0609997   6.8939992 123.0884990 102.2259997
   6.3404056 123.6181257 101.8149035   7.6729992 127.1874990 104.5609997
   7.5779992 126.6084990 103.8039997   8.4019992 126.8164990 105.0569997
   7.7586161 127.0580902 104.5245192   6.6729992 122.5274990 105.5129997
   7.2379992 122.6494990 104.7499997   6.9909992 123.1654990 106.1519997
   6.7933430 122.6304448 105.4949094  12.9819992 128.0314990 106.2469997
  12.7409992 128.6934990 106.8949997  12.7839992 127.1964990 106.6719997
  12.9222662 128.0092704 106.3931008  13.5319992 122.2914990  97.6819997
  14.1109992 122.4414990  98.4289997  13.9459992 122.7614990  96.9589997
  13.6673122 122.3756288  97.6865024   4.4729992 123.1254990 109.4589997
   4.5429992 123.7764990 110.1569997   3.5819992 123.2284990 109.1239997
   4.3621802 123.2284769 109.5092231  52.8079992  33.1104990  81.9399997
  52.5509992  32.4204990  81.3279997  52.8789992  32.6674990  82.7849997
  52.7824322  32.9561568  81.9705372  11.2579992 129.0274990 101.1179997
  11.7319992 129.3234990 101.8949997  10.6949992 129.7664990 100.8839997
  11.2468460 129.1678336 101.1927626  17.2299992 114.0414990  97.4949997
  16.3299992 114.1794990  97.7899997  17.4819992 114.8724990  97.0929997
  17.1407355 114.1728200  97.4810539   5.2959992 122.8284990  99.4689997
   5.0039992 123.5964990  98.9779997   4.6219992 122.1694990  99.3059997
   5.1648843 122.8444537  99.3797695  18.4199992 128.4074990  95.8719997
  18.4929992 129.3464990  96.0419997  19.3249992 128.1024990  95.8149997
  18.5524168 128.4948531  95.8875736   1.3889992 125.1914990 108.2839997
   0.8879992 125.1634990 107.4689997   1.3949992 124.2864990 108.5939997
   1.3211690 125.0652234 108.2142770   1.1399992 127.9724990 105.1679997
   2.0859992 127.8274990 105.1489997   1.0269992 128.7564990 105.7049997
   1.2543578 128.0586708 105.2380300  10.3159992 128.2124990 109.7259997
  10.4029992 129.0384990 110.2009997   9.4519992 127.8824990 109.9749997
  10.2111944 128.2809871 109.8246558  10.7299992 131.9844990  99.5319997
  10.6549992 131.8634990  98.5859997  10.7629992 132.9334990  99.6509997
  10.7241862 132.0962492  99.4184840   4.3839992 130.7734990 101.3129997
   4.5359992 130.4254990 102.1919997   3.5329992 130.4164990 101.0579997
   4.2897899 130.6776749 101.3987322  13.8319992 131.1384990  96.5349997
  14.2069992 130.3944990  96.0639997  13.8359992 130.8684990  97.4529997
  13.8838969 131.0000920  96.5946475  54.4939992  31.6774990  90.4169997
  54.6339992  31.0854990  89.6779997  54.6619992  32.5504990  90.0609997
  54.5358734  31.7144041  90.2676937  13.5009992 131.0644990  99.2839997
  12.5659992 131.1644990  99.4629997  13.7809992 130.3544990  99.8619997
  13.4109270 130.9822300  99.3865984   3.6379992 126.5154990 109.3269997
   3.8539992 126.1534990 110.1869997   2.7829992 126.1404990 109.1169997
   3.5519349 126.4152914 109.4162134   6.2569992 114.9854990 105.3229997
   5.3949992 114.8984990 104.9149997   6.2349992 115.8414990 105.7499997
   6.1360953 115.0893558 105.3249262  10.9199992 114.7074990 108.6969997
  11.3399992 114.2924990 109.4499997   9.9869992 114.5284990 108.8139997
  10.8513736 114.6264921 108.8158950  14.2459992 118.4624990 109.5509997
  13.7319992 118.3374990 110.3479997  14.0909992 119.3754990 109.3059997
  14.1546643 118.5687068 109.6270624  15.0089992 123.3234990  95.3119997
  15.0509992 123.1014990  94.3819997  15.8579992 123.7224990  95.5019997
  15.1295253 123.3470510  95.2103804  10.5819992 117.1994990  95.9819997
  10.3279992 117.2184990  96.9049997  10.3249992 116.3284990  95.6809997
  10.5125133 117.0843121  96.0675065   6.3479992 119.9504990 106.4179997
   5.7059992 119.9104990 107.1269997   6.3849992 120.8774990 106.1799997
   6.2651659 120.0702540 106.4828463   6.3449992 120.1714990 101.3299997
   5.4519992 119.8314990 101.2709997   6.7959992 119.7944990 100.5739997
   6.2837185 120.0740220 101.2197698  11.8809992 120.5874990 100.1469997
  11.4719992 121.4024990  99.8549997  12.6009992 120.4474990  99.5319997
  11.9223946 120.6799963 100.0239616  56.3359992  28.0174990  88.4829997
  55.6839992  28.7114990  88.5719997  56.8009992  28.2274990  87.6729997
  56.3095357  28.1409544  88.3857056  12.8849992 120.0334990 102.9609997
  12.6899992 120.6394990 102.2459997  13.0669992 119.2004990 102.5259997
  12.8829272 120.0037955 102.8044075   4.0979992 120.2714990 108.2849997
   4.0599992 120.6714990 109.1529997   3.6069992 119.4544990 108.3749997
   4.0264246 120.2158842 108.4161171   7.4639992 117.6454990  95.0829997
   7.0329992 117.2004990  95.8129997   6.7459992 118.0164990  94.5709997
   7.3079363 117.6347979  95.1136194   0.7059992 117.3874990 102.1349997
   1.3369992 117.3584990 102.8549997   1.1559992 116.9624990 101.4049997
   0.8530905 117.3260839 102.1347479   1.9799992 118.1334990  97.5589997
   2.4549992 118.7244990  96.9739997   1.2629992 118.6634990  97.9059997
   1.9480406 118.2861011  97.5258495  12.1489992 121.6714990 107.6319997
  12.4729992 121.0404990 106.9889997  11.7089992 121.1374990 108.2929997
  12.1338707 121.5128261 107.6333195   8.9269992 117.5994990 102.4159997
   8.0159992 117.6564990 102.7049997   9.4319992 117.5394990 103.2269997
   8.8706873 117.5991838 102.5651190   3.7549992 119.2284990 101.2429997
   2.8659992 119.3274990 100.9029997   4.0509992 118.3864990 100.8969997
   3.6734001 119.1282473 101.1497318   7.4079992 119.2284990  98.8989997
   8.3399992 119.3574990  99.0769997   7.1929992 119.8974990  98.2499997
   7.5064245 119.3366452  98.8355602  13.3319992 116.8344990 105.6799997
  12.6549992 116.9654990 106.3439997  12.8459992 116.6794990 104.8699997
  13.1737265 116.8314665 105.6613380  52.3729992  28.8484990  81.1409997
  51.6409992  29.0774990  81.7139997  52.8199992  28.1354990  81.5959997
  52.3332753  28.7833984  81.2809698   6.0819992 120.4224990  96.4659997
   5.5399992 120.0434990  95.7749997   6.9159992 120.6174990  96.0369997
   6.1204283 120.3969383  96.3134298  10.2469992 120.3864990 104.3029997
  10.8109992 119.8404990 103.7559997  10.0989992 119.8654990 105.0919997
  10.3043037 120.2411798 104.3347212   5.2489992 116.5234990 100.7209997
   4.9309992 115.6204990 100.6859997   6.0299992 116.5254990 100.1689997
   5.3111560 116.4001148 100.6414975   8.8729992 118.7754990 106.7169997
   8.0379992 119.2294990 106.8269997   9.3969992 119.0514990 107.4689997
   8.8295070 118.8749677 106.8337134   9.4169992 124.9884990  98.4019997
   8.6719992 124.4804990  98.0789997   9.2829992 125.0374990  99.3479997
   9.2968633 124.9255714  98.4857563  16.5669992 124.1214990 107.1879997
  17.2089992 124.5774990 106.6449997  15.7369992 124.2344990 106.7259997
  16.5427352 124.1993223 107.0510234  13.3149992 117.8024990  96.6009997
  12.3759992 117.9134990  96.4499997  13.6119992 118.6584990  96.9069997
  13.2266371 117.9335327  96.6217362  10.9369992 125.1724990 109.6389997
  10.5909992 124.7904990 110.4449997  10.7369992 126.1054990 109.7099997
  10.8625400 125.2463489 109.7590401  14.0329992 119.6694990  98.2619997
  14.9249992 119.5314990  98.5809997  14.0899992 120.4604990  97.7249997
  14.1627380 119.7574777  98.2330981   4.5419992 124.2834990 104.1709997
   5.2869992 124.2804990 103.5699997   4.6199992 123.4594990 104.6529997
   4.6544158 124.1717928 104.1539136  52.2699992  27.0234990  90.2089997
  52.3499992  27.7864990  90.7809997  51.6689992  27.3024990  89.5179997
  52.1997115  27.1657707  90.1939631  11.5429992 126.4464990  97.4269997
  11.2479992 127.2734990  97.8089997  10.8399992 125.8274990  97.6229997
  11.4075855 126.4759458  97.5057634   1.5499992 122.7434990 109.4859997
   1.7729992 122.3254990 110.3179997   0.9479992 122.1314990 109.0639997
   1.4990802 122.6035216 109.5427561  13.1869992 127.6344990 109.5889997
  12.2859992 127.8174990 109.3209997  13.2209992 127.8934990 110.5099997
  13.0683021 127.6945505 109.6768206  18.9179992 119.8784990  97.9559997
  18.3639992 119.4824990  97.2839997  19.0189992 120.7894990  97.6789997
  18.8557084 119.9473565  97.8264381  17.2129992 128.6644990  98.4209997
  16.8409992 127.8394990  98.7309997  17.4909992 128.4814990  97.5239997
  17.1995997 128.5266160  98.3421551  14.3739992 123.4724990 105.4429997
  13.4459992 123.2414990 105.4159997  14.8249992 122.6954990 105.1129997
  14.3078165 123.3357785 105.3946772   6.9169992 127.8014990 101.5759997
   7.4439992 128.5744990 101.3749997   6.0369992 128.0254990 101.2739997
   6.8701793 127.9376652 101.5076304   2.6719992 122.6634990  96.1629997
   3.2879992 123.2904990  96.5419997   1.8099992 122.9794990  96.4339997
   2.6398195 122.7920810  96.2515369   8.3439992 125.4644990 101.1519997
   8.1029992 126.3894990 101.1939997   7.6039992 125.0054990 101.5479997
   8.2108934 125.5290881 101.2113191   8.8589992 129.6134990 107.4669997
   9.2219992 130.4674990 107.2339997   9.3909992 129.3214990 108.2079997
   8.9805141 129.6908907 107.5352079  44.0179992  29.4794990  83.0239997
  43.6879992  29.1084990  82.2049997  44.6059992  28.8084990  83.3699997
  44.0524056  29.3381257  82.9589035   7.0269992 130.4854990 100.6969997
   6.0779992 130.5914990 100.7489997   7.3789992 131.3064990 101.0419997
   6.9446214 130.6109361 100.7507317  12.4029992 125.7124990 107.1679997
  11.9769992 125.4844990 107.9939997  12.9839992 124.9734990 106.9849997
  12.4231587 125.5814084 107.2564111  14.6059992 126.6414990  96.2419997
  14.9589992 126.2614990  97.0459997  13.6569992 126.5474990  96.3279997
  14.5260985 126.5767330  96.3637738  15.0619992 130.2644990 109.6369997
  14.4599992 129.7084990 109.1419997  15.3429992 130.9314990 109.0109997
  15.0175757 130.2785755 109.4845657  19.1089992 131.1204990  96.4429997
  19.8529992 131.7064990  96.3029997  18.4149992 131.6894990  96.7759997
  19.1169809 131.2775830  96.4688572   3.1839992 117.4974990 109.0439997
   2.2909992 117.8354990 108.9769997   3.0849992 116.6414990 109.4619997
   3.0485241 117.4280941 109.0912982  15.4719992 125.3134990  98.4679997
  15.1949992 124.5854990  99.0239997  16.3989992 125.4324990  98.6739997
  15.5594181 125.2300068  98.5718972   2.8349992 129.3014990 107.4789997
   3.0519992 128.3694990 107.4479997   3.0819992 129.5764990 108.3629997
   2.8980543 129.2110877 107.5941412   8.6969992 127.7534990  94.6889997
   8.9359992 127.0044990  94.1409997   8.4279992 127.3654990  95.5209997
   8.6932804 127.5986524  94.7266352   7.6339992 127.3234990  97.1449997
   7.7809992 126.8034990  97.9349997   7.6309992 128.2304990  97.4509997
   7.6537300 127.3748975  97.2945877  45.3849992  32.9074990  85.7049997
  45.2899992  32.3284990  84.9479997  46.1139992  32.5364990  86.2009997
  45.4706161  32.7780902  85.6685192   4.0869992 124.5754990  97.6549997
   3.4009992 124.9284990  98.2219997   4.6099992 125.3384990  97.4089997
   4.0639033 124.7268757  97.6992644  11.9179992 117.2384990 107.9339997
  12.6169992 117.3124990 108.5839997  11.5379992 116.3734990 108.0889997
  11.9622095 117.1317402 108.0437982  12.7029992 116.8904990  99.0309997
  12.9229992 117.3614990  98.2279997  13.2609992 117.2844990  99.7019997
  12.8085851 117.0083272  99.0116134  10.3719992 129.0204990  97.8939997
   9.5549992 129.5174990  97.9469997  10.9009992 129.4964990  97.2539997
  10.3317898 129.1528123  97.8147274   9.9029992 118.6184990  99.8659997
  10.7149992 119.1224990  99.9119997   9.6579992 118.4734990 100.7799997
   9.9811091 118.6679366  99.9958552  10.4389992 119.6044990 109.0509997
  10.5579992 120.1784990 109.8079997  11.0939992 118.9164990 109.1659997
  10.5438684 119.5900205 109.1701656  10.7869992 115.6994990 100.8039997
  10.4399992 116.3164990 101.4489997  11.4449992 116.2004990 100.3229997
  10.8285290 115.8516384 100.8271635   7.7099992 130.0644990  97.8759997
   7.8709992 130.8644990  97.3749997   7.5129992 130.3714990  98.7609997
   7.7053919 130.2154140  97.9270988   6.4439992 116.7624990  97.4919997
   6.3609992 117.6504990  97.8379997   7.3339992 116.4974990  97.7229997
   6.5529751 116.8482482  97.5706066  16.6429992 117.5114990 109.8859997
  15.7269992 117.7734990 109.7979997  16.9789992 117.5084990 108.9889997
  16.5629789 117.5469637 109.7527829  44.3849992  28.2474990  86.6569997
  44.9499992  28.3694990  85.8939997  44.7029992  28.8854990  87.2959997
  44.5053430  28.3504448  86.6389094  15.2449992 121.2614990 103.9819997
  14.4479992 120.8464990 103.6529997  15.6899992 120.5714990 104.4729997
  15.1960317 121.1113197 104.0033556   4.7029992 127.1894990  96.5519997
   5.2949992 127.8894990  96.8279997   5.1619992 126.7564990  95.8329997
   4.8461172 127.2267371  96.4925163   3.0189992 119.8544990  95.6679997
   2.9739992 120.7934990  95.8469997   2.1309992 119.6184990  95.3979997
   2.8928472 119.9511946  95.6560282  16.3319992 130.5174990 105.6039997
  16.1759992 131.1964990 104.9469997  17.2639992 130.5894990 105.8069997
  16.4367328 130.6201586 105.5415529   3.8269992 114.6354990 104.3409997
   3.5979992 114.6944990 103.4139997   3.3839992 113.8444990 104.6479997
   3.7357387 114.5366412 104.2555223   2.7569992 128.5764990 100.5019997
   1.9249992 129.0484990 100.5289997   3.3029992 129.0864990  99.9029997
   2.7168710 128.7100317 100.4247570  10.7349992 129.6164990  94.8269997
  10.0909992 128.9854990  95.1489997  11.4969992 129.0854990  94.5949997
  10.7498260 129.4583035  94.8397298  15.3389992 129.4334990  95.0609997
  15.6219992 128.6384990  95.5139997  16.0789992 129.6664990  94.4999997
  15.4777295 129.3562349  95.0471469   6.2939992 125.3424990  94.9179997
   6.3579992 124.5484990  95.4489997   6.9469992 125.2244990  94.2289997
   6.3911168 125.2177747  94.8975119  11.6459992 126.3894990  94.6539997
  11.3779992 126.5704990  95.5549997  11.4399992 125.4644990  94.5229997
  11.5814251 126.2891528  94.7596809  50.6939992  33.7514990  87.3909997
  50.4529992  34.4134990  88.0389997  50.4959992  32.9164990  87.8159997
  50.6342662  33.7292704  87.5371008  14.3429992 124.8844990 109.6019997
  15.0879992 125.4734990 109.4819997  13.5849992 125.4664990 109.6649997
  14.3425185 125.0437000 109.5940940   7.4429992 123.3154990  97.2239997
   6.9839992 122.8314990  97.9099997   7.6979992 122.6464990  96.5879997
   7.4146178 123.1588511  97.2319785   6.7319992 121.2084990 109.5799997
   6.1139992 121.8824990 109.8609997   7.0759992 121.5294990 108.7469997
   6.6938181 121.3443233 109.5058266   8.5139992 121.5584990  95.4869997
   8.3339992 121.4034990  94.5589997   9.4639992 121.6664990  95.5309997
   8.6178016 121.5519264  95.3662123  17.9039992 123.9124990  94.9319997
  17.6309992 123.4884990  94.1189997  17.9439992 124.8444990  94.7149997
  17.8720201 123.9803523  94.7913548   7.4839992 116.9324990 108.1549997
   8.0199992 117.3844990 107.5029997   6.6319992 116.8244990 107.7329997
   7.4421648 116.9797883 108.0086395   9.0659992 122.3724990 108.3949997
   9.8169992 122.2164990 107.8219997   8.7269992 123.2244990 108.1189997
   9.1229052 122.4662745 108.2793469   8.2899992 114.3894990 108.5869997
   8.1919992 115.3354990 108.4809997   7.5469992 114.0164990 108.1109997
   8.1762363 114.4685987 108.5082029   8.4119992 132.2484990  96.4879997
   9.3449992 132.4064990  96.6319997   8.1469992 132.9244990  95.8629997
   8.5039846 132.3614567  96.4232930   1.9799992 126.8854990  95.9709997
   2.8939992 126.9644990  96.2439997   1.9869992 126.1984990  95.3039997
   2.1060769 126.8034735  95.9182366  45.2649992  32.6474990  91.3739997
  44.9529992  33.4294990  91.8299997  44.6149992  32.4944990  90.6879997
  45.1344643  32.7338019  91.3436657   0.6289992 132.2784990 101.0479997
  -0.0180008 131.8164990 100.5149997   0.9839992 131.6064990 101.6309997
   0.5883861 132.1244707 101.0537939   1.4989992 130.3584990 102.8529997
   1.1649992 129.4784990 103.0249997   1.7209992 130.7044990 103.7169997
   1.4832677 130.2847366 102.9934252  19.0479992 131.1684990 105.8329997
  19.0259992 131.3534990 106.7719997  19.7379992 131.7364990 105.4919997
  19.1383439 131.2706898 105.9154774  18.3629992 124.7814990  98.9069997
  19.2129992 125.2024990  99.0349997  18.3679992 124.0414990  99.5149997
  18.4799745 124.7391347  99.0066479  18.7569992 122.8354990 100.7309997
  18.0309992 122.3554990 101.1289997  19.3379992 123.0404990 101.4629997
  18.7362504 122.7975592 100.8844199  18.5159992 125.6204990 105.6789997
  19.3499992 125.2424990 105.3979997  18.6279992 126.5634990 105.5599997
  18.6451917 125.6962954 105.6244844  17.0019992 128.4984990 107.9859997
  16.3549992 128.8234990 108.6109997  16.4849992 128.0574990 107.3109997
  16.8434068 128.4834726 107.9804918  19.0249992 122.7364990  97.1219997
  18.5039992 123.0924990  96.4029997  18.9919992 123.4114990  97.7999997
  18.9491525 122.8765273  97.1151408  17.3739992 119.9754990  95.6729997
  17.4709992 120.6424990  94.9929997  17.2339992 119.1604990  95.1909997
  17.3683428 119.9565667  95.5148311  42.1849992  28.8454990  90.6029997
  42.2549992  29.4964990  91.3009997  41.2939992  28.9484990  90.2679997
  42.0741802  28.9484769  90.6532231  16.5439992 121.3564990 101.2939997
  16.3939992 120.4114990 101.2739997  16.1899992 121.6374990 102.1379997
  16.4756351 121.2651656 101.4053202   1.5789992 123.4344990 105.3039997
   1.7629992 123.3524990 104.3689997   2.4279992 123.3104990 105.7279997
   1.7190259 123.4064915 105.2331771  16.6219992 117.3834990  94.7899997
  17.2319992 117.0124990  95.4269997  15.7849992 116.9624990  94.9859997
  16.5923704 117.2757942  94.9037077  16.2539992 118.9384990  99.7559997
  16.5339992 118.0314990  99.8809997  17.0129992 119.3724990  99.3669997
  16.3949471 118.8730654  99.7205052  16.8659992 119.5204990 105.1919997
  17.7989992 119.7324990 105.1579997  16.6309992 119.6214990 106.1149997
  16.9618357 119.5631303 105.3120232  16.8949992 120.2574990 107.9679997
  16.0519992 120.5254990 108.3339997  17.3379992 121.0794990 107.7569997
  16.8394358 120.4053294 107.9895999  16.8679992 116.2014990  99.8049997
  17.0499992 115.7524990 100.6299997  16.2679992 115.6174990  99.3409997
  16.8118187 116.0610563  99.8552721   2.3979992 117.0174990 104.3359997
   2.8429992 116.2254990 104.6379997   2.8639992 117.7334990 104.7669997
   2.5219059 117.0059485 104.4356061   0.7019992 120.0164990 105.4049997
   1.1939992 119.7954990 104.6149997   1.0639992 120.8564990 105.6859997
   0.8183429 120.0998220 105.3347918  18.7339992 116.2694990  96.3329997
  19.1469992 115.5484990  95.8569997  19.4159992 116.9384990  96.3909997
  18.8825712 116.2614304  96.2758247  48.9699992  34.7474990  82.2619997
  49.4439992  35.0434990  83.0389997  48.4069992  35.4864990  82.0279997
  48.9588460  34.8878336  82.3367626   1.0149992 116.2744990  99.4599997
   0.0899992 116.4824990  99.3299997   1.4689992 116.7584990  98.7699997
   0.9497401 116.3683895  99.3489433  15.7859992 131.2584990 101.4049997
  16.4379992 130.9104990 100.7969997  16.2969992 131.7464990 102.0509997
  15.9442872 131.2768248 101.4090964   0.9789992 115.0124990 107.8039997
   0.3139992 114.7664990 108.4469997   0.5359992 115.6344990 107.2269997
   0.8281168 115.0629225 107.8139830   6.1249992 129.1614990 108.2069997
   5.6999992 129.9714990 107.9239997   7.0289992 129.2474990 107.9049997
   6.1891002 129.2838728 108.1274798  17.6989992 114.4364990 109.4899997
  16.8859992 114.7614990 109.1019997  17.9319992 113.6754990 108.9569997
  17.6192566 114.3781570 109.3649196   3.5269992 132.4184990 108.2539997
   2.8059992 132.8584990 107.8029997   3.1609992 132.1674990 109.1029997
   3.3789785 132.4447691 108.3069849   5.9939992 132.0184990 107.2839997
   5.1289992 132.0904990 107.6879997   5.9389992 132.5654990 106.4999997
   5.8682066 132.1022678 107.2333371  10.7049992 131.9064990 106.4599997
  10.2479992 132.4354990 105.8059997  10.8669992 132.5094990 107.1849997
  10.6643919 132.0603990 106.4685740  13.0319992 130.7844990 107.4049997
  12.1279992 130.9494990 107.1389997  13.4609992 131.6374990 107.3389997
  12.9662017 130.9224184 107.3596495  15.6359992 132.3544990 107.6999997
  15.4549992 133.2704990 107.4889997  15.8129992 131.9434990 106.8529997
  15.6351377 132.4243365 107.5567178  43.5039992  34.7184990  92.1379997
  43.5119992  34.5824990  91.1899997  42.5879992  34.6014990  92.3899997
  43.3812512  34.6840663  92.0423179   2.9419992 131.0414990 105.1649997
   2.9229992 130.6154990 106.0219997   3.7459992 130.7224990 104.7559997
   3.0481393 130.9400297 105.2270155   5.0829992 129.7514990 103.8199997
   4.8639992 128.8344990 103.9889997   5.9069992 129.8914990 104.2859997
   5.1644637 129.6449586 103.9061414   7.6199992 130.2214990 104.6679997
   7.8329992 129.3334990 104.3809997   7.6849992 130.1864990 105.6229997
   7.6579075 130.0953318 104.7577355  11.1289992 115.8854990 103.8129997
  10.4539992 115.2554990 104.0679997  11.6929992 115.4014990 103.2099997
  11.1129558 115.7339283 103.7663451  16.2709992 113.9924990 103.9249997
  16.8749992 114.5404990 103.4239997  15.4019992 114.3114990 103.6849997
  16.2361126 114.1107070 103.8239180  17.9979992 115.1314990 102.2589997
  18.6099992 114.6174990 101.7319997  18.3809992 116.0084990 102.2819997
  18.1333867 115.1797613 102.1900888   3.4549992 114.5194990 101.6349997
   2.6779992 114.2844990 101.1269997   3.9859992 113.7224990 101.6439997
   3.4204443 114.3796721 101.5667200   2.2919992 114.3174990  97.4379997
   2.7309992 114.9284990  96.8469997   1.6579992 114.8554990  97.9119997
   2.2664103 114.4739233  97.4211376   8.0349992 114.4454990 101.4479997
   8.9089992 114.8344990 101.4179997   7.8989992 114.2304990 102.3709997
   8.1363125 114.4697120 101.5686523  13.5909992 114.4754990 103.0969997
  13.6679992 114.5714990 102.1479997  13.3159992 113.5684990 103.2259997
  13.5643407 114.3659188 102.9843532  54.9419992  19.7614990  78.6389997
  54.0419992  19.8994990  78.9339997  55.1939992  20.5924990  78.2369997
  54.8527355  19.8928200  78.6250539  14.9449992 114.5014990  98.7899997
  14.2419992 115.1164990  98.5799997  14.4999992 113.6644990  98.9209997
  14.7886550 114.4724679  98.7789819   2.1929992 130.2654990  98.3359997
   1.5079992 130.2274990  97.6679997   2.1959992 131.1774990  98.6239997
   2.0997358 130.3836744  98.2836145   4.1529992 116.2334990  95.8809997
   4.6439992 115.6034990  95.3529997   4.7759992 116.5294990  96.5439997
   4.3045459 116.1872419  95.8983667   9.1789992 116.5264990  98.3379997
   9.3569992 115.8794990  99.0209997   9.1249992 117.3604990  98.8049997
   9.1960678 116.5506615  98.4946283  11.0569992 131.4744990  96.7329997
  11.9229992 131.8414990  96.5549997  10.8099992 131.0354990  95.9199997
  11.1422041 131.4653648  96.5985958  17.7659992 131.0374990  99.4129997
  17.5719992 130.2894990  98.8479997  17.7269992 131.7954990  98.8289997
  17.7341907 131.0375770  99.2568077   4.0109992 131.1854990  95.3609997
   3.7429992 131.4714990  96.2339997   4.7819992 130.6394990  95.5129997
   4.0785600 131.1508341  95.5011482  31.3899992 123.6754990 101.5929997
  31.4789992 124.6194990 101.4609997  30.7509992 123.4004990 100.9349997
  31.3158319 123.7674984 101.4860276  30.3229992 122.9304990 105.0119997
  30.2839992 122.2844990 105.7169997  29.9999992 122.4634990 104.2409997
  30.2740199 122.7790089 105.0042865  22.6909992 122.5444990 106.6049997
  22.7319992 121.9194990 107.3289997  23.3939992 123.1684990 106.7869997
  22.7916054 122.5433262 106.7286311  43.0079992  28.5484990  80.6129997
  42.7159992  29.3164990  80.1219997  42.3339992  27.8894990  80.4499997
  42.8768843  28.5644537  80.5237695  34.0289992 125.8694990 103.3139997
  33.5879992 125.1494990 103.7639997  34.0159992 126.5904990 103.9439997
  33.9668398 125.8683187 103.4607734  23.6149992 126.9944990 105.1399997
  23.2449992 126.1924990 104.7709997  24.5559992 126.8264990 105.1869997
  23.6915630 126.8618680 105.0957873  20.2249992 120.6544990 100.5329997
  19.7769992 121.5004990 100.5149997  19.6639992 120.0754990 100.0179997
  20.0878546 120.6919004 100.4608874  20.9349992 122.8164990 102.6589997
  21.1489992 122.0464990 103.1859997  21.6729992 122.9064990 102.0559997
  21.0640073 122.7233546 102.6495786  31.1399992 130.9734990 103.5259997
  31.7599992 130.2974990 103.2529997  30.9319992 130.7554990 104.4339997
  31.1967360 130.8514792 103.6114387  28.7119992 125.3624990 105.4179997
  29.0159992 124.6764990 104.8239997  29.4339992 125.4814990 106.0359997
  28.8511152 125.2847201 105.4202106  37.3749992 116.9644990 106.2789997
  37.4239992 117.5744990 107.0149997  37.8009992 117.4254990 105.5559997
  37.4392851 117.1103266 106.2820532  31.8529992 119.7564990 105.7459997
  31.9949992 118.8104990 105.7659997  31.7469992 119.9634990 104.8169997
  31.8581158 119.6549722 105.6232241  25.0079992 117.8584990 103.0179997
  25.0509992 118.7184990 102.5999997  24.5499992 117.3054990 102.3849997
  24.9519613 117.9015689 102.8751276  32.7299992 117.9894990 101.4189997
  33.3759992 117.6604990 102.0439997  33.2399992 118.5064990 100.7959997
  32.8874392 118.0143710 101.4203248  39.1009992  30.9114990  89.4279997
  38.5999992  30.8834990  88.6129997  39.1069992  30.0064990  89.7379997
  39.0331690  30.7852234  89.3582770  21.6279992 120.2554990 103.7799997
  22.2819992 119.7054990 104.2119997  21.6519992 119.9814990 102.8639997
  21.7207022 120.1432005 103.7151698  26.7839992 121.8054990 102.9959997
  27.3999992 121.2784990 103.5049997  26.1979992 121.1654990 102.5919997
  26.7890652 121.6468919 103.0110277  37.7669992 118.4424990 108.5149997
  37.0779992 119.1004990 108.4199997  37.7819992 118.2444990 109.4519997
  37.6747756 118.5057614 108.6285795  23.8179992 116.7764990 107.0919997
  23.5989992 117.3064990 106.3259997  23.1499992 117.0024990 107.7399997
  23.6977271 116.8796508 107.0746206  31.1869992 126.2764990 100.6359997
  30.8909992 125.9534990  99.7849997  30.8629992 127.1764990 100.6779997
  31.1026501 126.3539058 100.5250893  26.3869992 124.4514990 107.3799997
  25.6469992 125.0504990 107.4829997  27.1009992 125.0054990 107.0639997
  26.3823288 124.6082368 107.3513787  34.4939992 117.2804990 103.3999997
  34.2789992 116.5144990 103.9319997  35.1499992 117.7524990 103.9129997
  34.5532451 117.2394472 103.5421699  23.4119992 118.6684990 105.0449997
  24.0249992 119.3014990 105.4179997  23.9239992 118.1964990 104.3879997
  23.5651680 118.6914006 105.0072830  24.7939992 126.4164990 108.1669997
  24.7889992 127.2954990 107.7889997  23.9409992 126.3324990 108.5919997
  24.6779199 126.5255901 108.1726942  20.9159992 126.0874990  98.9489997
  20.6439992 126.3164990  98.0599997  20.9609992 126.9244990  99.4089997
  20.8848709 126.2321069  98.8896089  38.8519992  33.6924990  86.3119997
  39.7979992  33.5474990  86.2929997  38.7389992  34.4764990  86.8489997
  38.9663578  33.7786708  86.3820300  34.5409992 127.7084990 105.6619997
  33.5989992 127.7674990 105.8229997  34.8169992 128.6144990 105.5249997
  34.4495771 127.8390270 105.6654827  34.8409992 115.9954990 107.0789997
  34.1049992 116.6054990 107.0409997  35.5249992 116.4104990 106.5529997
  34.8325885 116.1351924 107.0026931  27.8439992 114.0814990 104.5449997
  27.7269992 113.1334990 104.4909997  26.9889992 114.4144990 104.8179997
  27.7123691 113.9965842 104.5745072  32.7929992 129.4894990 102.2869997
  33.2179992 128.7824990 101.8019997  33.1099992 130.2914990 101.8699997
  32.8940266 129.5010201 102.1642461  33.9519992 127.3904990 100.7959997
  33.6949992 126.7004990 100.1839997  34.0229992 126.9474990 101.6409997
  33.9264322 127.2361568 100.8265372  35.6379992 125.9574990 109.2729997
  35.7779992 125.3654990 108.5339997  35.8059992 126.8304990 108.9169997
  35.6798734 125.9944041 109.1236937  30.1109992 122.9194990  99.0449997
  29.3989992 123.4544990  98.6939997  30.8019992 122.9744990  98.3849997
  30.1068696 123.0002591  98.9076372  30.1649992 121.3764990  96.0839997
  30.8659992 121.3994990  96.7349997  30.4669992 120.7484990  95.4279997
  30.3018282 121.2947350  96.0844478  37.4799992 122.2974990 107.3389997
  36.8279992 122.9914990 107.4279997  37.9449992 122.5074990 106.5289997
  37.4535357 122.4209544 107.2417056  33.5169992 123.1284990  99.9969997
  32.7849992 123.3574990 100.5699997  33.9639992 122.4154990 100.4519997
  33.4772753 123.0633984 100.1369698  57.0489992  34.3584990  91.9939997
  56.9999992  33.4024990  91.9569997  56.2229992  34.6254990  92.3959997
  56.9305767  34.2638841  92.0433133  33.4139992 121.3034990 109.0649997
  33.4939992 122.0664990 109.6369997  32.8129992 121.5824990 108.3739997
  33.3437115 121.4457707 109.0499631  25.1619992 123.7594990 101.8799997
  24.8319992 123.3884990 101.0609997  25.7499992 123.0884990 102.2259997
  25.1964056 123.6181257 101.8149035  26.5289992 127.1874990 104.5609997
  26.4339992 126.6084990 103.8039997  27.2579992 126.8164990 105.0569997
  26.6146161 127.0580902 104.5245192  25.5289992 122.5274990 105.5129997
  26.0939992 122.6494990 104.7499997  25.8469992 123.1654990 106.1519997
  25.6493430 122.6304448 105.4949094  31.8379992 128.0314990 106.2469997
  31.5969992 128.6934990 106.8949997  31.6399992 127.1964990 106.6719997
  31.7782662 128.0092704 106.3931008  32.3879992 122.2914990  97.6819997
  32.9669992 122.4414990  98.4289997  32.8019992 122.7614990  96.9589997
  32.5233122 122.3756288  97.6865024  23.3289992 123.1254990 109.4589997
  23.3989992 123.7764990 110.1569997  22.4379992 123.2284990 109.1239997
  23.2181802 123.2284769 109.5092231  30.1139992 129.0274990 101.1179997
  30.5879992 129.3234990 101.8949997  29.5509992 129.7664990 100.8839997
  30.1028460 129.1678336 101.1927626  36.0859992 114.0414990  97.4949997
  35.1859992 114.1794990  97.7899997  36.3379992 114.8724990  97.0929997
  35.9967355 114.1728200  97.4810539  24.1519992 122.8284990  99.4689997
  23.8599992 123.5964990  98.9779997  23.4779992 122.1694990  99.3059997
  24.0208843 122.8444537  99.3797695  48.0279992  33.9324990  90.8699997
  48.1149992  34.7584990  91.3449997  47.1639992  33.6024990  91.1189997
  47.9231944  34.0009871  90.9686558  37.2759992 128.4074990  95.8719997
  37.3489992 129.3464990  96.0419997  38.1809992 128.1024990  95.8149997
  37.4084168 128.4948531  95.8875736  20.2449992 125.1914990 108.2839997
  19.7439992 125.1634990 107.4689997  20.2509992 124.2864990 108.5939997
  20.1771690 125.0652234 108.2142770  19.9959992 127.9724990 105.1679997
  20.9419992 127.8274990 105.1489997  19.8829992 128.7564990 105.7049997
  20.1103578 128.0586708 105.2380300  29.1719992 128.2124990 109.7259997
  29.2589992 129.0384990 110.2009997  28.3079992 127.8824990 109.9749997
  29.0671944 128.2809871 109.8246558  29.5859992 131.9844990  99.5319997
  29.5109992 131.8634990  98.5859997  29.6189992 132.9334990  99.6509997
  29.5801862 132.0962492  99.4184840  23.2399992 130.7734990 101.3129997
  23.3919992 130.4254990 102.1919997  22.3889992 130.4164990 101.0579997
  23.1457899 130.6776749 101.3987322  32.6879992 131.1384990  96.5349997
  33.0629992 130.3944990  96.0639997  32.6919992 130.8684990  97.4529997
  32.7398969 131.0000920  96.5946475  32.3569992 131.0644990  99.2839997
  31.4219992 131.1644990  99.4629997  32.6369992 130.3544990  99.8619997
  32.2669270 130.9822300  99.3865984  22.4939992 126.5154990 109.3269997
  22.7099992 126.1534990 110.1869997  21.6389992 126.1404990 109.1169997
  22.4079349 126.4152914 109.4162134  25.1129992 114.9854990 105.3229997
  24.2509992 114.8984990 104.9149997  25.0909992 115.8414990 105.7499997
  24.9920953 115.0893558 105.3249262  48.4419992  37.7044990  80.6759997
  48.3669992  37.5834990  79.7299997  48.4749992  38.6534990  80.7949997
  48.4361862  37.8162492  80.5624840  29.7759992 114.7074990 108.6969997
  30.1959992 114.2924990 109.4499997  28.8429992 114.5284990 108.8139997
  29.7073736 114.6264921 108.8158950  33.1019992 118.4624990 109.5509997
  32.5879992 118.3374990 110.3479997  32.9469992 119.3754990 109.3059997
  33.0106643 118.5687068 109.6270624  33.8649992 123.3234990  95.3119997
  33.9069992 123.1014990  94.3819997  34.7139992 123.7224990  95.5019997
  33.9855253 123.3470510  95.2103804  29.4379992 117.1994990  95.9819997
  29.1839992 117.2184990  96.9049997  29.1809992 116.3284990  95.6809997
  29.3685133 117.0843121  96.0675065  25.2039992 119.9504990 106.4179997
  24.5619992 119.9104990 107.1269997  25.2409992 120.8774990 106.1799997
  25.1211659 120.0702540 106.4828463  25.2009992 120.1714990 101.3299997
  24.3079992 119.8314990 101.2709997  25.6519992 119.7944990 100.5739997
  25.1397185 120.0740220 101.2197698  30.7369992 120.5874990 100.1469997
  30.3279992 121.4024990  99.8549997  31.4569992 120.4474990  99.5319997
  30.7783946 120.6799963 100.0239616  31.7409992 120.0334990 102.9609997
  31.5459992 120.6394990 102.2459997  31.9229992 119.2004990 102.5259997
  31.7389272 120.0037955 102.8044075  22.9539992 120.2714990 108.2849997
  22.9159992 120.6714990 109.1529997  22.4629992 119.4544990 108.3749997
  22.8824246 120.2158842 108.4161171  26.3199992 117.6454990  95.0829997
  25.8889992 117.2004990  95.8129997  25.6019992 118.0164990  94.5709997
  26.1639363 117.6347979  95.1136194  42.0959992  36.4934990  82.4569997
  42.2479992  36.1454990  83.3359997  41.2449992  36.1364990  82.2019997
  42.0017899  36.3976749  82.5427322  19.5619992 117.3874990 102.1349997
  20.1929992 117.3584990 102.8549997  20.0119992 116.9624990 101.4049997
  19.7090905 117.3260839 102.1347479  20.8359992 118.1334990  97.5589997
  21.3109992 118.7244990  96.9739997  20.1189992 118.6634990  97.9059997
  20.8040406 118.2861011  97.5258495  31.0049992 121.6714990 107.6319997
  31.3289992 121.0404990 106.9889997  30.5649992 121.1374990 108.2929997
  30.9898707 121.5128261 107.6333195  27.7829992 117.5994990 102.4159997
  26.8719992 117.6564990 102.7049997  28.2879992 117.5394990 103.2269997
  27.7266873 117.5991838 102.5651190  22.6109992 119.2284990 101.2429997
  21.7219992 119.3274990 100.9029997  22.9069992 118.3864990 100.8969997
  22.5294001 119.1282473 101.1497318  26.2639992 119.2284990  98.8989997
  27.1959992 119.3574990  99.0769997  26.0489992 119.8974990  98.2499997
  26.3624245 119.3366452  98.8355602  32.1879992 116.8344990 105.6799997
  31.5109992 116.9654990 106.3439997  31.7019992 116.6794990 104.8699997
  32.0297265 116.8314665 105.6613380  24.9379992 120.4224990  96.4659997
  24.3959992 120.0434990  95.7749997  25.7719992 120.6174990  96.0369997
  24.9764283 120.3969383  96.3134298  29.1029992 120.3864990 104.3029997
  29.6669992 119.8404990 103.7559997  28.9549992 119.8654990 105.0919997
  29.1603037 120.2411798 104.3347212  24.1049992 116.5234990 100.7209997
  23.7869992 115.6204990 100.6859997  24.8859992 116.5254990 100.1689997
  24.1671560 116.4001148 100.6414975  51.2129992  36.7844990  80.4279997
  50.2779992  36.8844990  80.6069997  51.4929992  36.0744990  81.0059997
  51.1229270  36.7022300  80.5305984  27.7289992 118.7754990 106.7169997
  26.8939992 119.2294990 106.8269997  28.2529992 119.0514990 107.4689997
  27.6855070 118.8749677 106.8337134  28.2729992 124.9884990  98.4019997
  27.5279992 124.4804990  98.0789997  28.1389992 125.0374990  99.3479997
  28.1528633 124.9255714  98.4857563  35.4229992 124.1214990 107.1879997
  36.0649992 124.5774990 106.6449997  34.5929992 124.2344990 106.7259997
  35.3987352 124.1993223 107.0510234  32.1709992 117.8024990  96.6009997
  31.2319992 117.9134990  96.4499997  32.4679992 118.6584990  96.9069997
  32.0826371 117.9335327  96.6217362  29.7929992 125.1724990 109.6389997
  29.4469992 124.7904990 110.4449997  29.5929992 126.1054990 109.7099997
  29.7185400 125.2463489 109.7590401  32.8889992 119.6694990  98.2619997
  33.7809992 119.5314990  98.5809997  32.9459992 120.4604990  97.7249997
  33.0187380 119.7574777  98.2330981  23.3979992 124.2834990 104.1709997
  24.1429992 124.2804990 103.5699997  23.4759992 123.4594990 104.6529997
  23.5104158 124.1717928 104.1539136  30.3989992 126.4464990  97.4269997
  30.1039992 127.2734990  97.8089997  29.6959992 125.8274990  97.6229997
  30.2635855 126.4759458  97.5057634  20.4059992 122.7434990 109.4859997
  20.6289992 122.3254990 110.3179997  19.8039992 122.1314990 109.0639997
  20.3550802 122.6035216 109.5427561  32.0429992 127.6344990 109.5889997
  31.1419992 127.8174990 109.3209997  32.0769992 127.8934990 110.5099997
  31.9243021 127.6945505 109.6768206  54.2009992  25.8514990  92.4739997
  53.7939992  26.3314990  91.7539997  54.2419992  24.9454990  92.1669997
  54.1507178  25.7948609  92.3337441  37.7739992 119.8784990  97.9559997
  37.2199992 119.4824990  97.2839997  37.8749992 120.7894990  97.6789997
  37.7117084 119.9473565  97.8264381  36.0689992 128.6644990  98.4209997
  35.6969992 127.8394990  98.7309997  36.3469992 128.4814990  97.5239997
  36.0555997 128.5266160  98.3421551  33.2299992 123.4724990 105.4429997
  32.3019992 123.2414990 105.4159997  33.6809992 122.6954990 105.1129997
  33.1638165 123.3357785 105.3946772  25.7729992 127.8014990 101.5759997
  26.2999992 128.5744990 101.3749997  24.8929992 128.0254990 101.2739997
  25.7261793 127.9376652 101.5076304  21.5279992 122.6634990  96.1629997
  22.1439992 123.2904990  96.5419997  20.6659992 122.9794990  96.4339997
  21.4958195 122.7920810  96.2515369  27.1999992 125.4644990 101.1519997
  26.9589992 126.3894990 101.1939997  26.4599992 125.0054990 101.5479997
  27.0668934 125.5290881 101.2113191  27.7149992 129.6134990 107.4669997
  28.0779992 130.4674990 107.2339997  28.2469992 129.3214990 108.2079997
  27.8365141 129.6908907 107.5352079  25.8829992 130.4854990 100.6969997
  24.9339992 130.5914990 100.7489997  26.2349992 131.3064990 101.0419997
  25.8006214 130.6109361 100.7507317  31.2589992 125.7124990 107.1679997
  30.8329992 125.4844990 107.9939997  31.8399992 124.9734990 106.9849997
  31.2791587 125.5814084 107.2564111  33.4619992 126.6414990  96.2419997
  33.8149992 126.2614990  97.0459997  32.5129992 126.5474990  96.3279997
  33.3820985 126.5767330  96.3637738  41.3499992  32.2354990  90.4709997
  41.5659992  31.8734990  91.3309997  40.4949992  31.8604990  90.2609997
  41.2639349  32.1352914  90.5602134  33.9179992 130.2644990 109.6369997
  33.3159992 129.7084990 109.1419997  34.1989992 130.9314990 109.0109997
  33.8735757 130.2785755 109.4845657  37.9649992 131.1204990  96.4429997
  38.7089992 131.7064990  96.3029997  37.2709992 131.6894990  96.7759997
  37.9729809 131.2775830  96.4688572  22.0399992 117.4974990 109.0439997
  21.1469992 117.8354990 108.9769997  21.9409992 116.6414990 109.4619997
  21.9045241 117.4280941 109.0912982  34.3279992 125.3134990  98.4679997
  34.0509992 124.5854990  99.0239997  35.2549992 125.4324990  98.6739997
  34.4154181 125.2300068  98.5718972  21.6909992 129.3014990 107.4789997
  21.9079992 128.3694990 107.4479997  21.9379992 129.5764990 108.3629997
  21.7540543 129.2110877 107.5941412  27.5529992 127.7534990  94.6889997
  27.7919992 127.0044990  94.1409997  27.2839992 127.3654990  95.5209997
  27.5492804 127.5986524  94.7266352  26.4899992 127.3234990  97.1449997
  26.6369992 126.8034990  97.9349997  26.4869992 128.2304990  97.4509997
  26.5097300 127.3748975  97.2945877  22.9429992 124.5754990  97.6549997
  22.2569992 124.9284990  98.2219997  23.4659992 125.3384990  97.4089997
  22.9199033 124.7268757  97.6992644  30.7739992 117.2384990 107.9339997
  31.4729992 117.3124990 108.5839997  30.3939992 116.3734990 108.0889997
  30.8182095 117.1317402 108.0437982  31.5589992 116.8904990  99.0309997
  31.7789992 117.3614990  98.2279997  32.1169992 117.2844990  99.7019997
  31.6645851 117.0083272  99.0116134  43.9689992  20.7054990  86.4669997
  43.1069992  20.6184990  86.0589997  43.9469992  21.5614990  86.8939997
  43.8480953  20.8093558  86.4689262  29.2279992 129.0204990  97.8939997
  28.4109992 129.5174990  97.9469997  29.7569992 129.4964990  97.2539997
  29.1877898 129.1528123  97.8147274  28.7589992 118.6184990  99.8659997
  29.5709992 119.1224990  99.9119997  28.5139992 118.4734990 100.7799997
  28.8371091 118.6679366  99.9958552  29.2949992 119.6044990 109.0509997
  29.4139992 120.1784990 109.8079997  29.9499992 118.9164990 109.1659997
  29.3998684 119.5900205 109.1701656  29.6429992 115.6994990 100.8039997
  29.2959992 116.3164990 101.4489997  30.3009992 116.2004990 100.3229997
  29.6845290 115.8516384 100.8271635  26.5659992 130.0644990  97.8759997
  26.7269992 130.8644990  97.3749997  26.3689992 130.3714990  98.7609997
  26.5613919 130.2154140  97.9270988  25.2999992 116.7624990  97.4919997
  25.2169992 117.6504990  97.8379997  26.1899992 116.4974990  97.7229997
  25.4089751 116.8482482  97.5706066  35.4989992 117.5114990 109.8859997
  34.5829992 117.7734990 109.7979997  35.8349992 117.5084990 108.9889997
  35.4189789 117.5469637 109.7527829  34.1009992 121.2614990 103.9819997
  33.3039992 120.8464990 103.6529997  34.5459992 120.5714990 104.4729997
  34.0520317 121.1113197 104.0033556  23.5589992 127.1894990  96.5519997
  24.1509992 127.8894990  96.8279997  24.0179992 126.7564990  95.8329997
  23.7021172 127.2267371  96.4925163  21.8749992 119.8544990  95.6679997
  21.8299992 120.7934990  95.8469997  20.9869992 119.6184990  95.3979997
  21.7488472 119.9511946  95.6560282  48.6319992  20.4274990  89.8409997
  49.0519992  20.0124990  90.5939997  47.6989992  20.2484990  89.9579997
  48.5633736  20.3464921  89.9598950  35.1879992 130.5174990 105.6039997
  35.0319992 131.1964990 104.9469997  36.1199992 130.5894990 105.8069997
  35.2927328 130.6201586 105.5415529  22.6829992 114.6354990 104.3409997
  22.4539992 114.6944990 103.4139997  22.2399992 113.8444990 104.6479997
  22.5917387 114.5366412 104.2555223  21.6129992 128.5764990 100.5019997
  20.7809992 129.0484990 100.5289997  22.1589992 129.0864990  99.9029997
  21.5728710 128.7100317 100.4247570  29.5909992 129.6164990  94.8269997
  28.9469992 128.9854990  95.1489997  30.3529992 129.0854990  94.5949997
  29.6058260 129.4583035  94.8397298  34.1949992 129.4334990  95.0609997
  34.4779992 128.6384990  95.5139997  34.9349992 129.6664990  94.4999997
  34.3337295 129.3562349  95.0471469  25.1499992 125.3424990  94.9179997
  25.2139992 124.5484990  95.4489997  25.8029992 125.2244990  94.2289997
  25.2471168 125.2177747  94.8975119  30.5019992 126.3894990  94.6539997
  30.2339992 126.5704990  95.5549997  30.2959992 125.4644990  94.5229997
  30.4374251 126.2891528  94.7596809  33.1989992 124.8844990 109.6019997
  33.9439992 125.4734990 109.4819997  32.4409992 125.4664990 109.6649997
  33.1985185 125.0437000 109.5940940  26.2989992 123.3154990  97.2239997
  25.8399992 122.8314990  97.9099997  26.5539992 122.6464990  96.5879997
  26.2706178 123.1588511  97.2319785  25.5879992 121.2084990 109.5799997
  24.9699992 121.8824990 109.8609997  25.9319992 121.5294990 108.7469997
  25.5498181 121.3443233 109.5058266  51.9579992  24.1824990  90.6949997
  51.4439992  24.0574990  91.4919997  51.8029992  25.0954990  90.4499997
  51.8666643  24.2887068  90.7710624  27.3699992 121.5584990  95.4869997
  27.1899992 121.4034990  94.5589997  28.3199992 121.6664990  95.5309997
  27.4738016 121.5519264  95.3662123  36.7599992 123.9124990  94.9319997
  36.4869992 123.4884990  94.1189997  36.7999992 124.8444990  94.7149997
  36.7280201 123.9803523  94.7913548  26.3399992 116.9324990 108.1549997
  26.8759992 117.3844990 107.5029997  25.4879992 116.8244990 107.7329997
  26.2981648 116.9797883 108.0086395  27.9219992 122.3724990 108.3949997
  28.6729992 122.2164990 107.8219997  27.5829992 123.2244990 108.1189997
  27.9789052 122.4662745 108.2793469  27.1459992 114.3894990 108.5869997
  27.0479992 115.3354990 108.4809997  26.4029992 114.0164990 108.1109997
  27.0322363 114.4685987 108.5082029  27.2679992 132.2484990  96.4879997
  28.2009992 132.4064990  96.6319997  27.0029992 132.9244990  95.8629997
  27.3599846 132.3614567  96.4232930  20.8359992 126.8854990  95.9709997
  21.7499992 126.9644990  96.2439997  20.8429992 126.1984990  95.3039997
  20.9620769 126.8034735  95.9182366  19.4849992 132.2784990 101.0479997
  18.8379992 131.8164990 100.5149997  19.8399992 131.6064990 101.6309997
  19.4443861 132.1244707 101.0537939  20.3549992 130.3584990 102.8529997
  20.0209992 129.4784990 103.0249997  20.5769992 130.7044990 103.7169997
  20.3392677 130.2847366 102.9934252  37.9039992 131.1684990 105.8329997
  37.8819992 131.3534990 106.7719997  38.5939992 131.7364990 105.4919997
  37.9943439 131.2706898 105.9154774  44.0599992  25.6704990  87.5619997
  43.4179992  25.6304990  88.2709997  44.0969992  26.5974990  87.3239997
  43.9771659  25.7902540  87.6268463  37.4669992 130.7354990 108.7549997
  36.9799992 129.9994990 108.3839997  38.0159992 130.3414990 109.4329997
  37.4746101 130.5816267 108.7959034  37.2189992 124.7814990  98.9069997
  38.0689992 125.2024990  99.0349997  37.2239992 124.0414990  99.5149997
  37.3359745 124.7391347  99.0066479  37.6129992 122.8354990 100.7309997
  36.8869992 122.3554990 101.1289997  38.1939992 123.0404990 101.4629997
  37.5922504 122.7975592 100.8844199  37.3719992 125.6204990 105.6789997
  38.2059992 125.2424990 105.3979997  37.4839992 126.5634990 105.5599997
  37.5011917 125.6962954 105.6244844  35.8579992 128.4984990 107.9859997
  35.2109992 128.8234990 108.6109997  35.3409992 128.0574990 107.3109997
  35.6994068 128.4834726 107.9804918  37.8809992 122.7364990  97.1219997
  37.3599992 123.0924990  96.4029997  37.8479992 123.4114990  97.7999997
  37.8051525 122.8765273  97.1151408  36.2299992 119.9754990  95.6729997
  36.3269992 120.6424990  94.9929997  36.0899992 119.1604990  95.1909997
  36.2243428 119.9565667  95.5148311  35.3999992 121.3564990 101.2939997
  35.2499992 120.4114990 101.2739997  35.0459992 121.6374990 102.1379997
  35.3316351 121.2651656 101.4053202  20.4349992 123.4344990 105.3039997
  20.6189992 123.3524990 104.3689997  21.2839992 123.3104990 105.7279997
  20.5750259 123.4064915 105.2331771  35.4779992 117.3834990  94.7899997
  36.0879992 117.0124990  95.4269997  34.6409992 116.9624990  94.9859997
  35.4483704 117.2757942  94.9037077  44.0569992  25.8914990  82.4739997
  43.1639992  25.5514990  82.4149997  44.5079992  25.5144990  81.7179997
  43.9957185  25.7940220  82.3637698  35.1099992 118.9384990  99.7559997
  35.3899992 118.0314990  99.8809997  35.8689992 119.3724990  99.3669997
  35.2509471 118.8730654  99.7205052  35.7219992 119.5204990 105.1919997
  36.6549992 119.7324990 105.1579997  35.4869992 119.6214990 106.1149997
  35.8178357 119.5631303 105.3120232  35.7509992 120.2574990 107.9679997
  34.9079992 120.5254990 108.3339997  36.1939992 121.0794990 107.7569997
  35.6954358 120.4053294 107.9895999  35.7239992 116.2014990  99.8049997
  35.9059992 115.7524990 100.6299997  35.1239992 115.6174990  99.3409997
  35.6678187 116.0610563  99.8552721  21.2539992 117.0174990 104.3359997
  21.6989992 116.2254990 104.6379997  21.7199992 117.7334990 104.7669997
  21.3779059 117.0059485 104.4356061  19.5579992 120.0164990 105.4049997
  20.0499992 119.7954990 104.6149997  19.9199992 120.8564990 105.6859997
  19.6743428 120.0998220 105.3347918  37.5899992 116.2694990  96.3329997
  38.0029992 115.5484990  95.8569997  38.2719992 116.9384990  96.3909997
  37.7385712 116.2614304  96.2758247  19.8709992 116.2744990  99.4599997
  18.9459992 116.4824990  99.3299997  20.3249992 116.7584990  98.7699997
  19.8057401 116.3683895  99.3489433  34.6419992 131.2584990 101.4049997
  35.2939992 130.9104990 100.7969997  35.1529992 131.7464990 102.0509997
  34.8002872 131.2768248 101.4090964  19.8349992 115.0124990 107.8039997
  19.1699992 114.7664990 108.4469997  19.3919992 115.6344990 107.2269997
  19.6841168 115.0629225 107.8139830  49.5929992  26.3074990  81.2909997
  49.1839992  27.1224990  80.9989997  50.3129992  26.1674990  80.6759997
  49.6343946  26.3999963  81.1679616  24.9809992 129.1614990 108.2069997
  24.5559992 129.9714990 107.9239997  25.8849992 129.2474990 107.9049997
  25.0451002 129.2838728 108.1274798  36.5549992 114.4364990 109.4899997
  35.7419992 114.7614990 109.1019997  36.7879992 113.6754990 108.9569997
  36.4752566 114.3781570 109.3649196  22.3829992 132.4184990 108.2539997
  21.6619992 132.8584990 107.8029997  22.0169992 132.1674990 109.1029997
  22.2349785 132.4447691 108.3069849  24.8499992 132.0184990 107.2839997
  23.9849992 132.0904990 107.6879997  24.7949992 132.5654990 106.4999997
  24.7242066 132.1022678 107.2333371  29.5609992 131.9064990 106.4599997
  29.1039992 132.4354990 105.8059997  29.7229992 132.5094990 107.1849997
  29.5203919 132.0603990 106.4685740  31.8879992 130.7844990 107.4049997
  30.9839992 130.9494990 107.1389997  32.3169992 131.6374990 107.3389997
  31.8222017 130.9224184 107.3596495  34.4919992 132.3544990 107.6999997
  34.3109992 133.2704990 107.4889997  34.6689992 131.9434990 106.8529997
  34.4911377 132.4243365 107.5567178  21.7979992 131.0414990 105.1649997
  21.7789992 130.6154990 106.0219997  22.6019992 130.7224990 104.7559997
  21.9041393 130.9400297 105.2270155  23.9389992 129.7514990 103.8199997
  23.7199992 128.8344990 103.9889997  24.7629992 129.8914990 104.2859997
  24.0204637 129.6449586 103.9061414  26.4759992 130.2214990 104.6679997
  26.6889992 129.3334990 104.3809997  26.5409992 130.1864990 105.6229997
  26.5139075 130.0953318 104.7577355  48.6949992  26.4834990  92.7789997
  48.1319992  25.7784990  93.0989997  49.5209992  26.3624990  93.2459997
  48.7296423  26.3705614  92.8860168  29.9849992 115.8854990 103.8129997
  29.3099992 115.2554990 104.0679997  30.5489992 115.4014990 103.2099997
  29.9689558 115.7339283 103.7663451  35.1269992 113.9924990 103.9249997
  35.7309992 114.5404990 103.4239997  34.2579992 114.3114990 103.6849997
  35.0921126 114.1107070 103.8239180  36.8539992 115.1314990 102.2589997
  37.4659992 114.6174990 101.7319997  37.2369992 116.0084990 102.2819997
  36.9893867 115.1797613 102.1900888  22.3109992 114.5194990 101.6349997
  21.5339992 114.2844990 101.1269997  22.8419992 113.7224990 101.6439997
  22.2764443 114.3796721 101.5667200  21.1479992 114.3174990  97.4379997
  21.5869992 114.9284990  96.8469997  20.5139992 114.8554990  97.9119997
  21.1224103 114.4739233  97.4211376  26.8909992 114.4454990 101.4479997
  27.7649992 114.8344990 101.4179997  26.7549992 114.2304990 102.3709997
  26.9923125 114.4697120 101.5686523  32.4469992 114.4754990 103.0969997
  32.5239992 114.5714990 102.1479997  32.1719992 113.5684990 103.2259997
  32.4203407 114.3659188 102.9843532  33.8009992 114.5014990  98.7899997
  33.0979992 115.1164990  98.5799997  33.3559992 113.6644990  98.9209997
  33.6446550 114.4724679  98.7789819  21.0489992 130.2654990  98.3359997
  20.3639992 130.2274990  97.6679997  21.0519992 131.1774990  98.6239997
  20.9557358 130.3836744  98.2836145  23.0089992 116.2334990  95.8809997
  23.4999992 115.6034990  95.3529997  23.6319992 116.5294990  96.5439997
  23.1605459 116.1872419  95.8983667  50.5969992  25.7534990  84.1049997
  50.4019992  26.3594990  83.3899997  50.7789992  24.9204990  83.6699997
  50.5949272  25.7237955  83.9484075  28.0349992 116.5264990  98.3379997
  28.2129992 115.8794990  99.0209997  27.9809992 117.3604990  98.8049997
  28.0520678 116.5506615  98.4946283  29.9129992 131.4744990  96.7329997
  30.7789992 131.8414990  96.5549997  29.6659992 131.0354990  95.9199997
  29.9982041 131.4653648  96.5985958  36.6219992 131.0374990  99.4129997
  36.4279992 130.2894990  98.8479997  36.5829992 131.7954990  98.8289997
  36.5901907 131.0375770  99.2568077  22.8669992 131.1854990  95.3609997
  22.5989992 131.4714990  96.2339997  23.6379992 130.6394990  95.5129997
  22.9345600 131.1508341  95.5011482  50.2459992 123.6754990 101.5929997
  50.3349992 124.6194990 101.4609997  49.6069992 123.4004990 100.9349997
  50.1718319 123.7674984 101.4860276  49.1789992 122.9304990 105.0119997
  49.1399992 122.2844990 105.7169997  48.8559992 122.4634990 104.2409997
  49.1300199 122.7790089 105.0042865  41.5469992 122.5444990 106.6049997
  41.5879992 121.9194990 107.3289997  42.2499992 123.1684990 106.7869997
  41.6476054 122.5433262 106.7286311  52.8849992 125.8694990 103.3139997
  52.4439992 125.1494990 103.7639997  52.8719992 126.5904990 103.9439997
  52.8228398 125.8683187 103.4607734  42.4709992 126.9944990 105.1399997
  42.1009992 126.1924990 104.7709997  43.4119992 126.8264990 105.1869997
  42.5475630 126.8618680 105.0957873  39.0809992 120.6544990 100.5329997
  38.6329992 121.5004990 100.5149997  38.5199992 120.0754990 100.0179997
  38.9438546 120.6919004 100.4608874  41.8099992  25.9914990  89.4289997
  41.7719992  26.3914990  90.2969997  41.3189992  25.1744990  89.5189997
  41.7384246  25.9358842  89.5601171  39.7909992 122.8164990 102.6589997
  40.0049992 122.0464990 103.1859997  40.5289992 122.9064990 102.0559997
  39.9200073 122.7233546 102.6495786  49.9959992 130.9734990 103.5259997
  50.6159992 130.2974990 103.2529997  49.7879992 130.7554990 104.4339997
  50.0527360 130.8514792 103.6114387  47.5679992 125.3624990 105.4179997
  47.8719992 124.6764990 104.8239997  48.2899992 125.4814990 106.0359997
  47.7071152 125.2847201 105.4202106  56.2309992 116.9644990 106.2789997
  56.2799992 117.5744990 107.0149997  56.6569992 117.4254990 105.5559997
  56.2952851 117.1103266 106.2820532  50.7089992 119.7564990 105.7459997
  50.8509992 118.8104990 105.7659997  50.6029992 119.9634990 104.8169997
  50.7141158 119.6549722 105.6232241  43.8639992 117.8584990 103.0179997
  43.9069992 118.7184990 102.5999997  43.4059992 117.3054990 102.3849997
  43.8079613 117.9015689 102.8751276  51.5859992 117.9894990 101.4189997
  52.2319992 117.6604990 102.0439997  52.0959992 118.5064990 100.7959997
  51.7434392 118.0143710 101.4203248  40.4839992 120.2554990 103.7799997
  41.1379992 119.7054990 104.2119997  40.5079992 119.9814990 102.8639997
  40.5767022 120.1432005 103.7151698  45.6399992 121.8054990 102.9959997
  46.2559992 121.2784990 103.5049997  45.0539992 121.1654990 102.5919997
  45.6450652 121.6468919 103.0110277  56.6229992 118.4424990 108.5149997
  55.9339992 119.1004990 108.4199997  56.6379992 118.2444990 109.4519997
  56.5307756 118.5057614 108.6285795  38.4179992  23.1074990  83.2789997
  39.0489992  23.0784990  83.9989997  38.8679992  22.6824990  82.5489997
  38.5650905  23.0460839  83.2787479  42.6739992 116.7764990 107.0919997
  42.4549992 117.3064990 106.3259997  42.0059992 117.0024990 107.7399997
  42.5537271 116.8796508 107.0746206  50.0429992 126.2764990 100.6359997
  49.7469992 125.9534990  99.7849997  49.7189992 127.1764990 100.6779997
  49.9586501 126.3539058 100.5250893  45.2429992 124.4514990 107.3799997
  44.5029992 125.0504990 107.4829997  45.9569992 125.0054990 107.0639997
  45.2383288 124.6082368 107.3513787  53.3499992 117.2804990 103.3999997
  53.1349992 116.5144990 103.9319997  54.0059992 117.7524990 103.9129997
  53.4092451 117.2394472 103.5421699  42.2679992 118.6684990 105.0449997
  42.8809992 119.3014990 105.4179997  42.7799992 118.1964990 104.3879997
  42.4211680 118.6914006 105.0072830  43.6499992 126.4164990 108.1669997
  43.6449992 127.2954990 107.7889997  42.7969992 126.3324990 108.5919997
  43.5339199 126.5255901 108.1726942  39.7719992 126.0874990  98.9489997
  39.4999992 126.3164990  98.0599997  39.8169992 126.9244990  99.4089997
  39.7408709 126.2321069  98.8896089  53.3969992 127.7084990 105.6619997
  52.4549992 127.7674990 105.8229997  53.6729992 128.6144990 105.5249997
  53.3055771 127.8390270 105.6654827  53.6969992 115.9954990 107.0789997
  52.9609992 116.6054990 107.0409997  54.3809992 116.4104990 106.5529997
  53.6885885 116.1351924 107.0026931  46.6999992 114.0814990 104.5449997
  46.5829992 113.1334990 104.4909997  45.8449992 114.4144990 104.8179997
  46.5683691 113.9965842 104.5745072  39.6919992  23.8534990  78.7029997
  40.1669992  24.4444990  78.1179997  38.9749992  24.3834990  79.0499997
  39.6600406  24.0061011  78.6698495  51.6489992 129.4894990 102.2869997
  52.0739992 128.7824990 101.8019997  51.9659992 130.2914990 101.8699997
  51.7500266 129.5010201 102.1642461  52.8079992 127.3904990 100.7959997
  52.5509992 126.7004990 100.1839997  52.8789992 126.9474990 101.6409997
  52.7824322 127.2361568 100.8265372  54.4939992 125.9574990 109.2729997
  54.6339992 125.3654990 108.5339997  54.6619992 126.8304990 108.9169997
  54.5358734 125.9944041 109.1236937  48.9669992 122.9194990  99.0449997
  48.2549992 123.4544990  98.6939997  49.6579992 122.9744990  98.3849997
  48.9628696 123.0002591  98.9076372  49.0209992 121.3764990  96.0839997
  49.7219992 121.3994990  96.7349997  49.3229992 120.7484990  95.4279997
  49.1578282 121.2947350  96.0844478  56.3359992 122.2974990 107.3389997
  55.6839992 122.9914990 107.4279997  56.8009992 122.5074990 106.5289997
  56.3095357 122.4209544 107.2417056  52.3729992 123.1284990  99.9969997
  51.6409992 123.3574990 100.5699997  52.8199992 122.4154990 100.4519997
  52.3332753 123.0633984 100.1369698  52.2699992 121.3034990 109.0649997
  52.3499992 122.0664990 109.6369997  51.6689992 121.5824990 108.3739997
  52.1997115 121.4457707 109.0499631  44.0179992 123.7594990 101.8799997
  43.6879992 123.3884990 101.0609997  44.6059992 123.0884990 102.2259997
  44.0524056 123.6181257 101.8149035  45.3849992 127.1874990 104.5609997
  45.2899992 126.6084990 103.8039997  46.1139992 126.8164990 105.0569997
  45.4706161 127.0580902 104.5245192  49.8609992  27.3914990  88.7759997
  50.1849992  26.7604990  88.1329997  49.4209992  26.8574990  89.4369997
  49.8458707  27.2328261  88.7773195  44.3849992 122.5274990 105.5129997
  44.9499992 122.6494990 104.7499997  44.7029992 123.1654990 106.1519997
  44.5053430 122.6304448 105.4949094  50.6939992 128.0314990 106.2469997
  50.4529992 128.6934990 106.8949997  50.4959992 127.1964990 106.6719997
  50.6342662 128.0092704 106.3931008  51.2439992 122.2914990  97.6819997
  51.8229992 122.4414990  98.4289997  51.6579992 122.7614990  96.9589997
  51.3793122 122.3756288  97.6865024  42.1849992 123.1254990 109.4589997
  42.2549992 123.7764990 110.1569997  41.2939992 123.2284990 109.1239997
  42.0741802 123.2284769 109.5092231  48.9699992 129.0274990 101.1179997
  49.4439992 129.3234990 101.8949997  48.4069992 129.7664990 100.8839997
  48.9588460 129.1678336 101.1927626  54.9419992 114.0414990  97.4949997
  54.0419992 114.1794990  97.7899997  55.1939992 114.8724990  97.0929997
  54.8527355 114.1728200  97.4810539  43.0079992 122.8284990  99.4689997
  42.7159992 123.5964990  98.9779997  42.3339992 122.1694990  99.3059997
  42.8768843 122.8444537  99.3797695  56.1319992 128.4074990  95.8719997
  56.2049992 129.3464990  96.0419997  57.0369992 128.1024990  95.8149997
  56.2644168 128.4948531  95.8875736  39.1009992 125.1914990 108.2839997
  38.5999992 125.1634990 107.4689997  39.1069992 124.2864990 108.5939997
  39.0331690 125.0652234 108.2142770  38.8519992 127.9724990 105.1679997
  39.7979992 127.8274990 105.1489997  38.7389992 128.7564990 105.7049997
  38.9663578 128.0586708 105.2380300  46.6389992  23.3194990  83.5599997
  45.7279992  23.3764990  83.8489997  47.1439992  23.2594990  84.3709997
  46.5826873  23.3191838  83.7091190  48.0279992 128.2124990 109.7259997
  48.1149992 129.0384990 110.2009997  47.1639992 127.8824990 109.9749997
  47.9231944 128.2809871 109.8246558  48.4419992 131.9844990  99.5319997
  48.3669992 131.8634990  98.5859997  48.4749992 132.9334990  99.6509997
  48.4361862 132.0962492  99.4184840  42.0959992 130.7734990 101.3129997
  42.2479992 130.4254990 102.1919997  41.2449992 130.4164990 101.0579997
  42.0017899 130.6776749 101.3987322  51.5439992 131.1384990  96.5349997
  51.9189992 130.3944990  96.0639997  51.5479992 130.8684990  97.4529997
  51.5958969 131.0000920  96.5946475  51.2129992 131.0644990  99.2839997
  50.2779992 131.1644990  99.4629997  51.4929992 130.3544990  99.8619997
  51.1229270 130.9822300  99.3865984  41.3499992 126.5154990 109.3269997
  41.5659992 126.1534990 110.1869997  40.4949992 126.1404990 109.1169997
  41.2639349 126.4152914 109.4162134  43.9689992 114.9854990 105.3229997
  43.1069992 114.8984990 104.9149997  43.9469992 115.8414990 105.7499997
  43.8480953 115.0893558 105.3249262  48.6319992 114.7074990 108.6969997
  49.0519992 114.2924990 109.4499997  47.6989992 114.5284990 108.8139997
  48.5633736 114.6264921 108.8158950  51.9579992 118.4624990 109.5509997
  51.4439992 118.3374990 110.3479997  51.8029992 119.3754990 109.3059997
  51.8666643 118.5687068 109.6270624  52.7209992 123.3234990  95.3119997
  52.7629992 123.1014990  94.3819997  53.5699992 123.7224990  95.5019997
  52.8415253 123.3470510  95.2103804  41.4669992  24.9484990  82.3869997
  40.5779992  25.0474990  82.0469997  41.7629992  24.1064990  82.0409997
  41.3854001  24.8482473  82.2937318  48.2939992 117.1994990  95.9819997
  48.0399992 117.2184990  96.9049997  48.0369992 116.3284990  95.6809997
  48.2245133 117.0843121  96.0675065  44.0599992 119.9504990 106.4179997
  43.4179992 119.9104990 107.1269997  44.0969992 120.8774990 106.1799997
  43.9771659 120.0702540 106.4828463  44.0569992 120.1714990 101.3299997
  43.1639992 119.8314990 101.2709997  44.5079992 119.7944990 100.5739997
  43.9957185 120.0740220 101.2197698  49.5929992 120.5874990 100.1469997
  49.1839992 121.4024990  99.8549997  50.3129992 120.4474990  99.5319997
  49.6343946 120.6799963 100.0239616  50.5969992 120.0334990 102.9609997
  50.4019992 120.6394990 102.2459997  50.7789992 119.2004990 102.5259997
  50.5949272 120.0037955 102.8044075  41.8099992 120.2714990 108.2849997
  41.7719992 120.6714990 109.1529997  41.3189992 119.4544990 108.3749997
  41.7384246 120.2158842 108.4161171  45.1759992 117.6454990  95.0829997
  44.7449992 117.2004990  95.8129997  44.4579992 118.0164990  94.5709997
  45.0199363 117.6347979  95.1136194  38.4179992 117.3874990 102.1349997
  39.0489992 117.3584990 102.8549997  38.8679992 116.9624990 101.4049997
  38.5650905 117.3260839 102.1347479  39.6919992 118.1334990  97.5589997
  40.1669992 118.7244990  96.9739997  38.9749992 118.6634990  97.9059997
  39.6600406 118.2861011  97.5258495  49.8609992 121.6714990 107.6319997
  50.1849992 121.0404990 106.9889997  49.4209992 121.1374990 108.2929997
  49.8458707 121.5128261 107.6333195  45.1199992  24.9484990  80.0429997
  46.0519992  25.0774990  80.2209997  44.9049992  25.6174990  79.3939997
  45.2184245  25.0566452  79.9795602  46.6389992 117.5994990 102.4159997
  45.7279992 117.6564990 102.7049997  47.1439992 117.5394990 103.2269997
  46.5826873 117.5991838 102.5651190  41.4669992 119.2284990 101.2429997
  40.5779992 119.3274990 100.9029997  41.7629992 118.3864990 100.8969997
  41.3854001 119.1282473 101.1497318  45.1199992 119.2284990  98.8989997
  46.0519992 119.3574990  99.0769997  44.9049992 119.8974990  98.2499997
  45.2184245 119.3366452  98.8355602  51.0439992 116.8344990 105.6799997
  50.3669992 116.9654990 106.3439997  50.5579992 116.6794990 104.8699997
  50.8857265 116.8314665 105.6613380  43.7939992 120.4224990  96.4659997
  43.2519992 120.0434990  95.7749997  44.6279992 120.6174990  96.0369997
  43.8324283 120.3969383  96.3134298  47.9589992 120.3864990 104.3029997
  48.5229992 119.8404990 103.7559997  47.8109992 119.8654990 105.0919997
  48.0163037 120.2411798 104.3347212  42.9609992 116.5234990 100.7209997
  42.6429992 115.6204990 100.6859997  43.7419992 116.5254990 100.1689997
  43.0231560 116.4001148 100.6414975  46.5849992 118.7754990 106.7169997
  45.7499992 119.2294990 106.8269997  47.1089992 119.0514990 107.4689997
  46.5415070 118.8749677 106.8337134  47.1289992 124.9884990  98.4019997
  46.3839992 124.4804990  98.0789997  46.9949992 125.0374990  99.3479997
  47.0088633 124.9255714  98.4857563  54.2789992 124.1214990 107.1879997
  54.9209992 124.5774990 106.6449997  53.4489992 124.2344990 106.7259997
  54.2547352 124.1993223 107.0510234  51.0439992  22.5544990  86.8239997
  50.3669992  22.6854990  87.4879997  50.5579992  22.3994990  86.0139997
  50.8857265  22.5514665  86.8053380  51.0269992 117.8024990  96.6009997
  50.0879992 117.9134990  96.4499997  51.3239992 118.6584990  96.9069997
  50.9386371 117.9335327  96.6217362  48.6489992 125.1724990 109.6389997
  48.3029992 124.7904990 110.4449997  48.4489992 126.1054990 109.7099997
  48.5745399 125.2463489 109.7590401  51.7449992 119.6694990  98.2619997
  52.6369992 119.5314990  98.5809997  51.8019992 120.4604990  97.7249997
  51.8747380 119.7574777  98.2330981  42.2539992 124.2834990 104.1709997
  42.9989992 124.2804990 103.5699997  42.3319992 123.4594990 104.6529997
  42.3664158 124.1717928 104.1539136  49.2549992 126.4464990  97.4269997
  48.9599992 127.2734990  97.8089997  48.5519992 125.8274990  97.6229997
  49.1195855 126.4759458  97.5057634  39.2619992 122.7434990 109.4859997
  39.4849992 122.3254990 110.3179997  38.6599992 122.1314990 109.0639997
  39.2110802 122.6035216 109.5427561  50.8989992 127.6344990 109.5889997
  49.9979992 127.8174990 109.3209997  50.9329992 127.8934990 110.5099997
  50.7803021 127.6945505 109.6768206  56.6299992 119.8784990  97.9559997
  56.0759992 119.4824990  97.2839997  56.7309992 120.7894990  97.6789997
  56.5677084 119.9473565  97.8264381  54.9249992 128.6644990  98.4209997
  54.5529992 127.8394990  98.7309997  55.2029992 128.4814990  97.5239997
  54.9115997 128.5266160  98.3421551  52.0859992 123.4724990 105.4429997
  51.1579992 123.2414990 105.4159997  52.5369992 122.6954990 105.1129997
  52.0198165 123.3357785 105.3946772  43.7939992  26.1424990  77.6099997
  43.2519992  25.7634990  76.9189997  44.6279992  26.3374990  77.1809997
  43.8324283  26.1169383  77.4574298  44.6289992 127.8014990 101.5759997
  45.1559992 128.5744990 101.3749997  43.7489992 128.0254990 101.2739997
  44.5821793 127.9376652 101.5076304  40.3839992 122.6634990  96.1629997
  40.9999992 123.2904990  96.5419997  39.5219992 122.9794990  96.4339997
  40.3518195 122.7920810  96.2515369  46.0559992 125.4644990 101.1519997
  45.8149992 126.3894990 101.1939997  45.3159992 125.0054990 101.5479997
  45.9228934 125.5290881 101.2113191  46.5709992 129.6134990 107.4669997
  46.9339992 130.4674990 107.2339997  47.1029992 129.3214990 108.2079997
  46.6925141 129.6908907 107.5352079  44.7389992 130.4854990 100.6969997
  43.7899992 130.5914990 100.7489997  45.0909992 131.3064990 101.0419997
  44.6566214 130.6109361 100.7507317  50.1149992 125.7124990 107.1679997
  49.6889992 125.4844990 107.9939997  50.6959992 124.9734990 106.9849997
  50.1351587 125.5814084 107.2564111  52.3179992 126.6414990  96.2419997
  52.6709992 126.2614990  97.0459997  51.3689992 126.5474990  96.3279997
  52.2380985 126.5767330  96.3637738  52.7739992 130.2644990 109.6369997
  52.1719992 129.7084990 109.1419997  53.0549992 130.9314990 109.0109997
  52.7295757 130.2785755 109.4845657  56.8209992 131.1204990  96.4429997
  57.5649992 131.7064990  96.3029997  56.1269992 131.6894990  96.7759997
  56.8289809 131.2775830  96.4688572  40.8959992 117.4974990 109.0439997
  40.0029992 117.8354990 108.9769997  40.7969992 116.6414990 109.4619997
  40.7605241 117.4280941 109.0912982  54.3309992  38.2254990  93.1009997
  54.5309992  38.6494990  92.2659997  54.9869992  38.5694990  93.7079997
  54.4469916  38.3299784  93.0687890  53.1839992 125.3134990  98.4679997
  52.9069992 124.5854990  99.0239997  54.1109992 125.4324990  98.6739997
  53.2714181 125.2300068  98.5718972  40.5469992 129.3014990 107.4789997
  40.7639992 128.3694990 107.4479997  40.7939992 129.5764990 108.3629997
  40.6100543 129.2110877 107.5941412  46.4089992 127.7534990  94.6889997
  46.6479992 127.0044990  94.1409997  46.1399992 127.3654990  95.5209997
  46.4052804 127.5986524  94.7266352  45.3459992 127.3234990  97.1449997
  45.4929992 126.8034990  97.9349997  45.3429992 128.2304990  97.4509997
  45.3657300 127.3748975  97.2945877  41.7989992 124.5754990  97.6549997
  41.1129992 124.9284990  98.2219997  42.3219992 125.3384990  97.4089997
  41.7759033 124.7268757  97.6992644  49.6299992 117.2384990 107.9339997
  50.3289992 117.3124990 108.5839997  49.2499992 116.3734990 108.0889997
  49.6742095 117.1317402 108.0437982  50.4149992 116.8904990  99.0309997
  50.6349992 117.3614990  98.2279997  50.9729992 117.2844990  99.7019997
  50.5205851 117.0083272  99.0116134  48.0839992 129.0204990  97.8939997
  47.2669992 129.5174990  97.9469997  48.6129992 129.4964990  97.2539997
  48.0437898 129.1528123  97.8147274  47.6149992 118.6184990  99.8659997
  48.4269992 119.1224990  99.9119997  47.3699992 118.4734990 100.7799997
  47.6931091 118.6679366  99.9958552  48.1509992 119.6044990 109.0509997
  48.2699992 120.1784990 109.8079997  48.8059992 118.9164990 109.1659997
  48.2558684 119.5900205 109.1701656  41.9289992  30.6994990  92.7089997
  42.6609992  30.9544990  93.2699997  41.1489992  30.9044990  93.2239997
  41.9237684  30.7621457  92.8554774  48.4989992 115.6994990 100.8039997
  48.1519992 116.3164990 101.4489997  49.1569992 116.2004990 100.3229997
  48.5405290 115.8516384 100.8271635  45.4219992 130.0644990  97.8759997
  45.5829992 130.8644990  97.3749997  45.2249992 130.3714990  98.7609997
  45.4173919 130.2154140  97.9270988  44.1559992 116.7624990  97.4919997
  44.0729992 117.6504990  97.8379997  45.0459992 116.4974990  97.7229997
  44.2649751 116.8482482  97.5706066  54.3549992 117.5114990 109.8859997
  53.4389992 117.7734990 109.7979997  54.6909992 117.5084990 108.9889997
  54.2749789 117.5469637 109.7527829  52.9569992 121.2614990 103.9819997
  52.1599992 120.8464990 103.6529997  53.4019992 120.5714990 104.4729997
  52.9080317 121.1113197 104.0033556  42.4149992 127.1894990  96.5519997
  43.0069992 127.8894990  96.8279997  42.8739992 126.7564990  95.8329997
  42.5581172 127.2267370  96.4925163  40.7309992 119.8544990  95.6679997
  40.6859992 120.7934990  95.8469997  39.8429992 119.6184990  95.3979997
  40.6048472 119.9511946  95.6560282  54.0439992 130.5174990 105.6039997
  53.8879992 131.1964990 104.9469997  54.9759992 130.5894990 105.8069997
  54.1487328 130.6201586 105.5415529  41.5389992 114.6354990 104.3409997
  41.3099992 114.6944990 103.4139997  41.0959992 113.8444990 104.6479997
  41.4477387 114.5366412 104.2555223  40.4689992 128.5764990 100.5019997
  39.6369992 129.0484990 100.5289997  41.0149992 129.0864990  99.9029997
  40.4288710 128.7100317 100.4247570  47.9589992  26.1064990  85.4469997
  48.5229992  25.5604990  84.8999997  47.8109992  25.5854990  86.2359997
  48.0163037  25.9611798  85.4787212  48.4469992 129.6164990  94.8269997
  47.8029992 128.9854990  95.1489997  49.2089992 129.0854990  94.5949997
  48.4618260 129.4583035  94.8397298  53.0509992 129.4334990  95.0609997
  53.3339992 128.6384990  95.5139997  53.7909992 129.6664990  94.4999997
  53.1897295 129.3562349  95.0471469  44.0059992 125.3424990  94.9179997
  44.0699992 124.5484990  95.4489997  44.6589992 125.2244990  94.2289997
  44.1031168 125.2177747  94.8975119  49.3579992 126.3894990  94.6539997
  49.0899992 126.5704990  95.5549997  49.1519992 125.4644990  94.5229997
  49.2934251 126.2891528  94.7596809  52.0549992 124.8844990 109.6019997
  52.7999992 125.4734990 109.4819997  51.2969992 125.4664990 109.6649997
  52.0545185 125.0437000 109.5940940  45.1549992 123.3154990  97.2239997
  44.6959992 122.8314990  97.9099997  45.4099992 122.6464990  96.5879997
  45.1266178 123.1588511  97.2319785  44.4439992 121.2084990 109.5799997
  43.8259992 121.8824990 109.8609997  44.7879992 121.5294990 108.7469997
  44.4058181 121.3443233 109.5058266  46.2259992 121.5584990  95.4869997
  46.0459992 121.4034990  94.5589997  47.1759992 121.6664990  95.5309997
  46.3298016 121.5519264  95.3662123  55.6159992 123.9124990  94.9319997
  55.3429992 123.4884990  94.1189997  55.6559992 124.8444990  94.7149997
  55.5840201 123.9803523  94.7913548  45.1959992 116.9324990 108.1549997
  45.7319992 117.3844990 107.5029997  44.3439992 116.8244990 107.7329997
  45.1541648 116.9797883 108.0086395  42.9609992  22.2434990  81.8649997
  42.6429992  21.3404990  81.8299997  43.7419992  22.2454990  81.3129997
  43.0231560  22.1201148  81.7854975  46.7779992 122.3724990 108.3949997
  47.5289992 122.2164990 107.8219997  46.4389992 123.2244990 108.1189997
  46.8349052 122.4662745 108.2793469  46.0019992 114.3894990 108.5869997
  45.9039992 115.3354990 108.4809997  45.2589992 114.0164990 108.1109997
  45.8882363 114.4685987 108.5082029  46.1239992 132.2484990  96.4879997
  47.0569992 132.4064990  96.6319997  45.8589992 132.9244990  95.8629997
  46.2159846 132.3614567  96.4232930  39.6919992 126.8854990  95.9709997
  40.6059992 126.9644990  96.2439997  39.6989992 126.1984990  95.3039997
  39.8180769 126.8034735  95.9182366  38.3409992 132.2784990 101.0479997
  37.6939992 131.8164990 100.5149997  38.6959992 131.6064990 101.6309997
  38.3003861 132.1244707 101.0537939  39.2109992 130.3584990 102.8529997
  38.8769992 129.4784990 103.0249997  39.4329992 130.7044990 103.7169997
  39.1952677 130.2847366 102.9934252  56.7599992 131.1684990 105.8329997
  56.7379992 131.3534990 106.7719997  57.4499992 131.7364990 105.4919997
  56.8503439 131.2706898 105.9154774  56.3229992 130.7354990 108.7549997
  55.8359992 129.9994990 108.3839997  56.8719992 130.3414990 109.4329997
  56.3306101 130.5816267 108.7959034  56.0749992 124.7814990  98.9069997
  56.9249992 125.2024990  99.0349997  56.0799992 124.0414990  99.5149997
  56.1919745 124.7391347  99.0066479  56.4689992 122.8354990 100.7309997
  55.7429992 122.3554990 101.1289997  57.0499992 123.0404990 101.4629997
  56.4482504 122.7975592 100.8844199  46.5849992  24.4954990  87.8609997
  45.7499992  24.9494990  87.9709997  47.1089992  24.7714990  88.6129997
  46.5415070  24.5949677  87.9777134  56.2279992 125.6204990 105.6789997
  57.0619992 125.2424990 105.3979997  56.3399992 126.5634990 105.5599997
  56.3571917 125.6962954 105.6244844  54.7139992 128.4984990 107.9859997
  54.0669992 128.8234990 108.6109997  54.1969992 128.0574990 107.3109997
  54.5554068 128.4834726 107.9804918  56.7369992 122.7364990  97.1219997
  56.2159992 123.0924990  96.4029997  56.7039992 123.4114990  97.7999997
  56.6611525 122.8765273  97.1151408  55.0859992 119.9754990  95.6729997
  55.1829992 120.6424990  94.9929997  54.9459992 119.1604990  95.1909997
  55.0803428 119.9565667  95.5148311  54.2559992 121.3564990 101.2939997
  54.1059992 120.4114990 101.2739997  53.9019992 121.6374990 102.1379997
  54.1876351 121.2651656 101.4053202  39.2909992 123.4344990 105.3039997
  39.4749992 123.3524990 104.3689997  40.1399992 123.3104990 105.7279997
  39.4310259 123.4064915 105.2331771  54.3339992 117.3834990  94.7899997
  54.9439992 117.0124990  95.4269997  53.4969992 116.9624990  94.9859997
  54.3043704 117.2757942  94.9037077  53.9659992 118.9384990  99.7559997
  54.2459992 118.0314990  99.8809997  54.7249992 119.3724990  99.3669997
  54.1069471 118.8730654  99.7205051  54.5779992 119.5204990 105.1919997
  55.5109992 119.7324990 105.1579997  54.3429992 119.6214990 106.1149997
  54.6738357 119.5631303 105.3120232  54.6069992 120.2574990 107.9679997
  53.7639992 120.5254990 108.3339997  55.0499992 121.0794990 107.7569997
  54.5514358 120.4053294 107.9895999  54.2789992  29.8414990  88.3319997
  54.9209992  30.2974990  87.7889997  53.4489992  29.9544990  87.8699997
  54.2547352  29.9193223  88.1950234  54.5799992 116.2014990  99.8049997
  54.7619992 115.7524990 100.6299997  53.9799992 115.6174990  99.3409997
  54.5238187 116.0610563  99.8552721  40.1099992 117.0174990 104.3359997
  40.5549992 116.2254990 104.6379997  40.5759992 117.7334990 104.7669997
  40.2339059 117.0059485 104.4356061  38.4139992 120.0164990 105.4049997
  38.9059992 119.7954990 104.6149997  38.7759992 120.8564990 105.6859997
  38.5303429 120.0998220 105.3347918  56.4459992 116.2694990  96.3329997
  56.8589992 115.5484990  95.8569997  57.1279992 116.9384990  96.3909997
  56.5945712 116.2614304  96.2758247  38.7269992 116.2744990  99.4599997
  37.8019992 116.4824990  99.3299997  39.1809992 116.7584990  98.7699997
  38.6617401 116.3683895  99.3489433  53.4979992 131.2584990 101.4049997
  54.1499992 130.9104990 100.7969997  54.0089992 131.7464990 102.0509997
  53.6562872 131.2768248 101.4090964  38.6909992 115.0124990 107.8039997
  38.0259992 114.7664990 108.4469997  38.2479992 115.6344990 107.2269997
  38.5401168 115.0629225 107.8139830  43.8369992 129.1614990 108.2069997
  43.4119992 129.9714990 107.9239997  44.7409992 129.2474990 107.9049997
  43.9011002 129.2838728 108.1274798  55.4109992 114.4364990 109.4899997
  54.5979992 114.7614990 109.1019997  55.6439992 113.6754990 108.9569997
  55.3312566 114.3781570 109.3649196  41.2389992 132.4184990 108.2539997
  40.5179992 132.8584990 107.8029997  40.8729992 132.1674990 109.1029997
  41.0909785 132.4447691 108.3069849  48.6489992  30.8924990  90.7829997
  48.3029992  30.5104990  91.5889997  48.4489992  31.8254990  90.8539997
  48.5745400  30.9663489  90.9030401  43.7059992 132.0184990 107.2839997
  42.8409992 132.0904990 107.6879997  43.6509992 132.5654990 106.4999997
  43.5802066 132.1022678 107.2333371  48.4169992 131.9064990 106.4599997
  47.9599992 132.4354990 105.8059997  48.5789992 132.5094990 107.1849997
  48.3763919 132.0603990 106.4685740  50.7439992 130.7844990 107.4049997
  49.8399992 130.9494990 107.1389997  51.1729992 131.6374990 107.3389997
  50.6782017 130.9224184 107.3596495  53.3479992 132.3544990 107.6999997
  53.1669992 133.2704990 107.4889997  53.5249992 131.9434990 106.8529997
  53.3471377 132.4243365 107.5567178  40.6539992 131.0414990 105.1649997
  40.6349992 130.6154990 106.0219997  41.4579992 130.7224990 104.7559997
  40.7601393 130.9400297 105.2270155  42.7949992 129.7514990 103.8199997
  42.5759992 128.8344990 103.9889997  43.6189992 129.8914990 104.2859997
  42.8764637 129.6449586 103.9061414  45.3319992 130.2214990 104.6679997
  45.5449992 129.3334990 104.3809997  45.3969992 130.1864990 105.6229997
  45.3699075 130.0953318 104.7577355  48.8409992 115.8854990 103.8129997
  48.1659992 115.2554990 104.0679997  49.4049992 115.4014990 103.2099997
  48.8249558 115.7339283 103.7663451  53.9829992 113.9924990 103.9249997
  54.5869992 114.5404990 103.4239997  53.1139992 114.3114990 103.6849997
  53.9481126 114.1107070 103.8239180  55.7099992 115.1314990 102.2589997
  56.3219992 114.6174990 101.7319997  56.0929992 116.0084990 102.2819997
  55.8453867 115.1797613 102.1900888  51.7449992  25.3894990  79.4059997
  52.6369992  25.2514990  79.7249997  51.8019992  26.1804990  78.8689997
  51.8747380  25.4774777  79.3770981  41.1669992 114.5194990 101.6349997
  40.3899992 114.2844990 101.1269997  41.6979992 113.7224990 101.6439997
  41.1324443 114.3796721 101.5667200  40.0039992 114.3174990  97.4379997
  40.4429992 114.9284990  96.8469997  39.3699992 114.8554990  97.9119997
  39.9784103 114.4739233  97.4211376  45.7469992 114.4454990 101.4479997
  46.6209992 114.8344990 101.4179997  45.6109992 114.2304990 102.3709997
  45.8483125 114.4697120 101.5686523  51.3029992 114.4754990 103.0969997
  51.3799992 114.5714990 102.1479997  51.0279992 113.5684990 103.2259997
  51.2763407 114.3659188 102.9843532  52.6569992 114.5014990  98.7899997
  51.9539992 115.1164990  98.5799997  52.2119992 113.6644990  98.9209997
  52.5006550 114.4724679  98.7789819  39.9049992 130.2654990  98.3359997
  39.2199992 130.2274990  97.6679997  39.9079992 131.1774990  98.6239997
  39.8117358 130.3836744  98.2836145  41.8649992 116.2334990  95.8809997
  42.3559992 115.6034990  95.3529997  42.4879992 116.5294990  96.5439997
  42.0165459 116.1872419  95.8983667  46.8909992 116.5264990  98.3379997
  47.0689992 115.8794990  99.0209997  46.8369992 117.3604990  98.8049997
  46.9080678 116.5506615  98.4946283  48.7689992 131.4744990  96.7329997
  49.6349992 131.8414990  96.5549997  48.5219992 131.0354990  95.9199997
  48.8542041 131.4653648  96.5985958  55.4779992 131.0374990  99.4129997
  55.2839992 130.2894990  98.8479997  55.4389992 131.7954990  98.8289997
  55.4461907 131.0375770  99.2568077  42.2539992  30.0034990  85.3149997
  42.9989992  30.0004990  84.7139997  42.3319992  29.1794990  85.7969997
  42.3664158  29.8917928  85.2979136  41.7229992 131.1854990  95.3609997
  41.4549992 131.4714990  96.2339997  42.4939992 130.6394990  95.5129997
  41.7905600 131.1508341  95.5011482  69.1019992 123.6754990 101.5929997
  69.1909992 124.6194990 101.4609997  68.4629992 123.4004990 100.9349997
  69.0278319 123.7674984 101.4860276  68.0349992 122.9304990 105.0119997
  67.9959992 122.2844990 105.7169997  67.7119992 122.4634990 104.2409997
  67.9860199 122.7790089 105.0042865  60.4029992 122.5444990 106.6049997
  60.4439992 121.9194990 107.3289997  61.1059992 123.1684990 106.7869997
  60.5036054 122.5433262 106.7286311  71.7409992 125.8694990 103.3139997
  71.2999992 125.1494990 103.7639997  71.7279992 126.5904990 103.9439997
  71.6788398 125.8683187 103.4607734  61.3269992 126.9944990 105.1399997
  60.9569992 126.1924990 104.7709997  62.2679992 126.8264990 105.1869997
  61.4035630 126.8618680 105.0957873  57.9369992 120.6544990 100.5329997
  57.4889992 121.5004990 100.5149997  57.3759992 120.0754990 100.0179997
  57.7998546 120.6919004 100.4608874  58.6469992 122.8164990 102.6589997
  58.8609992 122.0464990 103.1859997  59.3849992 122.9064990 102.0559997
  58.7760073 122.7233546 102.6495786  68.8519992 130.9734990 103.5259997
  69.4719992 130.2974990 103.2529997  68.6439992 130.7554990 104.4339997
  68.9087360 130.8514792 103.6114387  66.4239992 125.3624990 105.4179997
  66.7279992 124.6764990 104.8239997  67.1459992 125.4814990 106.0359997
  66.5631152 125.2847201 105.4202106  39.2619992  28.4634990  90.6299997
  39.4849992  28.0454990  91.4619997  38.6599992  27.8514990  90.2079997
  39.2110802  28.3235216  90.6867561  75.0869992 116.9644990 106.2789997
  75.1359992 117.5744990 107.0149997  75.5129992 117.4254990 105.5559997
  75.1512851 117.1103266 106.2820532  69.5649992 119.7564990 105.7459997
  69.7069992 118.8104990 105.7659997  69.4589992 119.9634990 104.8169997
  69.5701158 119.6549722 105.6232241  62.7199992 117.8584990 103.0179997
  62.7629992 118.7184990 102.5999997  62.2619992 117.3054990 102.3849997
  62.6639613 117.9015689 102.8751276  70.4419992 117.9894990 101.4189997
  71.0879992 117.6604990 102.0439997  70.9519992 118.5064990 100.7959997
  70.5994392 118.0143710 101.4203248  59.3399992 120.2554990 103.7799997
  59.9939992 119.7054990 104.2119997  59.3639992 119.9814990 102.8639997
  59.4327022 120.1432005 103.7151698  64.4959992 121.8054990 102.9959997
  65.1119992 121.2784990 103.5049997  63.9099992 121.1654990 102.5919997
  64.5010652 121.6468919 103.0110277  75.4789992 118.4424990 108.5149997
  74.7899992 119.1004990 108.4199997  75.4939992 118.2444990 109.4519997
  75.3867756 118.5057614 108.6285795  61.5299992 116.7764990 107.0919997
  61.3109992 117.3064990 106.3259997  60.8619992 117.0024990 107.7399997
  61.4097271 116.8796508 107.0746206  68.8989992 126.2764990 100.6359997
  68.6029992 125.9534990  99.7849997  68.5749992 127.1764990 100.6779997
  68.8146501 126.3539058 100.5250893  64.0989992 124.4514990 107.3799997
  63.3589992 125.0504990 107.4829997  64.8129992 125.0054990 107.0639997
  64.0943288 124.6082368 107.3513787  46.2789992  27.9804990  92.8429997
  45.9829992  27.8154990  91.9479997  47.2099992  27.7604990  92.8329997
  46.3643909  27.9281274  92.7190110  72.2059992 117.2804990 103.3999997
  71.9909992 116.5144990 103.9319997  72.8619992 117.7524990 103.9129997
  72.2652451 117.2394472 103.5421699  61.1239992 118.6684990 105.0449997
  61.7369992 119.3014990 105.4179997  61.6359992 118.1964990 104.3879997
  61.2771680 118.6914006 105.0072830  62.5059992 126.4164990 108.1669997
  62.5009992 127.2954990 107.7889997  61.6529992 126.3324990 108.5919997
  62.3899199 126.5255901 108.1726942  58.6279992 126.0874990  98.9489997
  58.3559992 126.3164990  98.0599997  58.6729992 126.9244990  99.4089997
  58.5968709 126.2321069  98.8896089  72.2529992 127.7084990 105.6619997
  71.3109992 127.7674990 105.8229997  72.5289992 128.6144990 105.5249997
  72.1615771 127.8390270 105.6654827  72.5529992 115.9954990 107.0789997
  71.8169992 116.6054990 107.0409997  73.2369992 116.4104990 106.5529997
  72.5445885 116.1351924 107.0026931  65.5559992 114.0814990 104.5449997
  65.4389992 113.1334990 104.4909997  64.7009992 114.4144990 104.8179997
  65.4243691 113.9965842 104.5745072  70.5049992 129.4894990 102.2869997
  70.9299992 128.7824990 101.8019997  70.8219992 130.2914990 101.8699997
  70.6060266 129.5010201 102.1642461  71.6639992 127.3904990 100.7959997
  71.4069992 126.7004990 100.1839997  71.7349992 126.9474990 101.6409997
  71.6384322 127.2361568 100.8265372  73.3499992 125.9574990 109.2729997
  73.4899992 125.3654990 108.5339997  73.5179992 126.8304990 108.9169997
  73.3918734 125.9944041 109.1236937  50.8989992  33.3544990  90.7329997
  49.9979992  33.5374990  90.4649997  50.9329992  33.6134990  91.6539997
  50.7803021  33.4145505  90.8208206  67.8229992 122.9194990  99.0449997
  67.1109992 123.4544990  98.6939997  68.5139992 122.9744990  98.3849997
  67.8188696 123.0002591  98.9076372  67.8769992 121.3764990  96.0839997
  68.5779992 121.3994990  96.7349997  68.1789992 120.7484990  95.4279997
  68.0138282 121.2947350  96.0844478  75.1919992 122.2974990 107.3389997
  74.5399992 122.9914990 107.4279997  75.6569992 122.5074990 106.5289997
  75.1655357 122.4209544 107.2417056  71.2289992 123.1284990  99.9969997
  70.4969992 123.3574990 100.5699997  71.6759992 122.4154990 100.4519997
  71.1892753 123.0633984 100.1369698  71.1259992 121.3034990 109.0649997
  71.2059992 122.0664990 109.6369997  70.5249992 121.5824990 108.3739997
  71.0557115 121.4457707 109.0499631  62.8739992 123.7594990 101.8799997
  62.5439992 123.3884990 101.0609997  63.4619992 123.0884990 102.2259997
  62.9084056 123.6181257 101.8149035  64.2409992 127.1874990 104.5609997
  64.1459992 126.6084990 103.8039997  64.9699992 126.8164990 105.0569997
  64.3266161 127.0580902 104.5245192  63.2409992 122.5274990 105.5129997
  63.8059992 122.6494990 104.7499997  63.5589992 123.1654990 106.1519997
  63.3613430 122.6304448 105.4949094  69.5499992 128.0314990 106.2469997
  69.3089992 128.6934990 106.8949997  69.3519992 127.1964990 106.6719997
  69.4902662 128.0092704 106.3931008  70.0999992 122.2914990  97.6819997
  70.6789992 122.4414990  98.4289997  70.5139992 122.7614990  96.9589997
  70.2353122 122.3756288  97.6865024  56.6299992  25.5984990  79.0999997
  56.0759992  25.2024990  78.4279997  56.7309992  26.5094990  78.8229997
  56.5677084  25.6673565  78.9704381  61.0409992 123.1254990 109.4589997
  61.1109992 123.7764990 110.1569997  60.1499992 123.2284990 109.1239997
  60.9301802 123.2284769 109.5092231  67.8259992 129.0274990 101.1179997
  68.2999992 129.3234990 101.8949997  67.2629992 129.7664990 100.8839997
  67.8148460 129.1678336 101.1927626  73.7979992 114.0414990  97.4949997
  72.8979992 114.1794990  97.7899997  74.0499992 114.8724990  97.0929997
  73.7087355 114.1728200  97.4810539  61.8639992 122.8284990  99.4689997
  61.5719992 123.5964990  98.9779997  61.1899992 122.1694990  99.3059997
  61.7328843 122.8444537  99.3797695  74.9879992 128.4074990  95.8719997
  75.0609992 129.3464990  96.0419997  75.8929992 128.1024990  95.8149997
  75.1204168 128.4948531  95.8875736  57.9569992 125.1914990 108.2839997
  57.4559992 125.1634990 107.4689997  57.9629992 124.2864990 108.5939997
  57.8891690 125.0652234 108.2142770  57.7079992 127.9724990 105.1679997
  58.6539992 127.8274990 105.1489997  57.5949992 128.7564990 105.7049997
  57.8223578 128.0586708 105.2380300  66.8839992 128.2124990 109.7259997
  66.9709992 129.0384990 110.2009997  66.0199992 127.8824990 109.9749997
  66.7791944 128.2809871 109.8246558  67.2979992 131.9844990  99.5319997
  67.2229992 131.8634990  98.5859997  67.3309992 132.9334990  99.6509997
  67.2921862 132.0962492  99.4184840  60.9519992 130.7734990 101.3129997
  61.1039992 130.4254990 102.1919997  60.1009992 130.4164990 101.0579997
  60.8577899 130.6776749 101.3987322  56.5929992  31.3994990  91.9369997
  55.7419992  31.6374990  91.5699997  57.1839992  31.3824990  91.1839997
  56.5562468  31.4298251  91.7848902  70.3999992 131.1384990  96.5349997
  70.7749992 130.3944990  96.0639997  70.4039992 130.8684990  97.4529997
  70.4518969 131.0000920  96.5946475  70.0689992 131.0644990  99.2839997
  69.1339992 131.1644990  99.4629997  70.3489992 130.3544990  99.8619997
  69.9789270 130.9822300  99.3865984  60.2059992 126.5154990 109.3269997
  60.4219992 126.1534990 110.1869997  59.3509992 126.1404990 109.1169997
  60.1199349 126.4152914 109.4162134  62.8249992 114.9854990 105.3229997
  61.9629992 114.8984990 104.9149997  62.8029992 115.8414990 105.7499997
  62.7040953 115.0893558 105.3249262  67.4879992 114.7074990 108.6969997
  67.9079992 114.2924990 109.4499997  66.5549992 114.5284990 108.8139997
  67.4193736 114.6264921 108.8158950  70.8139992 118.4624990 109.5509997
  70.2999992 118.3374990 110.3479997  70.6589992 119.3754990 109.3059997
  70.7226643 118.5687068 109.6270624  71.5769992 123.3234990  95.3119997
  71.6189992 123.1014990  94.3819997  72.4259992 123.7224990  95.5019997
  71.6975253 123.3470510  95.2103804  67.1499992 117.1994990  95.9819997
  66.8959992 117.2184990  96.9049997  66.8929992 116.3284990  95.6809997
  67.0805133 117.0843121  96.0675065  62.9159992 119.9504990 106.4179997
  62.2739992 119.9104990 107.1269997  62.9529992 120.8774990 106.1799997
  62.8331659 120.0702540 106.4828463  62.9129992 120.1714990 101.3299997
  62.0199992 119.8314990 101.2709997  63.3639992 119.7944990 100.5739997
  62.8517185 120.0740220 101.2197698  54.9249992  34.3844990  79.5649997
  54.5529992  33.5594990  79.8749997  55.2029992  34.2014990  78.6679997
  54.9115997  34.2466160  79.4861551  68.4489992 120.5874990 100.1469997
  68.0399992 121.4024990  99.8549997  69.1689992 120.4474990  99.5319997
  68.4903946 120.6799963 100.0239616  69.4529992 120.0334990 102.9609997
  69.2579992 120.6394990 102.2459997  69.6349992 119.2004990 102.5259997
  69.4509272 120.0037955 102.8044075  60.6659992 120.2714990 108.2849997
  60.6279992 120.6714990 109.1529997  60.1749992 119.4544990 108.3749997
  60.5944246 120.2158842 108.4161171  64.0319992 117.6454990  95.0829997
  63.6009992 117.2004990  95.8129997  63.3139992 118.0164990  94.5709997
  63.8759363 117.6347979  95.1136194  57.2739992 117.3874990 102.1349997
  57.9049992 117.3584990 102.8549997  57.7239992 116.9624990 101.4049997
  57.4210905 117.3260839 102.1347479  58.5479992 118.1334990  97.5589997
  59.0229992 118.7244990  96.9739997  57.8309992 118.6634990  97.9059997
  58.5160406 118.2861011  97.5258495  68.7169992 121.6714990 107.6319997
  69.0409992 121.0404990 106.9889997  68.2769992 121.1374990 108.2929997
  68.7018707 121.5128261 107.6333195  65.4949992 117.5994990 102.4159997
  64.5839992 117.6564990 102.7049997  65.9999992 117.5394990 103.2269997
  65.4386873 117.5991838 102.5651190  60.3229992 119.2284990 101.2429997
  59.4339992 119.3274990 100.9029997  60.6189992 118.3864990 100.8969997
  60.2414001 119.1282473 101.1497318  63.9759992 119.2284990  98.8989997
  64.9079992 119.3574990  99.0769997  63.7609992 119.8974990  98.2499997
  64.0744245 119.3366452  98.8355602  52.0859992  29.1924990  86.5869997
  51.1579992  28.9614990  86.5599997  52.5369992  28.4154990  86.2569997
  52.0198165  29.0557785  86.5386772  69.8999992 116.8344990 105.6799997
  69.2229992 116.9654990 106.3439997  69.4139992 116.6794990 104.8699997
  69.7417265 116.8314665 105.6613380  62.6499992 120.4224990  96.4659997
  62.1079992 120.0434990  95.7749997  63.4839992 120.6174990  96.0369997
  62.6884283 120.3969383  96.3134298  66.8149992 120.3864990 104.3029997
  67.3789992 119.8404990 103.7559997  66.6669992 119.8654990 105.0919997
  66.8723037 120.2411798 104.3347212  61.8169992 116.5234990 100.7209997
  61.4989992 115.6204990 100.6859997  62.5979992 116.5254990 100.1689997
  61.8791560 116.4001148 100.6414975  65.4409992 118.7754990 106.7169997
  64.6059992 119.2294990 106.8269997  65.9649992 119.0514990 107.4689997
  65.3975070 118.8749677 106.8337134  65.9849992 124.9884990  98.4019997
  65.2399992 124.4804990  98.0789997  65.8509992 125.0374990  99.3479997
  65.8648633 124.9255714  98.4857563  73.1349992 124.1214990 107.1879997
  73.7769992 124.5774990 106.6449997  72.3049992 124.2344990 106.7259997
  73.1107352 124.1993223 107.0510234  69.8829992 117.8024990  96.6009997
  68.9439992 117.9134990  96.4499997  70.1799992 118.6584990  96.9069997
  69.7946371 117.9335327  96.6217362  67.5049992 125.1724990 109.6389997
  67.1589992 124.7904990 110.4449997  67.3049992 126.1054990 109.7099997
  67.4305399 125.2463489 109.7590401  70.6009992 119.6694990  98.2619997
  71.4929992 119.5314990  98.5809997  70.6579992 120.4604990  97.7249997
  70.7307380 119.7574777  98.2330981  44.6289992  33.5214990  82.7199997
  45.1559992  34.2944990  82.5189997  43.7489992  33.7454990  82.4179997
  44.5821793  33.6576652  82.6516304  61.1099992 124.2834990 104.1709997
  61.8549992 124.2804990 103.5699997  61.1879992 123.4594990 104.6529997
  61.2224158 124.1717928 104.1539136  68.1109992 126.4464990  97.4269997
  67.8159992 127.2734990  97.8089997  67.4079992 125.8274990  97.6229997
  67.9755855 126.4759458  97.5057634  58.1179992 122.7434990 109.4859997
  58.3409992 122.3254990 110.3179997  57.5159992 122.1314990 109.0639997
  58.0670802 122.6035216 109.5427561  69.7549992 127.6344990 109.5889997
  68.8539992 127.8174990 109.3209997  69.7889992 127.8934990 110.5099997
  69.6363021 127.6945505 109.6768206  75.4859992 119.8784990  97.9559997
  74.9319992 119.4824990  97.2839997  75.5869992 120.7894990  97.6789997
  75.4237084 119.9473565  97.8264381  73.7809992 128.6644990  98.4209997
  73.4089992 127.8394990  98.7309997  74.0589992 128.4814990  97.5239997
  73.7675997 128.5266160  98.3421551  70.9419992 123.4724990 105.4429997
  70.0139992 123.2414990 105.4159997  71.3929992 122.6954990 105.1129997
  70.8758165 123.3357785 105.3946772  63.4849992 127.8014990 101.5759997
  64.0119992 128.5744990 101.3749997  62.6049992 128.0254990 101.2739997
  63.4381793 127.9376652 101.5076304  59.2399992 122.6634990  96.1629997
  59.8559992 123.2904990  96.5419997  58.3779992 122.9794990  96.4339997
  59.2078195 122.7920810  96.2515369  64.9119992 125.4644990 101.1519997
  64.6709992 126.3894990 101.1939997  64.1719992 125.0054990 101.5479997
  64.7788934 125.5290881 101.2113191  46.0559992  31.1844990  82.2959997
  45.8149992  32.1094990  82.3379997  45.3159992  30.7254990  82.6919997
  45.9228934  31.2490881  82.3553191  65.4269992 129.6134990 107.4669997
  65.7899992 130.4674990 107.2339997  65.9589992 129.3214990 108.2079997
  65.5485141 129.6908907 107.5352079  63.5949992 130.4854990 100.6969997
  62.6459992 130.5914990 100.7489997  63.9469992 131.3064990 101.0419997
  63.5126214 130.6109361 100.7507317  68.9709992 125.7124990 107.1679997
  68.5449992 125.4844990 107.9939997  69.5519992 124.9734990 106.9849997
  68.9911587 125.5814084 107.2564111  71.1739992 126.6414990  96.2419997
  71.5269992 126.2614990  97.0459997  70.2249992 126.5474990  96.3279997
  71.0940985 126.5767330  96.3637738  71.6299992 130.2644990 109.6369997
  71.0279992 129.7084990 109.1419997  71.9109992 130.9314990 109.0109997
  71.5855757 130.2785755 109.4845657  75.6769992 131.1204990  96.4429997
  76.4209992 131.7064990  96.3029997  74.9829992 131.6894990  96.7759997
  75.6849809 131.2775830  96.4688572  59.7519992 117.4974990 109.0439997
  58.8589992 117.8354990 108.9769997  59.6529992 116.6414990 109.4619997
  59.6165241 117.4280941 109.0912982  72.0399992 125.3134990  98.4679997
  71.7629992 124.5854990  99.0239997  72.9669992 125.4324990  98.6739997
  72.1274181 125.2300068  98.5718972  59.4029992 129.3014990 107.4789997
  59.6199992 128.3694990 107.4479997  59.6499992 129.5764990 108.3629997
  59.4660543 129.2110877 107.5941412  65.2649992 127.7534990  94.6889997
  65.5039992 127.0044990  94.1409997  64.9959992 127.3654990  95.5209997
  65.2612804 127.5986524  94.7266352  46.5709992  35.3334990  88.6109997
  46.9339992  36.1874990  88.3779997  47.1029992  35.0414990  89.3519997
  46.6925141  35.4108907  88.6792079  64.2019992 127.3234990  97.1449997
  64.3489992 126.8034990  97.9349997  64.1989992 128.2304990  97.4509997
  64.2217300 127.3748975  97.2945877  60.6549992 124.5754990  97.6549997
  59.9689992 124.9284990  98.2219997  61.1779992 125.3384990  97.4089997
  60.6319033 124.7268757  97.6992644  68.4859992 117.2384990 107.9339997
  69.1849992 117.3124990 108.5839997  68.1059992 116.3734990 108.0889997
  68.5302095 117.1317402 108.0437982  69.2709992 116.8904990  99.0309997
  69.4909992 117.3614990  98.2279997  69.8289992 117.2844990  99.7019997
  69.3765851 117.0083272  99.0116134  66.9399992 129.0204990  97.8939997
  66.1229992 129.5174990  97.9469997  67.4689992 129.4964990  97.2539997
  66.8997898 129.1528123  97.8147274  66.4709992 118.6184990  99.8659997
  67.2829992 119.1224990  99.9119997  66.2259992 118.4734990 100.7799997
  66.5491091 118.6679366  99.9958552  67.0069992 119.6044990 109.0509997
  67.1259992 120.1784990 109.8079997  67.6619992 118.9164990 109.1659997
  67.1118684 119.5900205 109.1701656  67.3549992 115.6994990 100.8039997
  67.0079992 116.3164990 101.4489997  68.0129992 116.2004990 100.3229997
  67.3965290 115.8516384 100.8271635  64.2779992 130.0644990  97.8759997
  64.4389992 130.8644990  97.3749997  64.0809992 130.3714990  98.7609997
  64.2733919 130.2154140  97.9270988  63.0119992 116.7624990  97.4919997
  62.9289992 117.6504990  97.8379997  63.9019992 116.4974990  97.7229997
  63.1209751 116.8482482  97.5706066  44.7389992  36.2054990  81.8409997
  43.7899992  36.3114990  81.8929997  45.0909992  37.0264990  82.1859997
  44.6566214  36.3309361  81.8947317  73.2109992 117.5114990 109.8859997
  72.2949992 117.7734990 109.7979997  73.5469992 117.5084990 108.9889997
  73.1309789 117.5469637 109.7527829  71.8129992 121.2614990 103.9819997
  71.0159992 120.8464990 103.6529997  72.2579992 120.5714990 104.4729997
  71.7640317 121.1113197 104.0033557  61.2709992 127.1894990  96.5519997
  61.8629992 127.8894990  96.8279997  61.7299992 126.7564990  95.8329997
  61.4141172 127.2267371  96.4925163  59.5869992 119.8544990  95.6679997
  59.5419992 120.7934990  95.8469997  58.6989992 119.6184990  95.3979997
  59.4608472 119.9511946  95.6560282  72.8999992 130.5174990 105.6039997
  72.7439992 131.1964990 104.9469997  73.8319992 130.5894990 105.8069997
  73.0047328 130.6201586 105.5415529  60.3949992 114.6354990 104.3409997
  60.1659992 114.6944990 103.4139997  59.9519992 113.8444990 104.6479997
  60.3037387 114.5366412 104.2555223  59.3249992 128.5764990 100.5019997
  58.4929992 129.0484990 100.5289997  59.8709992 129.0864990  99.9029997
  59.2848710 128.7100317 100.4247570  67.3029992 129.6164990  94.8269997
  66.6589992 128.9854990  95.1489997  68.0649992 129.0854990  94.5949997
  67.3178260 129.4583035  94.8397298  71.9069992 129.4334990  95.0609997
  72.1899992 128.6384990  95.5139997  72.6469992 129.6664990  94.4999997
  72.0457295 129.3562349  95.0471469  62.8619992 125.3424990  94.9179997
  62.9259992 124.5484990  95.4489997  63.5149992 125.2244990  94.2289997
  62.9591168 125.2177747  94.8975119  50.1149992  31.4324990  88.3119997
  49.6889992  31.2044990  89.1379997  50.6959992  30.6934990  88.1289997
  50.1351587  31.3014084  88.4004111  68.2139992 126.3894990  94.6539997
  67.9459992 126.5704990  95.5549997  68.0079992 125.4644990  94.5229997
  68.1494251 126.2891528  94.7596809  70.9109992 124.8844990 109.6019997
  71.6559992 125.4734990 109.4819997  70.1529992 125.4664990 109.6649997
  70.9105185 125.0437000 109.5940940  64.0109992 123.3154990  97.2239997
  63.5519992 122.8314990  97.9099997  64.2659992 122.6464990  96.5879997
  63.9826178 123.1588511  97.2319785  63.2999992 121.2084990 109.5799997
  62.6819992 121.8824990 109.8609997  63.6439992 121.5294990 108.7469997
  63.2618181 121.3443233 109.5058266  65.0819992 121.5584990  95.4869997
  64.9019992 121.4034990  94.5589997  66.0319992 121.6664990  95.5309997
  65.1858016 121.5519264  95.3662123  74.4719992 123.9124990  94.9319997
  74.1989992 123.4884990  94.1189997  74.5119992 124.8444990  94.7149997
  74.4400201 123.9803523  94.7913548  64.0519992 116.9324990 108.1549997
  64.5879992 117.3844990 107.5029997  63.1999992 116.8244990 107.7329997
  64.0101648 116.9797883 108.0086395  65.6339992 122.3724990 108.3949997
  66.3849992 122.2164990 107.8219997  65.2949992 123.2244990 108.1189997
  65.6909052 122.4662745 108.2793469  64.8579992 114.3894990 108.5869997
  64.7599992 115.3354990 108.4809997  64.1149992 114.0164990 108.1109997
  64.7442363 114.4685987 108.5082029  64.9799992 132.2484990  96.4879997
  65.9129992 132.4064990  96.6319997  64.7149992 132.9244990  95.8629997
  65.0719846 132.3614567  96.4232930  52.7739992  35.9844990  90.7809997
  52.1719992  35.4284990  90.2859997  53.0549992  36.6514990  90.1549997
  52.7295757  35.9985755  90.6285657  58.5479992 126.8854990  95.9709997
  59.4619992 126.9644990  96.2439997  58.5549992 126.1984990  95.3039997
  58.6740769 126.8034735  95.9182366  57.1969992 132.2784990 101.0479997
  56.5499992 131.8164990 100.5149997  57.5519992 131.6064990 101.6309997
  57.1563861 132.1244707 101.0537939  58.0669992 130.3584990 102.8529997
  57.7329992 129.4784990 103.0249997  58.2889992 130.7044990 103.7169997
  58.0512677 130.2847365 102.9934252  75.6159992 131.1684990 105.8329997
  75.5939992 131.3534990 106.7719997  76.3059992 131.7364990 105.4919997
  75.7063439 131.2706898 105.9154774  75.1789992 130.7354990 108.7549997
  74.6919992 129.9994990 108.3839997  75.7279992 130.3414990 109.4329997
  75.1866101 130.5816267 108.7959034  74.9309992 124.7814990  98.9069997
  75.7809992 125.2024990  99.0349997  74.9359992 124.0414990  99.5149997
  75.0479745 124.7391347  99.0066479  75.3249992 122.8354990 100.7309997
  74.5989992 122.3554990 101.1289997  75.9059992 123.0404990 101.4629997
  75.3042504 122.7975592 100.8844199  75.0839992 125.6204990 105.6789997
  75.9179992 125.2424990 105.3979997  75.1959992 126.5634990 105.5599997
  75.2131917 125.6962954 105.6244844  73.5699992 128.4984990 107.9859997
  72.9229992 128.8234990 108.6109997  73.0529992 128.0574990 107.3109997
  73.4114067 128.4834726 107.9804918  75.5929992 122.7364990  97.1219997
  75.0719992 123.0924990  96.4029997  75.5599992 123.4114990  97.7999997
  75.5171525 122.8765273  97.1151408  40.8959992  23.2174990  90.1879997
  40.0029992  23.5554990  90.1209997  40.7969992  22.3614990  90.6059997
  40.7605241  23.1480941  90.2352982  73.9419992 119.9754990  95.6729997
  74.0389992 120.6424990  94.9929997  73.8019992 119.1604990  95.1909997
  73.9363428 119.9565667  95.5148311  73.1119992 121.3564990 101.2939997
  72.9619992 120.4114990 101.2739997  72.7579992 121.6374990 102.1379997
  73.0436351 121.2651656 101.4053202  58.1469992 123.4344990 105.3039997
  58.3309992 123.3524990 104.3689997  58.9959992 123.3104990 105.7279997
  58.2870259 123.4064915 105.2331771  73.1899992 117.3834990  94.7899997
  73.7999992 117.0124990  95.4269997  72.3529992 116.9624990  94.9859997
  73.1603704 117.2757942  94.9037077  72.8219992 118.9384990  99.7559997
  73.1019992 118.0314990  99.8809997  73.5809992 119.3724990  99.3669997
  72.9629471 118.8730654  99.7205051  73.4339992 119.5204990 105.1919997
  74.3669992 119.7324990 105.1579997  73.1989992 119.6214990 106.1149997
  73.5298357 119.5631303 105.3120232  73.4629992 120.2574990 107.9679997
  72.6199992 120.5254990 108.3339997  73.9059992 121.0794990 107.7569997
  73.4074358 120.4053294 107.9895999  73.4359992 116.2014990  99.8049997
  73.6179992 115.7524990 100.6299997  72.8359992 115.6174990  99.3409997
  73.3798187 116.0610563  99.8552721  58.9659992 117.0174990 104.3359997
  59.4109992 116.2254990 104.6379997  59.4319992 117.7334990 104.7669997
  59.0899059 117.0059485 104.4356061  57.2699992 120.0164990 105.4049997
  57.7619992 119.7954990 104.6149997  57.6319992 120.8564990 105.6859997
  57.3863429 120.0998220 105.3347918  53.1839992  31.0334990  79.6119997
  52.9069992  30.3054990  80.1679997  54.1109992  31.1524990  79.8179997
  53.2714181  30.9500068  79.7158972  75.3019992 116.2694990  96.3329997
  75.7149992 115.5484990  95.8569997  75.9839992 116.9384990  96.3909997
  75.4505712 116.2614304  96.2758247  57.5829992 116.2744990  99.4599997
  56.6579992 116.4824990  99.3299997  58.0369992 116.7584990  98.7699997
  57.5177401 116.3683895  99.3489433  72.3539992 131.2584990 101.4049997
  73.0059992 130.9104990 100.7969997  72.8649992 131.7464990 102.0509997
  72.5122872 131.2768248 101.4090964  57.5469992 115.0124990 107.8039997
  56.8819992 114.7664990 108.4469997  57.1039992 115.6344990 107.2269997
  57.3961168 115.0629225 107.8139830  62.6929992 129.1614990 108.2069997
  62.2679992 129.9714990 107.9239997  63.5969992 129.2474990 107.9049997
  62.7571002 129.2838728 108.1274798  74.2669992 114.4364990 109.4899997
  73.4539992 114.7614990 109.1019997  74.4999992 113.6754990 108.9569997
  74.1872566 114.3781570 109.3649196  60.0949992 132.4184990 108.2539997
  59.3739992 132.8584990 107.8029997  59.7289992 132.1674990 109.1029997
  59.9469785 132.4447691 108.3069849  62.5619992 132.0184990 107.2839997
  61.6969992 132.0904990 107.6879997  62.5069992 132.5654990 106.4999997
  62.4362066 132.1022678 107.2333371  67.2729992 131.9064990 106.4599997
  66.8159992 132.4354990 105.8059997  67.4349992 132.5094990 107.1849997
  67.2323919 132.0603990 106.4685740  69.5999992 130.7844990 107.4049997
  68.6959992 130.9494990 107.1389997  70.0289992 131.6374990 107.3389997
  69.5342017 130.9224184 107.3596495  40.5469992  35.0214990  88.6229997
  40.7639992  34.0894990  88.5919997  40.7939992  35.2964990  89.5069997
  40.6100543  34.9310877  88.7381412  72.2039992 132.3544990 107.6999997
  72.0229992 133.2704990 107.4889997  72.3809992 131.9434990 106.8529997
  72.2031377 132.4243365 107.5567178  59.5099992 131.0414990 105.1649997
  59.4909992 130.6154990 106.0219997  60.3139992 130.7224990 104.7559997
  59.6161393 130.9400297 105.2270155  61.6509992 129.7514990 103.8199997
  61.4319992 128.8344990 103.9889997  62.4749992 129.8914990 104.2859997
  61.7324637 129.6449586 103.9061414  64.1879992 130.2214990 104.6679997
  64.4009992 129.3334990 104.3809997  64.2529992 130.1864990 105.6229997
  64.2259075 130.0953318 104.7577355  67.6969992 115.8854990 103.8129997
  67.0219992 115.2554990 104.0679997  68.2609992 115.4014990 103.2099997
  67.6809558 115.7339283 103.7663451  72.8389992 113.9924990 103.9249997
  73.4429992 114.5404990 103.4239997  71.9699992 114.3114990 103.6849997
  72.8041126 114.1107070 103.8239180  74.5659992 115.1314990 102.2589997
  75.1779992 114.6174990 101.7319997  74.9489992 116.0084990 102.2819997
  74.7013867 115.1797613 102.1900888  60.0229992 114.5194990 101.6349997
  59.2459992 114.2844990 101.1269997  60.5539992 113.7224990 101.6439997
  59.9884443 114.3796721 101.5667200  58.8599992 114.3174990  97.4379997
  59.2989992 114.9284990  96.8469997  58.2259992 114.8554990  97.9119997
  58.8344103 114.4739233  97.4211376  64.6029992 114.4454990 101.4479997
  65.4769992 114.8344990 101.4179997  64.4669992 114.2304990 102.3709997
  64.7043125 114.4697120 101.5686523  45.3459992  33.0434990  78.2889997
  45.4929992  32.5234990  79.0789997  45.3429992  33.9504990  78.5949997
  45.3657300  33.0948975  78.4385877  70.1589992 114.4754990 103.0969997
  70.2359992 114.5714990 102.1479997  69.8839992 113.5684990 103.2259997
  70.1323407 114.3659188 102.9843532  71.5129992 114.5014990  98.7899997
  70.8099992 115.1164990  98.5799997  71.0679992 113.6644990  98.9209997
  71.3566550 114.4724679  98.7789819  58.7609992 130.2654990  98.3359997
  58.0759992 130.2274990  97.6679997  58.7639992 131.1774990  98.6239997
  58.6677358 130.3836744  98.2836145  60.7209992 116.2334990  95.8809997
  61.2119992 115.6034990  95.3529997  61.3439992 116.5294990  96.5439997
  60.8725459 116.1872419  95.8983667  65.7469992 116.5264990  98.3379997
  65.9249992 115.8794990  99.0209997  65.6929992 117.3604990  98.8049997
  65.7640678 116.5506615  98.4946283  67.6249992 131.4744990  96.7329997
  68.4909992 131.8414990  96.5549997  67.3779992 131.0354990  95.9199997
  67.7102041 131.4653648  96.5985958  74.3339992 131.0374990  99.4129997
  74.1399992 130.2894990  98.8479997  74.2949992 131.7954990  98.8289997
  74.3021907 131.0375770  99.2568077  60.5789992 131.1854990  95.3609997
  60.3109992 131.4714990  96.2339997  61.3499992 130.6394990  95.5129997
  60.6465600 131.1508341  95.5011482  87.9579992 123.6754990 101.5929997
  88.0469992 124.6194990 101.4609997  87.3189992 123.4004990 100.9349997
  87.8838319 123.7674984 101.4860276  86.8909992 122.9304990 105.0119997
  86.8519992 122.2844990 105.7169997  86.5679992 122.4634990 104.2409997
  86.8420199 122.7790089 105.0042865  49.6299992  22.9584990  89.0779997
  50.3289992  23.0324990  89.7279997  49.2499992  22.0934990  89.2329997
  49.6742095  22.8517402  89.1877982  79.2589992 122.5444990 106.6049997
  79.2999992 121.9194990 107.3289997  79.9619992 123.1684990 106.7869997
  79.3596054 122.5433262 106.7286311  90.5969992 125.8694990 103.3139997
  90.1559992 125.1494990 103.7639997  90.5839992 126.5904990 103.9439997
  90.5348398 125.8683187 103.4607734  80.1829992 126.9944990 105.1399997
  79.8129992 126.1924990 104.7709997  81.1239992 126.8264990 105.1869997
  80.2595630 126.8618680 105.0957873  76.7929992 120.6544990 100.5329997
  76.3449992 121.5004990 100.5149997  76.2319992 120.0754990 100.0179997
  76.6558546 120.6919004 100.4608874  77.5029992 122.8164990 102.6589997
  77.7169992 122.0464990 103.1859997  78.2409992 122.9064990 102.0559997
  77.6320073 122.7233546 102.6495786  87.7079992 130.9734990 103.5259997
  88.3279992 130.2974990 103.2529997  87.4999992 130.7554990 104.4339997
  87.7647360 130.8514792 103.6114387  85.2799992 125.3624990 105.4179997
  85.5839992 124.6764990 104.8239997  86.0019992 125.4814990 106.0359997
  85.4191152 125.2847201 105.4202106  93.9429992 116.9644990 106.2789997
  93.9919992 117.5744990 107.0149997  94.3689992 117.4254990 105.5559997
  94.0072851 117.1103266 106.2820532  88.4209992 119.7564990 105.7459997
  88.5629992 118.8104990 105.7659997  88.3149992 119.9634990 104.8169997
  88.4261158 119.6549722 105.6232241  81.5759992 117.8584990 103.0179997
  81.6189992 118.7184990 102.5999997  81.1179992 117.3054990 102.3849997
  81.5199613 117.9015689 102.8751276  50.4149992  22.6104990  80.1749997
  50.6349992  23.0814990  79.3719997  50.9729992  23.0044990  80.8459997
  50.5205851  22.7283272  80.1556134  89.2979992 117.9894990 101.4189997
  89.9439992 117.6604990 102.0439997  89.8079992 118.5064990 100.7959997
  89.4554392 118.0143710 101.4203248  78.1959992 120.2554990 103.7799997
  78.8499992 119.7054990 104.2119997  78.2199992 119.9814990 102.8639997
  78.2887022 120.1432005 103.7151698  83.3519992 121.8054990 102.9959997
  83.9679992 121.2784990 103.5049997  82.7659992 121.1654990 102.5919997
  83.3570652 121.6468919 103.0110277  94.3349992 118.4424990 108.5149997
  93.6459992 119.1004990 108.4199997  94.3499992 118.2444990 109.4519997
  94.2427756 118.5057614 108.6285795  80.3859992 116.7764990 107.0919997
  80.1669992 117.3064990 106.3259997  79.7179992 117.0024990 107.7399997
  80.2657271 116.8796508 107.0746206  87.7549992 126.2764990 100.6359997
  87.4589992 125.9534990  99.7849997  87.4309992 127.1764990 100.6779997
  87.6706501 126.3539058 100.5250893  82.9549992 124.4514990 107.3799997
  82.2149992 125.0504990 107.4829997  83.6689992 125.0054990 107.0639997
  82.9503288 124.6082368 107.3513787  91.0619992 117.2804990 103.3999997
  90.8469992 116.5144990 103.9319997  91.7179992 117.7524990 103.9129997
  91.1212451 117.2394472 103.5421699  79.9799992 118.6684990 105.0449997
  80.5929992 119.3014990 105.4179997  80.4919992 118.1964990 104.3879997
  80.1331680 118.6914006 105.0072830  81.3619992 126.4164990 108.1669997
  81.3569992 127.2954990 107.7889997  80.5089992 126.3324990 108.5919997
  81.2459199 126.5255901 108.1726942  48.0839992  34.7404990  79.0379997
  47.2669992  35.2374990  79.0909997  48.6129992  35.2164990  78.3979997
  48.0437898  34.8728123  78.9587274  77.4839992 126.0874990  98.9489997
  77.2119992 126.3164990  98.0599997  77.5289992 126.9244990  99.4089997
  77.4528709 126.2321069  98.8896089  91.1089992 127.7084990 105.6619997
  90.1669992 127.7674990 105.8229997  91.3849992 128.6144990 105.5249997
  91.0175771 127.8390270 105.6654827  91.4089992 115.9954990 107.0789997
  90.6729992 116.6054990 107.0409997  92.0929992 116.4104990 106.5529997
  91.4005885 116.1351924 107.0026931  84.4119992 114.0814990 104.5449997
  84.2949992 113.1334990 104.4909997  83.5569992 114.4144990 104.8179997
  84.2803691 113.9965842 104.5745072  89.3609992 129.4894990 102.2869997
  89.7859992 128.7824990 101.8019997  89.6779992 130.2914990 101.8699997
  89.4620266 129.5010201 102.1642461  90.5199992 127.3904990 100.7959997
  90.2629992 126.7004990 100.1839997  90.5909992 126.9474990 101.6409997
  90.4944322 127.2361568 100.8265372  92.2059992 125.9574990 109.2729997
  92.3459992 125.3654990 108.5339997  92.3739992 126.8304990 108.9169997
  92.2478734 125.9944041 109.1236937  86.6789992 122.9194990  99.0449997
  85.9669992 123.4544990  98.6939997  87.3699992 122.9744990  98.3849997
  86.6748696 123.0002591  98.9076372  86.7329992 121.3764990  96.0839997
  87.4339992 121.3994990  96.7349997  87.0349992 120.7484990  95.4279997
  86.8698282 121.2947350  96.0844478  94.0479992 122.2974990 107.3389997
  93.3959992 122.9914990 107.4279997  94.5129992 122.5074990 106.5289997
  94.0215357 122.4209544 107.2417056  47.6149992  24.3384990  81.0099997
  48.4269992  24.8424990  81.0559997  47.3699992  24.1934990  81.9239997
  47.6931091  24.3879366  81.1398552  90.0849992 123.1284990  99.9969997
  89.3529992 123.3574990 100.5699997  90.5319992 122.4154990 100.4519997
  90.0452753 123.0633984 100.1369698  89.9819992 121.3034990 109.0649997
  90.0619992 122.0664990 109.6369997  89.3809992 121.5824990 108.3739997
  89.9117115 121.4457707 109.0499631  81.7299992 123.7594990 101.8799997
  81.3999992 123.3884990 101.0609997  82.3179992 123.0884990 102.2259997
  81.7644056 123.6181257 101.8149035  83.0969992 127.1874990 104.5609997
  83.0019992 126.6084990 103.8039997  83.8259992 126.8164990 105.0569997
  83.1826161 127.0580902 104.5245192  82.0969992 122.5274990 105.5129997
  82.6619992 122.6494990 104.7499997  82.4149992 123.1654990 106.1519997
  82.2173430 122.6304448 105.4949094  88.4059992 128.0314990 106.2469997
  88.1649992 128.6934990 106.8949997  88.2079992 127.1964990 106.6719997
  88.3462662 128.0092704 106.3931008  88.9559992 122.2914990  97.6819997
  89.5349992 122.4414990  98.4289997  89.3699992 122.7614990  96.9589997
  89.0913122 122.3756288  97.6865024  79.8969992 123.1254990 109.4589997
  79.9669992 123.7764990 110.1569997  79.0059992 123.2284990 109.1239997
  79.7861802 123.2284769 109.5092231  86.6819992 129.0274990 101.1179997
  87.1559992 129.3234990 101.8949997  86.1189992 129.7664990 100.8839997
  86.6708460 129.1678336 101.1927626  92.6539992 114.0414990  97.4949997
  91.7539992 114.1794990  97.7899997  92.9059992 114.8724990  97.0929997
  92.5647355 114.1728200  97.4810539  48.1509992  25.3244990  90.1949997
  48.2699992  25.8984990  90.9519997  48.8059992  24.6364990  90.3099997
  48.2558684  25.3100205  90.3141656  80.7199992 122.8284990  99.4689997
  80.4279992 123.5964990  98.9779997  80.0459992 122.1694990  99.3059997
  80.5888843 122.8444537  99.3797695  93.8439992 128.4074990  95.8719997
  93.9169992 129.3464990  96.0419997  94.7489992 128.1024990  95.8149997
  93.9764168 128.4948531  95.8875736  76.8129992 125.1914990 108.2839997
  76.3119992 125.1634990 107.4689997  76.8189992 124.2864990 108.5939997
  76.7451690 125.0652234 108.2142770  76.5639992 127.9724990 105.1679997
  77.5099992 127.8274990 105.1489997  76.4509992 128.7564990 105.7049997
  76.6783578 128.0586708 105.2380300  85.7399992 128.2124990 109.7259997
  85.8269992 129.0384990 110.2009997  84.8759992 127.8824990 109.9749997
  85.6351944 128.2809871 109.8246558  86.1539992 131.9844990  99.5319997
  86.0789992 131.8634990  98.5859997  86.1869992 132.9334990  99.6509997
  86.1481862 132.0962492  99.4184840  79.8079992 130.7734990 101.3129997
  79.9599992 130.4254990 102.1919997  78.9569992 130.4164990 101.0579997
  79.7137899 130.6776749 101.3987322  89.2559992 131.1384990  96.5349997
  89.6309992 130.3944990  96.0639997  89.2599992 130.8684990  97.4529997
  89.3078969 131.0000920  96.5946475  88.9249992 131.0644990  99.2839997
  87.9899992 131.1644990  99.4629997  89.2049992 130.3544990  99.8619997
  88.8349270 130.9822300  99.3865984  79.0619992 126.5154990 109.3269997
  79.2779992 126.1534990 110.1869997  78.2069992 126.1404990 109.1169997
  78.9759349 126.4152914 109.4162134  48.4989992  21.4194990  81.9479997
  48.1519992  22.0364990  82.5929997  49.1569992  21.9204990  81.4669997
  48.5405290  21.5716384  81.9711635  81.6809992 114.9854990 105.3229997
  80.8189992 114.8984990 104.9149997  81.6589992 115.8414990 105.7499997
  81.5600953 115.0893558 105.3249262  86.3439992 114.7074990 108.6969997
  86.7639992 114.2924990 109.4499997  85.4109992 114.5284990 108.8139997
  86.2753736 114.6264921 108.8158950  89.6699992 118.4624990 109.5509997
  89.1559992 118.3374990 110.3479997  89.5149992 119.3754990 109.3059997
  89.5786643 118.5687068 109.6270624  90.4329992 123.3234990  95.3119997
  90.4749992 123.1014990  94.3819997  91.2819992 123.7224990  95.5019997
  90.5535253 123.3470510  95.2103804  86.0059992 117.1994990  95.9819997
  85.7519992 117.2184990  96.9049997  85.7489992 116.3284990  95.6809997
  85.9365133 117.0843121  96.0675065  81.7719992 119.9504990 106.4179997
  81.1299992 119.9104990 107.1269997  81.8089992 120.8774990 106.1799997
  81.6891659 120.0702540 106.4828463  81.7689992 120.1714990 101.3299997
  80.8759992 119.8314990 101.2709997  82.2199992 119.7944990 100.5739997
  81.7077185 120.0740220 101.2197698  87.3049992 120.5874990 100.1469997
  86.8959992 121.4024990  99.8549997  88.0249992 120.4474990  99.5319997
  87.3463946 120.6799963 100.0239616  88.3089992 120.0334990 102.9609997
  88.1139992 120.6394990 102.2459997  88.4909992 119.2004990 102.5259997
  88.3069272 120.0037955 102.8044075  79.5219992 120.2714990 108.2849997
  79.4839992 120.6714990 109.1529997  79.0309992 119.4544990 108.3749997
  79.4504246 120.2158842 108.4161171  45.4219992  35.7844990  79.0199997
  45.5829992  36.5844990  78.5189997  45.2249992  36.0914990  79.9049997
  45.4173919  35.9354140  79.0710988  82.8879992 117.6454990  95.0829997
  82.4569992 117.2004990  95.8129997  82.1699992 118.0164990  94.5709997
  82.7319363 117.6347979  95.1136194  76.1299992 117.3874990 102.1349997
  76.7609992 117.3584990 102.8549997  76.5799992 116.9624990 101.4049997
  76.2770905 117.3260839 102.1347479  77.4039992 118.1334990  97.5589997
  77.8789992 118.7244990  96.9739997  76.6869992 118.6634990  97.9059997
  77.3720406 118.2861011  97.5258495  87.5729992 121.6714990 107.6319997
  87.8969992 121.0404990 106.9889997  87.1329992 121.1374990 108.2929997
  87.5578707 121.5128261 107.6333195  84.3509992 117.5994990 102.4159997
  83.4399992 117.6564990 102.7049997  84.8559992 117.5394990 103.2269997
  84.2946873 117.5991838 102.5651190  79.1789992 119.2284990 101.2429997
  78.2899992 119.3274990 100.9029997  79.4749992 118.3864990 100.8969997
  79.0974001 119.1282473 101.1497318  82.8319992 119.2284990  98.8989997
  83.7639992 119.3574990  99.0769997  82.6169992 119.8974990  98.2499997
  82.9304245 119.3366452  98.8355602  88.7559992 116.8344990 105.6799997
  88.0789992 116.9654990 106.3439997  88.2699992 116.6794990 104.8699997
  88.5977265 116.8314665 105.6613380  81.5059992 120.4224990  96.4659997
  80.9639992 120.0434990  95.7749997  82.3399992 120.6174990  96.0369997
  81.5444283 120.3969383  96.3134298  85.6709992 120.3864990 104.3029997
  86.2349992 119.8404990 103.7559997  85.5229992 119.8654990 105.0919997
  85.7283037 120.2411798 104.3347212  44.1559992  22.4824990  78.6359997
  44.0729992  23.3704990  78.9819997  45.0459992  22.2174990  78.8669997
  44.2649751  22.5682482  78.7146066  80.6729992 116.5234990 100.7209997
  80.3549992 115.6204990 100.6859997  81.4539992 116.5254990 100.1689997
  80.7351560 116.4001148 100.6414975  84.2969992 118.7754990 106.7169997
  83.4619992 119.2294990 106.8269997  84.8209992 119.0514990 107.4689997
  84.2535070 118.8749677 106.8337134  84.8409992 124.9884990  98.4019997
  84.0959992 124.4804990  98.0789997  84.7069992 125.0374990  99.3479997
  84.7208633 124.9255714  98.4857563  91.9909992 124.1214990 107.1879997
  92.6329992 124.5774990 106.6449997  91.1609992 124.2344990 106.7259997
  91.9667352 124.1993223 107.0510234  88.7389992 117.8024990  96.6009997
  87.7999992 117.9134990  96.4499997  89.0359992 118.6584990  96.9069997
  88.6506371 117.9335327  96.6217362  86.3609992 125.1724990 109.6389997
  86.0149992 124.7904990 110.4449997  86.1609992 126.1054990 109.7099997
  86.2865399 125.2463489 109.7590401  89.4569992 119.6694990  98.2619997
  90.3489992 119.5314990  98.5809997  89.5139992 120.4604990  97.7249997
  89.5867380 119.7574777  98.2330981  79.9659992 124.2834990 104.1709997
  80.7109992 124.2804990 103.5699997  80.0439992 123.4594990 104.6529997
  80.0784158 124.1717928 104.1539136  86.9669992 126.4464990  97.4269997
  86.6719992 127.2734990  97.8089997  86.2639992 125.8274990  97.6229997
  86.8315855 126.4759458  97.5057634  76.9739992 122.7434990 109.4859997
  77.1969992 122.3254990 110.3179997  76.3719992 122.1314990 109.0639997
  76.9230802 122.6035216 109.5427561  54.3549992  23.2314990  91.0299997
  53.4389992  23.4934990  90.9419997  54.6909992  23.2284990  90.1329997
  54.2749789  23.2669637  90.8967829  88.6109992 127.6344990 109.5889997
  87.7099992 127.8174990 109.3209997  88.6449992 127.8934990 110.5099997
  88.4923021 127.6945505 109.6768206  94.3419992 119.8784990  97.9559997
  93.7879992 119.4824990  97.2839997  94.4429992 120.7894990  97.6789997
  94.2797084 119.9473565  97.8264381  92.6369992 128.6644990  98.4209997
  92.2649992 127.8394990  98.7309997  92.9149992 128.4814990  97.5239997
  92.6235997 128.5266160  98.3421551  89.7979992 123.4724990 105.4429997
  88.8699992 123.2414990 105.4159997  90.2489992 122.6954990 105.1129997
  89.7318165 123.3357785 105.3946772  82.3409992 127.8014990 101.5759997
  82.8679992 128.5744990 101.3749997  81.4609992 128.0254990 101.2739997
  82.2941793 127.9376652 101.5076304  78.0959992 122.6634990  96.1629997
  78.7119992 123.2904990  96.5419997  77.2339992 122.9794990  96.4339997
  78.0638195 122.7920810  96.2515369  83.7679992 125.4644990 101.1519997
  83.5269992 126.3894990 101.1939997  83.0279992 125.0054990 101.5479997
  83.6348934 125.5290881 101.2113191  84.2829992 129.6134990 107.4669997
  84.6459992 130.4674990 107.2339997  84.8149992 129.3214990 108.2079997
  84.4045141 129.6908907 107.5352079  82.4509992 130.4854990 100.6969997
  81.5019992 130.5914990 100.7489997  82.8029992 131.3064990 101.0419997
  82.3686214 130.6109361 100.7507317  87.8269992 125.7124990 107.1679997
  87.4009992 125.4844990 107.9939997  88.4079992 124.9734990 106.9849997
  87.8471587 125.5814084 107.2564111  52.9569992  26.9814990  85.1259997
  52.1599992  26.5664990  84.7969997  53.4019992  26.2914990  85.6169997
  52.9080317  26.8313197  85.1473556  90.0299992 126.6414990  96.2419997
  90.3829992 126.2614990  97.0459997  89.0809992 126.5474990  96.3279997
  89.9500985 126.5767330  96.3637738  90.4859992 130.2644990 109.6369997
  89.8839992 129.7084990 109.1419997  90.7669992 130.9314990 109.0109997
  90.4415757 130.2785755 109.4845657  94.5329992 131.1204990  96.4429997
  95.2769992 131.7064990  96.3029997  93.8389992 131.6894990  96.7759997
  94.5409809 131.2775830  96.4688572  78.6079992 117.4974990 109.0439997
  77.7149992 117.8354990 108.9769997  78.5089992 116.6414990 109.4619997
  78.4725241 117.4280941 109.0912982  90.8959992 125.3134990  98.4679997
  90.6189992 124.5854990  99.0239997  91.8229992 125.4324990  98.6739997
  90.9834181 125.2300068  98.5718972  78.2589992 129.3014990 107.4789997
  78.4759992 128.3694990 107.4479997  78.5059992 129.5764990 108.3629997
  78.3220543 129.2110877 107.5941412  84.1209992 127.7534990  94.6889997
  84.3599992 127.0044990  94.1409997  83.8519992 127.3654990  95.5209997
  84.1172804 127.5986524  94.7266352  83.0579992 127.3234990  97.1449997
  83.2049992 126.8034990  97.9349997  83.0549992 128.2304990  97.4509997
  83.0777300 127.3748975  97.2945877  79.5109992 124.5754990  97.6549997
  78.8249992 124.9284990  98.2219997  80.0339992 125.3384990  97.4089997
  79.4879033 124.7268757  97.6992644  87.3419992 117.2384990 107.9339997
  88.0409992 117.3124990 108.5839997  86.9619992 116.3734990 108.0889997
  87.3862095 117.1317402 108.0437982  42.4149992  32.9094990  77.6959997
  43.0069992  33.6094990  77.9719997  42.8739992  32.4764990  76.9769997
  42.5581172  32.9467370  77.6365163  88.1269992 116.8904990  99.0309997
  88.3469992 117.3614990  98.2279997  88.6849992 117.2844990  99.7019997
  88.2325851 117.0083272  99.0116134  85.7959992 129.0204990  97.8939997
  84.9789992 129.5174990  97.9469997  86.3249992 129.4964990  97.2539997
  85.7557898 129.1528123  97.8147274  85.3269992 118.6184990  99.8659997
  86.1389992 119.1224990  99.9119997  85.0819992 118.4734990 100.7799997
  85.4051091 118.6679366  99.9958552  85.8629992 119.6044990 109.0509997
  85.9819992 120.1784990 109.8079997  86.5179992 118.9164990 109.1659997
  85.9678684 119.5900205 109.1701656  86.2109992 115.6994990 100.8039997
  85.8639992 116.3164990 101.4489997  86.8689992 116.2004990 100.3229997
  86.2525290 115.8516384 100.8271635  83.1339992 130.0644990  97.8759997
  83.2949992 130.8644990  97.3749997  82.9369992 130.3714990  98.7609997
  83.1293919 130.2154140  97.9270988  81.8679992 116.7624990  97.4919997
  81.7849992 117.6504990  97.8379997  82.7579992 116.4974990  97.7229997
  81.9769751 116.8482482  97.5706066  92.0669992 117.5114990 109.8859997
  91.1509992 117.7734990 109.7979997  92.4029992 117.5084990 108.9889997
  91.9869789 117.5469637 109.7527829  90.6689992 121.2614990 103.9819997
  89.8719992 120.8464990 103.6529997  91.1139992 120.5714990 104.4729997
  90.6200317 121.1113197 104.0033556  80.1269992 127.1894990  96.5519997
  80.7189992 127.8894990  96.8279997  80.5859992 126.7564990  95.8329997
  80.2701172 127.2267371  96.4925163  54.0439992  36.2374990  86.7479997
  53.8879992  36.9164990  86.0909997  54.9759992  36.3094990  86.9509997
  54.1487328  36.3401586  86.6855529  78.4429992 119.8544990  95.6679997
  78.3979992 120.7934990  95.8469997  77.5549992 119.6184990  95.3979997
  78.3168472 119.9511946  95.6560282  91.7559992 130.5174990 105.6039997
  91.5999992 131.1964990 104.9469997  92.6879992 130.5894990 105.8069997
  91.8607328 130.6201586 105.5415529  79.2509992 114.6354990 104.3409997
  79.0219992 114.6944990 103.4139997  78.8079992 113.8444990 104.6479997
  79.1597387 114.5366412 104.2555223  78.1809992 128.5764990 100.5019997
  77.3489992 129.0484990 100.5289997  78.7269992 129.0864990  99.9029997
  78.1408710 128.7100317 100.4247570  86.1589992 129.6164990  94.8269997
  85.5149992 128.9854990  95.1489997  86.9209992 129.0854990  94.5949997
  86.1738260 129.4583035  94.8397298  90.7629992 129.4334990  95.0609997
  91.0459992 128.6384990  95.5139997  91.5029992 129.6664990  94.4999997
  90.9017295 129.3562349  95.0471469  81.7179992 125.3424990  94.9179997
  81.7819992 124.5484990  95.4489997  82.3709992 125.2244990  94.2289997
  81.8151168 125.2177747  94.8975118  87.0699992 126.3894990  94.6539997
  86.8019992 126.5704990  95.5549997  86.8639992 125.4644990  94.5229997
  87.0054251 126.2891528  94.7596809  89.7669992 124.8844990 109.6019997
  90.5119992 125.4734990 109.4819997  89.0089992 125.4664990 109.6649997
  89.7665185 125.0437000 109.5940940  82.8669992 123.3154990  97.2239997
  82.4079992 122.8314990  97.9099997  83.1219992 122.6464990  96.5879997
  82.8386178 123.1588511  97.2319785  41.5389992  20.3554990  85.4849997
  41.3099992  20.4144990  84.5579997  41.0959992  19.5644990  85.7919997
  41.4477387  20.2566412  85.3995223  82.1559992 121.2084990 109.5799997
  81.5379992 121.8824990 109.8609997  82.4999992 121.5294990 108.7469997
  82.1178181 121.3443233 109.5058266  83.9379992 121.5584990  95.4869997
  83.7579992 121.4034990  94.5589997  84.8879992 121.6664990  95.5309997
  84.0418016 121.5519264  95.3662123  93.3279992 123.9124990  94.9319997
  93.0549992 123.4884990  94.1189997  93.3679992 124.8444990  94.7149997
  93.2960201 123.9803523  94.7913548  82.9079992 116.9324990 108.1549997
  83.4439992 117.3844990 107.5029997  82.0559992 116.8244990 107.7329997
  82.8661648 116.9797883 108.0086395  84.4899992 122.3724990 108.3949997
  85.2409992 122.2164990 107.8219997  84.1509992 123.2244990 108.1189997
  84.5469052 122.4662745 108.2793469  83.7139992 114.3894990 108.5869997
  83.6159992 115.3354990 108.4809997  82.9709992 114.0164990 108.1109997
  83.6002363 114.4685987 108.5082029  83.8359992 132.2484990  96.4879997
  84.7689992 132.4064990  96.6319997  83.5709992 132.9244990  95.8629997
  83.9279846 132.3614567  96.4232930  77.4039992 126.8854990  95.9709997
  78.3179992 126.9644990  96.2439997  77.4109992 126.1984990  95.3039997
  77.5300769 126.8034735  95.9182366  76.0529992 132.2784990 101.0479997
  75.4059992 131.8164990 100.5149997  76.4079992 131.6064990 101.6309997
  76.0123861 132.1244707 101.0537939  76.9229992 130.3584990 102.8529997
  76.5889992 129.4784990 103.0249997  77.1449992 130.7044990 103.7169997
  76.9072677 130.2847366 102.9934252  40.4689992  34.2964990  81.6459997
  39.6369992  34.7684990  81.6729997  41.0149992  34.8064990  81.0469997
  40.4288710  34.4300317  81.5687570  94.4719992 131.1684990 105.8329997
  94.4499992 131.3534990 106.7719997  95.1619992 131.7364990 105.4919997
  94.5623439 131.2706898 105.9154774  94.0349992 130.7354990 108.7549997
  93.5479992 129.9994990 108.3839997  94.5839992 130.3414990 109.4329997
  94.0426101 130.5816267 108.7959034  93.7869992 124.7814990  98.9069997
  94.6369992 125.2024990  99.0349997  93.7919992 124.0414990  99.5149997
  93.9039745 124.7391347  99.0066479  94.1809992 122.8354990 100.7309997
  93.4549992 122.3554990 101.1289997  94.7619992 123.0404990 101.4629997
  94.1602504 122.7975592 100.8844199  93.9399992 125.6204990 105.6789997
  94.7739992 125.2424990 105.3979997  94.0519992 126.5634990 105.5599997
  94.0691917 125.6962954 105.6244844  92.4259992 128.4984990 107.9859997
  91.7789992 128.8234990 108.6109997  91.9089992 128.0574990 107.3109997
  92.2674068 128.4834726 107.9804918  94.4489992 122.7364990  97.1219997
  93.9279992 123.0924990  96.4029997  94.4159992 123.4114990  97.7999997
  94.3731525 122.8765273  97.1151408  92.7979992 119.9754990  95.6729997
  92.8949992 120.6424990  94.9929997  92.6579992 119.1604990  95.1909997
  92.7923428 119.9565667  95.5148311  91.9679992 121.3564990 101.2939997
  91.8179992 120.4114990 101.2739997  91.6139992 121.6374990 102.1379997
  91.8996351 121.2651656 101.4053202  77.0029992 123.4344990 105.3039997
  77.1869992 123.3524990 104.3689997  77.8519992 123.3104990 105.7279997
  77.1430259 123.4064915 105.2331771  39.7579992  36.9084990  92.9759997
  40.2979992  36.6924990  93.7349997  39.2759992  36.1034990  92.7859997
  39.7669101  36.7700216  93.0544364  92.0459992 117.3834990  94.7899997
  92.6559992 117.0124990  95.4269997  91.2089992 116.9624990  94.9859997
  92.0163704 117.2757942  94.9037077  91.6779992 118.9384990  99.7559997
  91.9579992 118.0314990  99.8809997  92.4369992 119.3724990  99.3669997
  91.8189471 118.8730654  99.7205052  92.2899992 119.5204990 105.1919997
  93.2229992 119.7324990 105.1579997  92.0549992 119.6214990 106.1149997
  92.3858357 119.5631303 105.3120232  92.3189992 120.2574990 107.9679997
  91.4759992 120.5254990 108.3339997  92.7619992 121.0794990 107.7569997
  92.2634358 120.4053294 107.9895999  92.2919992 116.2014990  99.8049997
  92.4739992 115.7524990 100.6299997  91.6919992 115.6174990  99.3409997
  92.2358187 116.0610563  99.8552721  77.8219992 117.0174990 104.3359997
  78.2669992 116.2254990 104.6379997  78.2879992 117.7334990 104.7669997
  77.9459059 117.0059485 104.4356061  76.1259992 120.0164990 105.4049997
  76.6179992 119.7954990 104.6149997  76.4879992 120.8564990 105.6859997
  76.2423428 120.0998220 105.3347918  94.1579992 116.2694990  96.3329997
  94.5709992 115.5484990  95.8569997  94.8399992 116.9384990  96.3909997
  94.3065712 116.2614304  96.2758247  76.4389992 116.2744990  99.4599997
  75.5139992 116.4824990  99.3299997  76.8929992 116.7584990  98.7699997
  76.3737401 116.3683895  99.3489433  91.2099992 131.2584990 101.4049997
  91.8619992 130.9104990 100.7969997  91.7209992 131.7464990 102.0509997
  91.3682872 131.2768248 101.4090964  44.3549992  35.8284990  94.5959997
  45.1229992  35.3694990  94.9369997  44.3339992  35.6024990  93.6659997
  44.4572135  35.7351680  94.5169473  76.4029992 115.0124990 107.8039997
  75.7379992 114.7664990 108.4469997  75.9599992 115.6344990 107.2269997
  76.2521168 115.0629225 107.8139830  81.5489992 129.1614990 108.2069997
  81.1239992 129.9714990 107.9239997  82.4529992 129.2474990 107.9049997
  81.6131002 129.2838728 108.1274798  93.1229992 114.4364990 109.4899997
  92.3099992 114.7614990 109.1019997  93.3559992 113.6754990 108.9569997
  93.0432566 114.3781570 109.3649196  78.9509992 132.4184990 108.2539997
  78.2299992 132.8584990 107.8029997  78.5849992 132.1674990 109.1029997
  78.8029785 132.4447691 108.3069849  81.4179992 132.0184990 107.2839997
  80.5529992 132.0904990 107.6879997  81.3629992 132.5654990 106.4999997
  81.2922066 132.1022678 107.2333371  86.1289992 131.9064990 106.4599997
  85.6719992 132.4354990 105.8059997  86.2909992 132.5094990 107.1849997
  86.0883919 132.0603990 106.4685740  88.4559992 130.7844990 107.4049997
  87.5519992 130.9494990 107.1389997  88.8849992 131.6374990 107.3389997
  88.3902017 130.9224184 107.3596495  91.0599992 132.3544990 107.6999997
  90.8789992 133.2704990 107.4889997  91.2369992 131.9434990 106.8529997
  91.0591377 132.4243365 107.5567178  78.3659992 131.0414990 105.1649997
  78.3469992 130.6154990 106.0219997  79.1699992 130.7224990 104.7559997
  78.4721393 130.9400297 105.2270155  80.5069992 129.7514990 103.8199997
  80.2879992 128.8344990 103.9889997  81.3309992 129.8914990 104.2859997
  80.5884637 129.6449586 103.9061414  48.4469992  35.3364990  75.9709997
  47.8029992  34.7054990  76.2929997  49.2089992  34.8054990  75.7389997
  48.4618260  35.1783035  75.9837298  83.0439992 130.2214990 104.6679997
  83.2569992 129.3334990 104.3809997  83.1089992 130.1864990 105.6229997
  83.0819075 130.0953318 104.7577355  86.5529992 115.8854990 103.8129997
  85.8779992 115.2554990 104.0679997  87.1169992 115.4014990 103.2099997
  86.5369558 115.7339283 103.7663451  91.6949992 113.9924990 103.9249997
  92.2989992 114.5404990 103.4239997  90.8259992 114.3114990 103.6849997
  91.6601126 114.1107070 103.8239180  93.4219992 115.1314990 102.2589997
  94.0339992 114.6174990 101.7319997  93.8049992 116.0084990 102.2819997
  93.5573867 115.1797613 102.1900888  78.8789992 114.5194990 101.6349997
  78.1019992 114.2844990 101.1269997  79.4099992 113.7224990 101.6439997
  78.8444443 114.3796721 101.5667200  77.7159992 114.3174990  97.4379997
  78.1549992 114.9284990  96.8469997  77.0819992 114.8554990  97.9119997
  77.6904103 114.4739233  97.4211376  83.4589992 114.4454990 101.4479997
  84.3329992 114.8344990 101.4179997  83.3229992 114.2304990 102.3709997
  83.5603125 114.4697120 101.5686523  89.0149992 114.4754990 103.0969997
  89.0919992 114.5714990 102.1479997  88.7399992 113.5684990 103.2259997
  88.9883407 114.3659188 102.9843532  90.3689992 114.5014990  98.7899997
  89.6659992 115.1164990  98.5799997  89.9239992 113.6644990  98.9209997
  90.2126550 114.4724679  98.7789819  77.6169992 130.2654990  98.3359997
  76.9319992 130.2274990  97.6679997  77.6199992 131.1774990  98.6239997
  77.5237358 130.3836744  98.2836145  50.9319992  34.2084990  93.3249997
  50.5809992  33.3514990  93.5679997  51.6579992  34.3504990  93.9319997
  50.9821590  34.1105189  93.4402889  79.5769992 116.2334990  95.8809997
  80.0679992 115.6034990  95.3529997  80.1999992 116.5294990  96.5439997
  79.7285459 116.1872419  95.8983667  84.6029992 116.5264990  98.3379997
  84.7809992 115.8794990  99.0209997  84.5489992 117.3604990  98.8049997
  84.6200678 116.5506615  98.4946283  86.4809992 131.4744990  96.7329997
  87.3469992 131.8414990  96.5549997  86.2339992 131.0354990  95.9199997
  86.5662041 131.4653648  96.5985958  93.1899992 131.0374990  99.4129997
  92.9959992 130.2894990  98.8479997  93.1509992 131.7954990  98.8289997
  93.1581907 131.0375770  99.2568077  79.4349992 131.1854990  95.3609997
  79.1669992 131.4714990  96.2339997  80.2059992 130.6394990  95.5129997
  79.5025600 131.1508341  95.5011482 106.8139992 123.6754990 101.5929997
 106.9029992 124.6194990 101.4609997 106.1749992 123.4004990 100.9349997
 106.7398319 123.7674984 101.4860276 105.7469992 122.9304990 105.0119997
 105.7079992 122.2844990 105.7169997 105.4239992 122.4634990 104.2409997
 105.6980199 122.7790089 105.0042865  98.1149992 122.5444990 106.6049997
  98.1559992 121.9194990 107.3289997  98.8179992 123.1684990 106.7869997
  98.2156054 122.5433262 106.7286311 109.4529992 125.8694990 103.3139997
 109.0119992 125.1494990 103.7639997 109.4399992 126.5904990 103.9439997
 109.3908398 125.8683187 103.4607734  99.0389992 126.9944990 105.1399997
  98.6689992 126.1924990 104.7709997  99.9799992 126.8264990 105.1869997
  99.1155630 126.8618680 105.0957873  39.6649992  30.7194990  93.9299997
  39.8089992  29.8174990  93.6439997  38.8919992  31.0054990  93.4419997
  39.5802854  30.6346876  93.8249363  95.6489992 120.6544990 100.5329997
  95.2009992 121.5004990 100.5149997  95.0879992 120.0754990 100.0179997
  95.5118546 120.6919004 100.4608874  96.3589992 122.8164990 102.6589997
  96.5729992 122.0464990 103.1859997  97.0969992 122.9064990 102.0559997
  96.4880073 122.7233546 102.6495786 106.5639992 130.9734990 103.5259997
 107.1839992 130.2974990 103.2529997 106.3559992 130.7554990 104.4339997
 106.6207360 130.8514792 103.6114387 104.1359992 125.3624990 105.4179997
 104.4399992 124.6764990 104.8239997 104.8579992 125.4814990 106.0359997
 104.2751152 125.2847201 105.4202106 112.7989992 116.9644990 106.2789997
 112.8479992 117.5744990 107.0149997 113.2249992 117.4254990 105.5559997
 112.8632851 117.1103266 106.2820532 107.2769992 119.7564990 105.7459997
 107.4189992 118.8104990 105.7659997 107.1709992 119.9634990 104.8169997
 107.2821158 119.6549722 105.6232241 100.4319992 117.8584990 103.0179997
 100.4749992 118.7184990 102.5999997  99.9739992 117.3054990 102.3849997
 100.3759613 117.9015689 102.8751276 108.1539992 117.9894990 101.4189997
 108.7999992 117.6604990 102.0439997 108.6639992 118.5064990 100.7959997
 108.3114392 118.0143710 101.4203248  97.0519992 120.2554990 103.7799997
  97.7059992 119.7054990 104.2119997  97.0759992 119.9814990 102.8639997
  97.1447022 120.1432005 103.7151698 102.2079992 121.8054990 102.9959997
 102.8239992 121.2784990 103.5049997 101.6219992 121.1654990 102.5919997
 102.2130652 121.6468919 103.0110277  44.0059992  31.0624990  76.0619997
  44.0699992  30.2684990  76.5929997  44.6589992  30.9444990  75.3729997
  44.1031168  30.9377747  76.0415119 113.1909992 118.4424990 108.5149997
 112.5019992 119.1004990 108.4199997 113.2059992 118.2444990 109.4519997
 113.0987756 118.5057614 108.6285795  99.2419992 116.7764990 107.0919997
  99.0229992 117.3064990 106.3259997  98.5739992 117.0024990 107.7399997
  99.1217271 116.8796508 107.0746206 106.6109992 126.2764990 100.6359997
 106.3149992 125.9534990  99.7849997 106.2869992 127.1764990 100.6779997
 106.5266501 126.3539058 100.5250893 101.8109992 124.4514990 107.3799997
 101.0709992 125.0504990 107.4829997 102.5249992 125.0054990 107.0639997
 101.8063288 124.6082368 107.3513787 109.9179992 117.2804990 103.3999997
 109.7029992 116.5144990 103.9319997 110.5739992 117.7524990 103.9129997
 109.9772451 117.2394472 103.5421699  98.8359992 118.6684990 105.0449997
  99.4489992 119.3014990 105.4179997  99.3479992 118.1964990 104.3879997
  98.9891680 118.6914006 105.0072830 100.2179992 126.4164990 108.1669997
 100.2129992 127.2954990 107.7889997  99.3649992 126.3324990 108.5919997
 100.1019199 126.5255901 108.1726942  96.3399992 126.0874990  98.9489997
  96.0679992 126.3164990  98.0599997  96.3849992 126.9244990  99.4089997
  96.3088709 126.2321069  98.8896089 109.9649992 127.7084990 105.6619997
 109.0229992 127.7674990 105.8229997 110.2409992 128.6144990 105.5249997
 109.8735771 127.8390270 105.6654827 110.2649992 115.9954990 107.0789997
 109.5289992 116.6054990 107.0409997 110.9489992 116.4104990 106.5529997
 110.2565885 116.1351924 107.0026931  46.3199992  30.6884990  93.3629997
  45.9919992  30.9594990  92.5049997  46.4719992  29.7474990  93.2749997
  46.2956970  30.5983694  93.2337953 103.2679992 114.0814990 104.5449997
 103.1509992 113.1334990 104.4909997 102.4129992 114.4144990 104.8179997
 103.1363691 113.9965842 104.5745072 108.2169992 129.4894990 102.2869997
 108.6419992 128.7824990 101.8019997 108.5339992 130.2914990 101.8699997
 108.3180266 129.5010201 102.1642461 109.3759992 127.3904990 100.7959997
 109.1189992 126.7004990 100.1839997 109.4469992 126.9474990 101.6409997
 109.3504322 127.2361568 100.8265372 111.0619992 125.9574990 109.2729997
 111.2019992 125.3654990 108.5339997 111.2299992 126.8304990 108.9169997
 111.1038734 125.9944041 109.1236937 105.5349992 122.9194990  99.0449997
 104.8229992 123.4544990  98.6939997 106.2259992 122.9744990  98.3849997
 105.5308696 123.0002591  98.9076372 105.5889992 121.3764990  96.0839997
 106.2899992 121.3994990  96.7349997 105.8909992 120.7484990  95.4279997
 105.7258282 121.2947350  96.0844478 112.9039992 122.2974990 107.3389997
 112.2519992 122.9914990 107.4279997 113.3689992 122.5074990 106.5289997
 112.8775357 122.4209544 107.2417056 108.9409992 123.1284990  99.9969997
 108.2089992 123.3574990 100.5699997 109.3879992 122.4154990 100.4519997
 108.9012753 123.0633984 100.1369698 108.8379992 121.3034990 109.0649997
 108.9179992 122.0664990 109.6369997 108.2369992 121.5824990 108.3739997
 108.7677115 121.4457707 109.0499631 100.5859992 123.7594990 101.8799997
 100.2559992 123.3884990 101.0609997 101.1739992 123.0884990 102.2259997
 100.6204056 123.6181257 101.8149035  52.0549992  30.6044990  90.7459997
  52.7999992  31.1934990  90.6259997  51.2969992  31.1864990  90.8089997
  52.0545185  30.7637000  90.7380940 101.9529992 127.1874990 104.5609997
 101.8579992 126.6084990 103.8039997 102.6819992 126.8164990 105.0569997
 102.0386161 127.0580902 104.5245192 100.9529992 122.5274990 105.5129997
 101.5179992 122.6494990 104.7499997 101.2709992 123.1654990 106.1519997
 101.0733430 122.6304448 105.4949094 107.2619992 128.0314990 106.2469997
 107.0209992 128.6934990 106.8949997 107.0639992 127.1964990 106.6719997
 107.2022662 128.0092704 106.3931008 107.8119992 122.2914990  97.6819997
 108.3909992 122.4414990  98.4289997 108.2259992 122.7614990  96.9589997
 107.9473122 122.3756288  97.6865024  98.7529992 123.1254990 109.4589997
  98.8229992 123.7764990 110.1569997  97.8619992 123.2284990 109.1239997
  98.6421802 123.2284769 109.5092231 105.5379992 129.0274990 101.1179997
 106.0119992 129.3234990 101.8949997 104.9749992 129.7664990 100.8839997
 105.5268460 129.1678336 101.1927626 111.5099992 114.0414990  97.4949997
 110.6099992 114.1794990  97.7899997 111.7619992 114.8724990  97.0929997
 111.4207355 114.1728200  97.4810539  99.5759992 122.8284990  99.4689997
  99.2839992 123.5964990  98.9779997  98.9019992 122.1694990  99.3059997
  99.4448843 122.8444537  99.3797695 112.6999992 128.4074990  95.8719997
 112.7729992 129.3464990  96.0419997 113.6049992 128.1024990  95.8149997
 112.8324168 128.4948531  95.8875736  95.6689992 125.1914990 108.2839997
  95.1679992 125.1634990 107.4689997  95.6749992 124.2864990 108.5939997
  95.6011690 125.0652234 108.2142770  40.4969992  27.9194990  93.3499997
  40.9049992  27.0624990  93.2289997  40.2369992  27.9334990  94.2709997
  40.5177082  27.8040596  93.4579469  95.4199992 127.9724990 105.1679997
  96.3659992 127.8274990 105.1489997  95.3069992 128.7564990 105.7049997
  95.5343578 128.0586708 105.2380300 104.5959992 128.2124990 109.7259997
 104.6829992 129.0384990 110.2009997 103.7319992 127.8824990 109.9749997
 104.4911944 128.2809871 109.8246558 105.0099992 131.9844990  99.5319997
 104.9349992 131.8634990  98.5859997 105.0429992 132.9334990  99.6509997
 105.0041862 132.0962492  99.4184840  98.6639992 130.7734990 101.3129997
  98.8159992 130.4254990 102.1919997  97.8129992 130.4164990 101.0579997
  98.5697899 130.6776749 101.3987322 108.1119992 131.1384990  96.5349997
 108.4869992 130.3944990  96.0639997 108.1159992 130.8684990  97.4529997
 108.1638969 131.0000920  96.5946475 107.7809992 131.0644990  99.2839997
 106.8459992 131.1644990  99.4629997 108.0609992 130.3544990  99.8619997
 107.6909270 130.9822300  99.3865984  97.9179992 126.5154990 109.3269997
  98.1339992 126.1534990 110.1869997  97.0629992 126.1404990 109.1169997
  97.8319349 126.4152914 109.4162134 100.5369992 114.9854990 105.3229997
  99.6749992 114.8984990 104.9149997 100.5149992 115.8414990 105.7499997
 100.4160953 115.0893558 105.3249262 105.1999992 114.7074990 108.6969997
 105.6199992 114.2924990 109.4499997 104.2669992 114.5284990 108.8139997
 105.1313736 114.6264921 108.8158950 108.5259992 118.4624990 109.5509997
 108.0119992 118.3374990 110.3479997 108.3709992 119.3754990 109.3059997
 108.4346643 118.5687068 109.6270624  45.1549992  29.0354990  78.3679997
  44.6959992  28.5514990  79.0539997  45.4099992  28.3664990  77.7319997
  45.1266178  28.8788511  78.3759785 109.2889992 123.3234990  95.3119997
 109.3309992 123.1014990  94.3819997 110.1379992 123.7224990  95.5019997
 109.4095253 123.3470510  95.2103804 104.8619992 117.1994990  95.9819997
 104.6079992 117.2184990  96.9049997 104.6049992 116.3284990  95.6809997
 104.7925133 117.0843121  96.0675065 100.6279992 119.9504990 106.4179997
  99.9859992 119.9104990 107.1269997 100.6649992 120.8774990 106.1799997
 100.5451659 120.0702540 106.4828463 100.6249992 120.1714990 101.3299997
  99.7319992 119.8314990 101.2709997 101.0759992 119.7944990 100.5739997
 100.5637185 120.0740220 101.2197698 106.1609992 120.5874990 100.1469997
 105.7519992 121.4024990  99.8549997 106.8809992 120.4474990  99.5319997
 106.2023946 120.6799963 100.0239616 107.1649992 120.0334990 102.9609997
 106.9699992 120.6394990 102.2459997 107.3469992 119.2004990 102.5259997
 107.1629272 120.0037955 102.8044075  98.3779992 120.2714990 108.2849997
  98.3399992 120.6714990 109.1529997  97.8869992 119.4544990 108.3749997
  98.3064246 120.2158842 108.4161171 101.7439992 117.6454990  95.0829997
 101.3129992 117.2004990  95.8129997 101.0259992 118.0164990  94.5709997
 101.5879363 117.6347979  95.1136194  94.9859992 117.3874990 102.1349997
  95.6169992 117.3584990 102.8549997  95.4359992 116.9624990 101.4049997
  95.1330905 117.3260839 102.1347479  96.2599992 118.1334990  97.5589997
  96.7349992 118.7244990  96.9739997  95.5429992 118.6634990  97.9059997
  96.2280406 118.2861011  97.5258495  44.4439992  26.9284990  90.7239997
  43.8259992  27.6024990  91.0049997  44.7879992  27.2494990  89.8909997
  44.4058181  27.0643233  90.6498266 106.4289992 121.6714990 107.6319997
 106.7529992 121.0404990 106.9889997 105.9889992 121.1374990 108.2929997
 106.4138707 121.5128261 107.6333195 103.2069992 117.5994990 102.4159997
 102.2959992 117.6564990 102.7049997 103.7119992 117.5394990 103.2269997
 103.1506873 117.5991838 102.5651190  98.0349992 119.2284990 101.2429997
  97.1459992 119.3274990 100.9029997  98.3309992 118.3864990 100.8969997
  97.9534001 119.1282473 101.1497318 101.6879992 119.2284990  98.8989997
 102.6199992 119.3574990  99.0769997 101.4729992 119.8974990  98.2499997
 101.7864245 119.3366452  98.8355602 107.6119992 116.8344990 105.6799997
 106.9349992 116.9654990 106.3439997 107.1259992 116.6794990 104.8699997
 107.4537265 116.8314665 105.6613380 100.3619992 120.4224990  96.4659997
  99.8199992 120.0434990  95.7749997 101.1959992 120.6174990  96.0369997
 100.4004283 120.3969383  96.3134298 104.5269992 120.3864990 104.3029997
 105.0909992 119.8404990 103.7559997 104.3789992 119.8654990 105.0919997
 104.5843037 120.2411798 104.3347212  99.5289992 116.5234990 100.7209997
  99.2109992 115.6204990 100.6859997 100.3099992 116.5254990 100.1689997
  99.5911560 116.4001148 100.6414975 103.1529992 118.7754990 106.7169997
 102.3179992 119.2294990 106.8269997 103.6769992 119.0514990 107.4689997
 103.1095070 118.8749677 106.8337134 103.6969992 124.9884990  98.4019997
 102.9519992 124.4804990  98.0789997 103.5629992 125.0374990  99.3479997
 103.5768633 124.9255714  98.4857563  46.2259992  27.2784990  76.6309997
  46.0459992  27.1234990  75.7029997  47.1759992  27.3864990  76.6749997
  46.3298016  27.2719264  76.5102123 110.8469992 124.1214990 107.1879997
 111.4889992 124.5774990 106.6449997 110.0169992 124.2344990 106.7259997
 110.8227352 124.1993223 107.0510234 107.5949992 117.8024990  96.6009997
 106.6559992 117.9134990  96.4499997 107.8919992 118.6584990  96.9069997
 107.5066371 117.9335327  96.6217362 105.2169992 125.1724990 109.6389997
 104.8709992 124.7904990 110.4449997 105.0169992 126.1054990 109.7099997
 105.1425400 125.2463489 109.7590401 108.3129992 119.6694990  98.2619997
 109.2049992 119.5314990  98.5809997 108.3699992 120.4604990  97.7249997
 108.4427380 119.7574777  98.2330981  98.8219992 124.2834990 104.1709997
  99.5669992 124.2804990 103.5699997  98.8999992 123.4594990 104.6529997
  98.9344159 124.1717928 104.1539136 105.8229992 126.4464990  97.4269997
 105.5279992 127.2734990  97.8089997 105.1199992 125.8274990  97.6229997
 105.6875855 126.4759458  97.5057634  95.8299992 122.7434990 109.4859997
  96.0529992 122.3254990 110.3179997  95.2279992 122.1314990 109.0639997
  95.7790802 122.6035216 109.5427561 107.4669992 127.6344990 109.5889997
 106.5659992 127.8174990 109.3209997 107.5009992 127.8934990 110.5099997
 107.3483021 127.6945505 109.6768206 113.1979992 119.8784990  97.9559997
 112.6439992 119.4824990  97.2839997 113.2989992 120.7894990  97.6789997
 113.1357084 119.9473565  97.8264381 111.4929992 128.6644990  98.4209997
 111.1209992 127.8394990  98.7309997 111.7709992 128.4814990  97.5239997
 111.4795997 128.5266160  98.3421551  49.4639992  29.3994990  94.0019997
  50.4169992  29.4834990  93.9739997  49.3039992  28.6874990  94.6209997
  49.5728161  29.3147198  94.0818689 108.6539992 123.4724990 105.4429997
 107.7259992 123.2414990 105.4159997 109.1049992 122.6954990 105.1129997
 108.5878165 123.3357785 105.3946772 101.1969992 127.8014990 101.5759997
 101.7239992 128.5744990 101.3749997 100.3169992 128.0254990 101.2739997
 101.1501793 127.9376652 101.5076304  96.9519992 122.6634990  96.1629997
  97.5679992 123.2904990  96.5419997  96.0899992 122.9794990  96.4339997
  96.9198195 122.7920810  96.2515369 102.6239992 125.4644990 101.1519997
 102.3829992 126.3894990 101.1939997 101.8839992 125.0054990 101.5479997
 102.4908934 125.5290881 101.2113191 103.1389992 129.6134990 107.4669997
 103.5019992 130.4674990 107.2339997 103.6709992 129.3214990 108.2079997
 103.2605141 129.6908907 107.5352079 101.3069992 130.4854990 100.6969997
 100.3579992 130.5914990 100.7489997 101.6589992 131.3064990 101.0419997
 101.2246214 130.6109361 100.7507317 106.6829992 125.7124990 107.1679997
 106.2569992 125.4844990 107.9939997 107.2639992 124.9734990 106.9849997
 106.7031587 125.5814084 107.2564111 108.8859992 126.6414990  96.2419997
 109.2389992 126.2614990  97.0459997 107.9369992 126.5474990  96.3279997
 108.8060985 126.5767330  96.3637738 109.3419992 130.2644990 109.6369997
 108.7399992 129.7084990 109.1419997 109.6229992 130.9314990 109.0109997
 109.2975757 130.2785755 109.4845657 113.3889992 131.1204990  96.4429997
 114.1329992 131.7064990  96.3029997 112.6949992 131.6894990  96.7759997
 113.3969809 131.2775830  96.4688572  44.7839992  24.2834990  91.8069997
  44.9339992  23.5544990  91.2039997  44.7859992  25.0604990  91.2479997
  44.8047664  24.2888971  91.6490525  97.4639992 117.4974990 109.0439997
  96.5709992 117.8354990 108.9769997  97.3649992 116.6414990 109.4619997
  97.3285241 117.4280941 109.0912982 109.7519992 125.3134990  98.4679997
 109.4749992 124.5854990  99.0239997 110.6789992 125.4324990  98.6739997
 109.8394181 125.2300068  98.5718972  97.1149992 129.3014990 107.4789997
  97.3319992 128.3694990 107.4479997  97.3619992 129.5764990 108.3629997
  97.1780543 129.2110877 107.5941412 102.9769992 127.7534990  94.6889997
 103.2159992 127.0044990  94.1409997 102.7079992 127.3654990  95.5209997
 102.9732804 127.5986524  94.7266352 101.9139992 127.3234990  97.1449997
 102.0609992 126.8034990  97.9349997 101.9109992 128.2304990  97.4509997
 101.9337300 127.3748975  97.2945877  98.3669992 124.5754990  97.6549997
  97.6809992 124.9284990  98.2219997  98.8899992 125.3384990  97.4089997
  98.3439033 124.7268757  97.6992644 106.1979992 117.2384990 107.9339997
 106.8969992 117.3124990 108.5839997 105.8179992 116.3734990 108.0889997
 106.2422095 117.1317402 108.0437982 106.9829992 116.8904990  99.0309997
 107.2029992 117.3614990  98.2279997 107.5409992 117.2844990  99.7019997
 107.0885851 117.0083272  99.0116134 104.6519992 129.0204990  97.8939997
 103.8349992 129.5174990  97.9469997 105.1809992 129.4964990  97.2539997
 104.6117898 129.1528123  97.8147274 104.1829992 118.6184990  99.8659997
 104.9949992 119.1224990  99.9119997 103.9379992 118.4734990 100.7799997
 104.2611091 118.6679366  99.9958552  45.1959992  22.6524990  89.2989997
  45.7319992  23.1044990  88.6469997  44.3439992  22.5444990  88.8769997
  45.1541648  22.6997883  89.1526395 104.7189992 119.6044990 109.0509997
 104.8379992 120.1784990 109.8079997 105.3739992 118.9164990 109.1659997
 104.8238684 119.5900205 109.1701656 105.0669992 115.6994990 100.8039997
 104.7199992 116.3164990 101.4489997 105.7249992 116.2004990 100.3229997
 105.1085290 115.8516384 100.8271635 101.9899992 130.0644990  97.8759997
 102.1509992 130.8644990  97.3749997 101.7929992 130.3714990  98.7609997
 101.9853919 130.2154140  97.9270988 100.7239992 116.7624990  97.4919997
 100.6409992 117.6504990  97.8379997 101.6139992 116.4974990  97.7229997
 100.8329751 116.8482482  97.5706066 110.9229992 117.5114990 109.8859997
 110.0069992 117.7734990 109.7979997 111.2589992 117.5084990 108.9889997
 110.8429789 117.5469637 109.7527829 109.5249992 121.2614990 103.9819997
 108.7279992 120.8464990 103.6529997 109.9699992 120.5714990 104.4729997
 109.4760317 121.1113197 104.0033556  98.9829992 127.1894990  96.5519997
  99.5749992 127.8894990  96.8279997  99.4419992 126.7564990  95.8329997
  99.1261172 127.2267371  96.4925163  97.2989992 119.8544990  95.6679997
  97.2539992 120.7934990  95.8469997  96.4109992 119.6184990  95.3979997
  97.1728472 119.9511946  95.6560282 110.6119992 130.5174990 105.6039997
 110.4559992 131.1964990 104.9469997 111.5439992 130.5894990 105.8069997
 110.7167328 130.6201586 105.5415529  98.1069992 114.6354990 104.3409997
  97.8779992 114.6944990 103.4139997  97.6639992 113.8444990 104.6479997
  98.0157387 114.5366412 104.2555223  46.7779992  28.0924990  89.5389997
  47.5289992  27.9364990  88.9659997  46.4389992  28.9444990  89.2629997
  46.8349052  28.1862745  89.4233469  97.0369992 128.5764990 100.5019997
  96.2049992 129.0484990 100.5289997  97.5829992 129.0864990  99.9029997
  96.9968710 128.7100317 100.4247570 105.0149992 129.6164990  94.8269997
 104.3709992 128.9854990  95.1489997 105.7769992 129.0854990  94.5949997
 105.0298260 129.4583035  94.8397298 109.6189992 129.4334990  95.0609997
 109.9019992 128.6384990  95.5139997 110.3589992 129.6664990  94.4999997
 109.7577295 129.3562349  95.0471469 100.5739992 125.3424990  94.9179997
 100.6379992 124.5484990  95.4489997 101.2269992 125.2244990  94.2289997
 100.6711168 125.2177747  94.8975119 105.9259992 126.3894990  94.6539997
 105.6579992 126.5704990  95.5549997 105.7199992 125.4644990  94.5229997
 105.8614251 126.2891528  94.7596809 108.6229992 124.8844990 109.6019997
 109.3679992 125.4734990 109.4819997 107.8649992 125.4664990 109.6649997
 108.6225185 125.0437000 109.5940940 101.7229992 123.3154990  97.2239997
 101.2639992 122.8314990  97.9099997 101.9779992 122.6464990  96.5879997
 101.6946178 123.1588511  97.2319785 101.0119992 121.2084990 109.5799997
 100.3939992 121.8824990 109.8609997 101.3559992 121.5294990 108.7469997
 100.9738181 121.3443233 109.5058266 102.7939992 121.5584990  95.4869997
 102.6139992 121.4034990  94.5589997 103.7439992 121.6664990  95.5309997
 102.8978016 121.5519264  95.3662123 112.1839992 123.9124990  94.9319997
 111.9109992 123.4884990  94.1189997 112.2239992 124.8444990  94.7149997
 112.1520201 123.9803523  94.7913548  51.1939992  25.9074990  94.5669997
  51.3859992  24.9764990  94.4559997  52.0509992  26.3324990  94.5569997
  51.3362320  25.8374743  94.5504433 101.7639992 116.9324990 108.1549997
 102.2999992 117.3844990 107.5029997 100.9119992 116.8244990 107.7329997
 101.7221648 116.9797883 108.0086395 103.3459992 122.3724990 108.3949997
 104.0969992 122.2164990 107.8219997 103.0069992 123.2244990 108.1189997
 103.4029052 122.4662745 108.2793469 102.5699992 114.3894990 108.5869997
 102.4719992 115.3354990 108.4809997 101.8269992 114.0164990 108.1109997
 102.4562363 114.4685987 108.5082029 102.6919992 132.2484990  96.4879997
 103.6249992 132.4064990  96.6319997 102.4269992 132.9244990  95.8629997
 102.7839846 132.3614567  96.4232930  96.2599992 126.8854990  95.9709997
  97.1739992 126.9644990  96.2439997  96.2669992 126.1984990  95.3039997
  96.3860769 126.8034735  95.9182366  94.9089992 132.2784990 101.0479997
  94.2619992 131.8164990 100.5149997  95.2639992 131.6064990 101.6309997
  94.8683861 132.1244707 101.0537939  95.7789992 130.3584990 102.8529997
  95.4449992 129.4784990 103.0249997  96.0009992 130.7044990 103.7169997
  95.7632677 130.2847365 102.9934252 113.3279992 131.1684990 105.8329997
 113.3059992 131.3534990 106.7719997 114.0179992 131.7364990 105.4919997
 113.4183439 131.2706898 105.9154774 112.8909992 130.7354990 108.7549997
 112.4039992 129.9994990 108.3839997 113.4399992 130.3414990 109.4329997
 112.8986101 130.5816267 108.7959034 112.6429992 124.7814990  98.9069997
 113.4929992 125.2024990  99.0349997 112.6479992 124.0414990  99.5149997
 112.7599745 124.7391347  99.0066479  52.5099992  28.6964990  92.6449997
  52.2289992  29.4054990  92.0669997  53.4529992  28.6234990  92.4939997
  52.5989272  28.7836704  92.5454976 113.0369992 122.8354990 100.7309997
 112.3109992 122.3554990 101.1289997 113.6179992 123.0404990 101.4629997
 113.0162504 122.7975592 100.8844199 112.7959992 125.6204990 105.6789997
 113.6299992 125.2424990 105.3979997 112.9079992 126.5634990 105.5599997
 112.9251917 125.6962954 105.6244844 111.2819992 128.4984990 107.9859997
 110.6349992 128.8234990 108.6109997 110.7649992 128.0574990 107.3109997
 111.1234068 128.4834726 107.9804918 113.3049992 122.7364990  97.1219997
 112.7839992 123.0924990  96.4029997 113.2719992 123.4114990  97.7999997
 113.2291525 122.8765273  97.1151408 111.6539992 119.9754990  95.6729997
 111.7509992 120.6424990  94.9929997 111.5139992 119.1604990  95.1909997
 111.6483428 119.9565667  95.5148311 110.8239992 121.3564990 101.2939997
 110.6739992 120.4114990 101.2739997 110.4699992 121.6374990 102.1379997
 110.7556351 121.2651656 101.4053202  95.8589992 123.4344990 105.3039997
  96.0429992 123.3524990 104.3689997  96.7079992 123.3104990 105.7279997
  95.9990259 123.4064915 105.2331771 110.9019992 117.3834990  94.7899997
 111.5119992 117.0124990  95.4269997 110.0649992 116.9624990  94.9859997
 110.8723704 117.2757942  94.9037077 110.5339992 118.9384990  99.7559997
 110.8139992 118.0314990  99.8809997 111.2929992 119.3724990  99.3669997
 110.6749471 118.8730654  99.7205052 111.1459992 119.5204990 105.1919997
 112.0789992 119.7324990 105.1579997 110.9109992 119.6214990 106.1149997
 111.2418357 119.5631303 105.3120232  43.2619992  25.4814990  93.7179997
  42.4949992  24.9484990  93.5079997  43.9409992  25.1714990  93.1189997
  43.2488292  25.3666360  93.6082693 111.1749992 120.2574990 107.9679997
 110.3319992 120.5254990 108.3339997 111.6179992 121.0794990 107.7569997
 111.1194358 120.4053294 107.9895999 111.1479992 116.2014990  99.8049997
 111.3299992 115.7524990 100.6299997 110.5479992 115.6174990  99.3409997
 111.0918187 116.0610563  99.8552721  96.6779992 117.0174990 104.3359997
  97.1229992 116.2254990 104.6379997  97.1439992 117.7334990 104.7669997
  96.8019059 117.0059485 104.4356061  94.9819992 120.0164990 105.4049997
  95.4739992 119.7954990 104.6149997  95.3439992 120.8564990 105.6859997
  95.0983429 120.0998220 105.3347918 113.0139992 116.2694990  96.3329997
 113.4269992 115.5484990  95.8569997 113.6959992 116.9384990  96.3909997
 113.1625712 116.2614304  96.2758247  95.2949992 116.2744990  99.4599997
  94.3699992 116.4824990  99.3299997  95.7489992 116.7584990  98.7699997
  95.2297401 116.3683895  99.3489433 110.0659992 131.2584990 101.4049997
 110.7179992 130.9104990 100.7969997 110.5769992 131.7464990 102.0509997
 110.2242872 131.2768248 101.4090964  95.2589992 115.0124990 107.8039997
  94.5939992 114.7664990 108.4469997  94.8159992 115.6344990 107.2269997
  95.1081168 115.0629225 107.8139830 100.4049992 129.1614990 108.2069997
  99.9799992 129.9714990 107.9239997 101.3089992 129.2474990 107.9049997
 100.4691002 129.2838728 108.1274798 111.9789992 114.4364990 109.4899997
 111.1659992 114.7614990 109.1019997 112.2119992 113.6754990 108.9569997
 111.8992566 114.3781570 109.3649196  46.0019992  20.1094990  89.7309997
  45.9039992  21.0554990  89.6249997  45.2589992  19.7364990  89.2549997
  45.8882363  20.1885987  89.6522029  97.8069992 132.4184990 108.2539997
  97.0859992 132.8584990 107.8029997  97.4409992 132.1674990 109.1029997
  97.6589785 132.4447691 108.3069849 100.2739992 132.0184990 107.2839997
  99.4089992 132.0904990 107.6879997 100.2189992 132.5654990 106.4999997
 100.1482066 132.1022678 107.2333371 104.9849992 131.9064990 106.4599997
 104.5279992 132.4354990 105.8059997 105.1469992 132.5094990 107.1849997
 104.9443919 132.0603990 106.4685740 107.3119992 130.7844990 107.4049997
 106.4079992 130.9494990 107.1389997 107.7409992 131.6374990 107.3389997
 107.2462017 130.9224184 107.3596495 109.9159992 132.3544990 107.6999997
 109.7349992 133.2704990 107.4889997 110.0929992 131.9434990 106.8529997
 109.9151377 132.4243365 107.5567178  97.2219992 131.0414990 105.1649997
  97.2029992 130.6154990 106.0219997  98.0259992 130.7224990 104.7559997
  97.3281393 130.9400297 105.2270155  99.3629992 129.7514990 103.8199997
  99.1439992 128.8344990 103.9889997 100.1869992 129.8914990 104.2859997
  99.4444637 129.6449586 103.9061414 101.8999992 130.2214990 104.6679997
 102.1129992 129.3334990 104.3809997 101.9649992 130.1864990 105.6229997
 101.9379075 130.0953318 104.7577355 105.4089992 115.8854990 103.8129997
 104.7339992 115.2554990 104.0679997 105.9729992 115.4014990 103.2099997
 105.3929558 115.7339283 103.7663451 110.5509992 113.9924990 103.9249997
 111.1549992 114.5404990 103.4239997 109.6819992 114.3114990 103.6849997
 110.5161126 114.1107070 103.8239180  47.2659992  24.4304990  93.2939997
  47.0299992  24.2114990  94.1959997  46.4829992  24.2234990  92.7849997
  47.1278444  24.3725688  93.3484518 112.2779992 115.1314990 102.2589997
 112.8899992 114.6174990 101.7319997 112.6609992 116.0084990 102.2819997
 112.4133867 115.1797613 102.1900888  97.7349992 114.5194990 101.6349997
  96.9579992 114.2844990 101.1269997  98.2659992 113.7224990 101.6439997
  97.7004443 114.3796721 101.5667200  96.5719992 114.3174990  97.4379997
  97.0109992 114.9284990  96.8469997  95.9379992 114.8554990  97.9119997
  96.5464103 114.4739233  97.4211376 102.3149992 114.4454990 101.4479997
 103.1889992 114.8344990 101.4179997 102.1789992 114.2304990 102.3709997
 102.4163125 114.4697120 101.5686523 107.8709992 114.4754990 103.0969997
 107.9479992 114.5714990 102.1479997 107.5959992 113.5684990 103.2259997
 107.8443407 114.3659188 102.9843532 109.2249992 114.5014990  98.7899997
 108.5219992 115.1164990  98.5799997 108.7799992 113.6644990  98.9209997
 109.0686550 114.4724679  98.7789819  96.4729992 130.2654990  98.3359997
  95.7879992 130.2274990  97.6679997  96.4759992 131.1774990  98.6239997
  96.3797358 130.3836744  98.2836145  98.4329992 116.2334990  95.8809997
  98.9239992 115.6034990  95.3529997  99.0559992 116.5294990  96.5439997
  98.5845459 116.1872419  95.8983667 103.4589992 116.5264990  98.3379997
 103.6369992 115.8794990  99.0209997 103.4049992 117.3604990  98.8049997
 103.4760678 116.5506615  98.4946283 105.3369992 131.4744990  96.7329997
 106.2029992 131.8414990  96.5549997 105.0899992 131.0354990  95.9199997
 105.4222041 131.4653648  96.5985958  49.9819992  23.5584990  92.3699997
  49.0339992  23.5904990  92.5019997  50.2939992  22.9324990  93.0239997
  49.8945293  23.4782934  92.4764130 112.0459992 131.0374990  99.4129997
 111.8519992 130.2894990  98.8479997 112.0069992 131.7954990  98.8289997
 112.0141907 131.0375770  99.2568077  98.2909992 131.1854990  95.3609997
  98.0229992 131.4714990  96.2339997  99.0619992 130.6394990  95.5129997
  98.3585600 131.1508341  95.5011482 125.6699992 123.6754990 101.5929997
 125.7589992 124.6194990 101.4609997 125.0309992 123.4004990 100.9349997
 125.5958319 123.7674984 101.4860276 124.6029992 122.9304990 105.0119997
 124.5639992 122.2844990 105.7169997 124.2799992 122.4634990 104.2409997
 124.5540199 122.7790089 105.0042865 116.9709992 122.5444990 106.6049997
 117.0119992 121.9194990 107.3289997 117.6739992 123.1684990 106.7869997
 117.0716054 122.5433262 106.7286311 128.3089992 125.8694990 103.3139997
 127.8679992 125.1494990 103.7639997 128.2959992 126.5904990 103.9439997
 128.2468398 125.8683187 103.4607734 117.8949992 126.9944990 105.1399997
 117.5249992 126.1924990 104.7709997 118.8359992 126.8264990 105.1869997
 117.9715630 126.8618680 105.0957873 114.5049992 120.6544990 100.5329997
 114.0569992 121.5004990 100.5149997 113.9439992 120.0754990 100.0179997
 114.3678546 120.6919004 100.4608874 115.2149992 122.8164990 102.6589997
 115.4289992 122.0464990 103.1859997 115.9529992 122.9064990 102.0559997
 115.3440073 122.7233546 102.6495786 125.4199992 130.9734990 103.5259997
 126.0399992 130.2974990 103.2529997 125.2119992 130.7554990 104.4339997
 125.4767360 130.8514792 103.6114387  51.6159992  22.1924990  94.3749997
  51.5189992  21.2404990  94.3689997  51.2939992  22.4604990  95.2359997
  51.5592229  22.0984706  94.4905108 122.9919992 125.3624990 105.4179997
 123.2959992 124.6764990 104.8239997 123.7139992 125.4814990 106.0359997
 123.1311152 125.2847201 105.4202106 131.6549992 116.9644990 106.2789997
 131.7039992 117.5744990 107.0149997 132.0809992 117.4254990 105.5559997
 131.7192851 117.1103266 106.2820532 126.1329992 119.7564990 105.7459997
 126.2749992 118.8104990 105.7659997 126.0269992 119.9634990 104.8169997
 126.1381158 119.6549722 105.6232241 119.2879992 117.8584990 103.0179997
 119.3309992 118.7184990 102.5999997 118.8299992 117.3054990 102.3849997
 119.2319613 117.9015689 102.8751276 127.0099992 117.9894990 101.4189997
 127.6559992 117.6604990 102.0439997 127.5199992 118.5064990 100.7959997
 127.1674392 118.0143710 101.4203248 115.9079992 120.2554990 103.7799997
 116.5619992 119.7054990 104.2119997 115.9319992 119.9814990 102.8639997
 116.0007022 120.1432005 103.7151698 121.0639992 121.8054990 102.9959997
 121.6799992 121.2784990 103.5049997 120.4779992 121.1654990 102.5919997
 121.0690652 121.6468919 103.0110277 132.0469992 118.4424990 108.5149997
 131.3579992 119.1004990 108.4199997 132.0619992 118.2444990 109.4519997
 131.9547756 118.5057614 108.6285795 118.0979992 116.7764990 107.0919997
 117.8789992 117.3064990 106.3259997 117.4299992 117.0024990 107.7399997
 117.9777271 116.8796508 107.0746206 125.4669992 126.2764990 100.6359997
 125.1709992 125.9534990  99.7849997 125.1429992 127.1764990 100.6779997
 125.3826501 126.3539058 100.5250893  41.4429992  23.4014990  93.4229997
  41.6539992  22.6954990  92.8119997  41.3309992  22.9644990  94.2669997
  41.4567674  23.2456376  93.4534199 120.6669992 124.4514990 107.3799997
 119.9269992 125.0504990 107.4829997 121.3809992 125.0054990 107.0639997
 120.6623288 124.6082368 107.3513787 128.7739992 117.2804990 103.3999997
 128.5589992 116.5144990 103.9319997 129.4299992 117.7524990 103.9129997
 128.8332451 117.2394472 103.5421699 117.6919992 118.6684990 105.0449997
 118.3049992 119.3014990 105.4179997 118.2039992 118.1964990 104.3879997
 117.8451680 118.6914006 105.0072830 119.0739992 126.4164990 108.1669997
 119.0689992 127.2954990 107.7889997 118.2209992 126.3324990 108.5919997
 118.9579199 126.5255901 108.1726942 115.1959992 126.0874990  98.9489997
 114.9239992 126.3164990  98.0599997 115.2409992 126.9244990  99.4089997
 115.1648709 126.2321069  98.8896089 128.8209992 127.7084990 105.6619997
 127.8789992 127.7674990 105.8229997 129.0969992 128.6144990 105.5249997
 128.7295771 127.8390270 105.6654827 129.1209992 115.9954990 107.0789997
 128.3849992 116.6054990 107.0409997 129.8049992 116.4104990 106.5529997
 129.1125885 116.1351924 107.0026931 122.1239992 114.0814990 104.5449997
 122.0069992 113.1334990 104.4909997 121.2689992 114.4144990 104.8179997
 121.9923691 113.9965842 104.5745072 127.0729992 129.4894990 102.2869997
 127.4979992 128.7824990 101.8019997 127.3899992 130.2914990 101.8699997
 127.1740266 129.5010201 102.1642461 128.2319992 127.3904990 100.7959997
 127.9749992 126.7004990 100.1839997 128.3029992 126.9474990 101.6409997
 128.2064322 127.2361568 100.8265372  46.2239992  19.4034990  92.4019997
  46.9349992  18.7634990  92.3879997  46.1229992  19.6694990  91.4879997
  46.3076732  19.3518451  92.2765475 129.9179992 125.9574990 109.2729997
 130.0579992 125.3654990 108.5339997 130.0859992 126.8304990 108.9169997
 129.9598734 125.9944041 109.1236937 124.3909992 122.9194990  99.0449997
 123.6789992 123.4544990  98.6939997 125.0819992 122.9744990  98.3849997
 124.3868696 123.0002591  98.9076372 124.4449992 121.3764990  96.0839997
 125.1459992 121.3994990  96.7349997 124.7469992 120.7484990  95.4279997
 124.5818282 121.2947350  96.0844478 131.7599992 122.2974990 107.3389997
 131.1079992 122.9914990 107.4279997 132.2249992 122.5074990 106.5289997
 131.7335357 122.4209544 107.2417056 127.7969992 123.1284990  99.9969997
 127.0649992 123.3574990 100.5699997 128.2439992 122.4154990 100.4519997
 127.7572753 123.0633984 100.1369698 127.6939992 121.3034990 109.0649997
 127.7739992 122.0664990 109.6369997 127.0929992 121.5824990 108.3739997
 127.6237115 121.4457707 109.0499631 119.4419992 123.7594990 101.8799997
 119.1119992 123.3884990 101.0609997 120.0299992 123.0884990 102.2259997
 119.4764056 123.6181257 101.8149035 120.8089992 127.1874990 104.5609997
 120.7139992 126.6084990 103.8039997 121.5379992 126.8164990 105.0569997
 120.8946161 127.0580902 104.5245192 119.8089992 122.5274990 105.5129997
 120.3739992 122.6494990 104.7499997 120.1269992 123.1654990 106.1519997
 119.9293430 122.6304448 105.4949094 126.1179992 128.0314990 106.2469997
 125.8769992 128.6934990 106.8949997 125.9199992 127.1964990 106.6719997
 126.0582662 128.0092704 106.3931008  46.5769992  21.0854990  94.4559997
  46.4459992  20.6104990  93.6349997  45.9779992  21.8304990  94.3999997
  46.4781524  21.1211968  94.3361553 126.6679992 122.2914990  97.6819997
 127.2469992 122.4414990  98.4289997 127.0819992 122.7614990  96.9589997
 126.8033122 122.3756288  97.6865024 117.6089992 123.1254990 109.4589997
 117.6789992 123.7764990 110.1569997 116.7179992 123.2284990 109.1239997
 117.4981802 123.2284769 109.5092231 124.3939992 129.0274990 101.1179997
 124.8679992 129.3234990 101.8949997 123.8309992 129.7664990 100.8839997
 124.3828460 129.1678336 101.1927626 130.3659992 114.0414990  97.4949997
 129.4659992 114.1794990  97.7899997 130.6179992 114.8724990  97.0929997
 130.2767355 114.1728200  97.4810539 118.4319992 122.8284990  99.4689997
 118.1399992 123.5964990  98.9779997 117.7579992 122.1694990  99.3059997
 118.3008843 122.8444537  99.3797695 131.5559992 128.4074990  95.8719997
 131.6289992 129.3464990  96.0419997 132.4609992 128.1024990  95.8149997
 131.6884168 128.4948531  95.8875736 114.5249992 125.1914990 108.2839997
 114.0239992 125.1634990 107.4689997 114.5309992 124.2864990 108.5939997
 114.4571690 125.0652234 108.2142770 114.2759992 127.9724990 105.1679997
 115.2219992 127.8274990 105.1489997 114.1629992 128.7564990 105.7049997
 114.3903578 128.0586708 105.2380300 123.4519992 128.2124990 109.7259997
 123.5389992 129.0384990 110.2009997 122.5879992 127.8824990 109.9749997
 123.3471944 128.2809871 109.8246558 123.8659992 131.9844990  99.5319997
 123.7909992 131.8634990  98.5859997 123.8989992 132.9334990  99.6509997
 123.8601862 132.0962492  99.4184840  38.3409992  37.9984990  82.1919997
  37.6939992  37.5364990  81.6589997  38.6959992  37.3264990  82.7749997
  38.3003861  37.8444707  82.1977939 117.5199992 130.7734990 101.3129997
 117.6719992 130.4254990 102.1919997 116.6689992 130.4164990 101.0579997
 117.4257899 130.6776749 101.3987322 126.9679992 131.1384990  96.5349997
 127.3429992 130.3944990  96.0639997 126.9719992 130.8684990  97.4529997
 127.0198969 131.0000920  96.5946475 126.6369992 131.0644990  99.2839997
 125.7019992 131.1644990  99.4629997 126.9169992 130.3544990  99.8619997
 126.5469270 130.9822300  99.3865984 116.7739992 126.5154990 109.3269997
 116.9899992 126.1534990 110.1869997 115.9189992 126.1404990 109.1169997
 116.6879349 126.4152914 109.4162134 119.3929992 114.9854990 105.3229997
 118.5309992 114.8984990 104.9149997 119.3709992 115.8414990 105.7499997
 119.2720953 115.0893558 105.3249262 124.0559992 114.7074990 108.6969997
 124.4759992 114.2924990 109.4499997 123.1229992 114.5284990 108.8139997
 123.9873736 114.6264921 108.8158950 127.3819992 118.4624990 109.5509997
 126.8679992 118.3374990 110.3479997 127.2269992 119.3754990 109.3059997
 127.2906643 118.5687068 109.6270624 128.1449992 123.3234990  95.3119997
 128.1869992 123.1014990  94.3819997 128.9939992 123.7224990  95.5019997
 128.2655253 123.3470510  95.2103804 123.7179992 117.1994990  95.9819997
 123.4639992 117.2184990  96.9049997 123.4609992 116.3284990  95.6809997
 123.6485133 117.0843121  96.0675065 119.4839992 119.9504990 106.4179997
 118.8419992 119.9104990 107.1269997 119.5209992 120.8774990 106.1799997
 119.4011659 120.0702540 106.4828463  39.2109992  36.0784990  83.9969997
  38.8769992  35.1984990  84.1689997  39.4329992  36.4244990  84.8609997
  39.1952677  36.0047366  84.1374252 119.4809992 120.1714990 101.3299997
 118.5879992 119.8314990 101.2709997 119.9319992 119.7944990 100.5739997
 119.4197185 120.0740220 101.2197698 125.0169992 120.5874990 100.1469997
 124.6079992 121.4024990  99.8549997 125.7369992 120.4474990  99.5319997
 125.0583946 120.6799963 100.0239616 126.0209992 120.0334990 102.9609997
 125.8259992 120.6394990 102.2459997 126.2029992 119.2004990 102.5259997
 126.0189272 120.0037955 102.8044075 117.2339992 120.2714990 108.2849997
 117.1959992 120.6714990 109.1529997 116.7429992 119.4544990 108.3749997
 117.1624246 120.2158842 108.4161171 120.5999992 117.6454990  95.0829997
 120.1689992 117.2004990  95.8129997 119.8819992 118.0164990  94.5709997
 120.4439363 117.6347979  95.1136194 113.8419992 117.3874990 102.1349997
 114.4729992 117.3584990 102.8549997 114.2919992 116.9624990 101.4049997
 113.9890905 117.3260839 102.1347479 115.1159992 118.1334990  97.5589997
 115.5909992 118.7244990  96.9739997 114.3989992 118.6634990  97.9059997
 115.0840406 118.2861011  97.5258495 125.2849992 121.6714990 107.6319997
 125.6089992 121.0404990 106.9889997 124.8449992 121.1374990 108.2929997
 125.2698707 121.5128261 107.6333195 122.0629992 117.5994990 102.4159997
 121.1519992 117.6564990 102.7049997 122.5679992 117.5394990 103.2269997
 122.0066873 117.5991838 102.5651190 116.8909992 119.2284990 101.2429997
 116.0019992 119.3274990 100.9029997 117.1869992 118.3864990 100.8969997
 116.8094001 119.1282473 101.1497318  56.7599992  36.8884990  86.9769997
  56.7379992  37.0734990  87.9159997  57.4499992  37.4564990  86.6359997
  56.8503439  36.9906898  87.0594774 120.5439992 119.2284990  98.8989997
 121.4759992 119.3574990  99.0769997 120.3289992 119.8974990  98.2499997
 120.6424245 119.3366452  98.8355602 126.4679992 116.8344990 105.6799997
 125.7909992 116.9654990 106.3439997 125.9819992 116.6794990 104.8699997
 126.3097265 116.8314665 105.6613380 119.2179992 120.4224990  96.4659997
 118.6759992 120.0434990  95.7749997 120.0519992 120.6174990  96.0369997
 119.2564283 120.3969383  96.3134298 123.3829992 120.3864990 104.3029997
 123.9469992 119.8404990 103.7559997 123.2349992 119.8654990 105.0919997
 123.4403037 120.2411798 104.3347212 118.3849992 116.5234990 100.7209997
 118.0669992 115.6204990 100.6859997 119.1659992 116.5254990 100.1689997
 118.4471560 116.4001148 100.6414975 122.0089992 118.7754990 106.7169997
 121.1739992 119.2294990 106.8269997 122.5329992 119.0514990 107.4689997
 121.9655070 118.8749677 106.8337134 122.5529992 124.9884990  98.4019997
 121.8079992 124.4804990  98.0789997 122.4189992 125.0374990  99.3479997
 122.4328633 124.9255714  98.4857563 129.7029992 124.1214990 107.1879997
 130.3449992 124.5774990 106.6449997 128.8729992 124.2344990 106.7259997
 129.6787352 124.1993223 107.0510234 126.4509992 117.8024990  96.6009997
 125.5119992 117.9134990  96.4499997 126.7479992 118.6584990  96.9069997
 126.3626371 117.9335327  96.6217362 124.0729992 125.1724990 109.6389997
 123.7269992 124.7904990 110.4449997 123.8729992 126.1054990 109.7099997
 123.9985400 125.2463489 109.7590401  56.3229992  36.4554990  89.8989997
  55.8359992  35.7194990  89.5279997  56.8719992  36.0614990  90.5769997
  56.3306101  36.3016267  89.9399034 127.1689992 119.6694990  98.2619997
 128.0609992 119.5314990  98.5809997 127.2259992 120.4604990  97.7249997
 127.2987380 119.7574777  98.2330981 117.6779992 124.2834990 104.1709997
 118.4229992 124.2804990 103.5699997 117.7559992 123.4594990 104.6529997
 117.7904158 124.1717928 104.1539136 124.6789992 126.4464990  97.4269997
 124.3839992 127.2734990  97.8089997 123.9759992 125.8274990  97.6229997
 124.5435855 126.4759458  97.5057634 114.6859992 122.7434990 109.4859997
 114.9089992 122.3254990 110.3179997 114.0839992 122.1314990 109.0639997
 114.6350802 122.6035216 109.5427561 126.3229992 127.6344990 109.5889997
 125.4219992 127.8174990 109.3209997 126.3569992 127.8934990 110.5099997
 126.2043021 127.6945505 109.6768206 132.0539992 119.8784990  97.9559997
 131.4999992 119.4824990  97.2839997 132.1549992 120.7894990  97.6789997
 131.9917084 119.9473565  97.8264381 130.3489992 128.6644990  98.4209997
 129.9769992 127.8394990  98.7309997 130.6269992 128.4814990  97.5239997
 130.3355997 128.5266160  98.3421551 127.5099992 123.4724990 105.4429997
 126.5819992 123.2414990 105.4159997 127.9609992 122.6954990 105.1129997
 127.4438165 123.3357785 105.3946772 120.0529992 127.8014990 101.5759997
 120.5799992 128.5744990 101.3749997 119.1729992 128.0254990 101.2739997
 120.0061793 127.9376652 101.5076304 115.8079992 122.6634990  96.1629997
 116.4239992 123.2904990  96.5419997 114.9459992 122.9794990  96.4339997
 115.7758195 122.7920810  96.2515369  54.7739992  32.2454990  94.5369997
  53.9079992  32.1404990  94.9309997  55.1499992  33.0034990  94.9839997
  54.7063768  32.3336151  94.6513258 121.4799992 125.4644990 101.1519997
 121.2389992 126.3894990 101.1939997 120.7399992 125.0054990 101.5479997
 121.3468934 125.5290881 101.2113191 121.9949992 129.6134990 107.4669997
 122.3579992 130.4674990 107.2339997 122.5269992 129.3214990 108.2079997
 122.1165141 129.6908907 107.5352079 120.1629992 130.4854990 100.6969997
 119.2139992 130.5914990 100.7489997 120.5149992 131.3064990 101.0419997
 120.0806214 130.6109361 100.7507317 125.5389992 125.7124990 107.1679997
 125.1129992 125.4844990 107.9939997 126.1199992 124.9734990 106.9849997
 125.5591587 125.5814084 107.2564111 127.7419992 126.6414990  96.2419997
 128.0949992 126.2614990  97.0459997 126.7929992 126.5474990  96.3279997
 127.6620985 126.5767330  96.3637738 128.1979992 130.2644990 109.6369997
 127.5959992 129.7084990 109.1419997 128.4789992 130.9314990 109.0109997
 128.1535757 130.2785755 109.4845657 132.2449992 131.1204990  96.4429997
 132.9889992 131.7064990  96.3029997 131.5509992 131.6894990  96.7759997
 132.2529809 131.2775830  96.4688572 116.3199992 117.4974990 109.0439997
 115.4269992 117.8354990 108.9769997 116.2209992 116.6414990 109.4619997
 116.1845241 117.4280941 109.0912982 128.6079992 125.3134990  98.4679997
 128.3309992 124.5854990  99.0239997 129.5349992 125.4324990  98.6739997
 128.6954181 125.2300068  98.5718972 115.9709992 129.3014990 107.4789997
 116.1879992 128.3694990 107.4479997 116.2179992 129.5764990 108.3629997
 116.0340543 129.2110877 107.5941412  56.0749992  30.5014990  80.0509997
  56.9249992  30.9224990  80.1789997  56.0799992  29.7614990  80.6589997
  56.1919745  30.4591347  80.1506479 121.8329992 127.7534990  94.6889997
 122.0719992 127.0044990  94.1409997 121.5639992 127.3654990  95.5209997
 121.8292804 127.5986524  94.7266352 120.7699992 127.3234990  97.1449997
 120.9169992 126.8034990  97.9349997 120.7669992 128.2304990  97.4509997
 120.7897300 127.3748975  97.2945877 117.2229992 124.5754990  97.6549997
 116.5369992 124.9284990  98.2219997 117.7459992 125.3384990  97.4089997
 117.1999033 124.7268757  97.6992644 125.0539992 117.2384990 107.9339997
 125.7529992 117.3124990 108.5839997 124.6739992 116.3734990 108.0889997
 125.0982095 117.1317402 108.0437982 125.8389992 116.8904990  99.0309997
 126.0589992 117.3614990  98.2279997 126.3969992 117.2844990  99.7019997
 125.9445851 117.0083272  99.0116134 123.5079992 129.0204990  97.8939997
 122.6909992 129.5174990  97.9469997 124.0369992 129.4964990  97.2539997
 123.4677898 129.1528123  97.8147274 123.0389992 118.6184990  99.8659997
 123.8509992 119.1224990  99.9119997 122.7939992 118.4734990 100.7799997
 123.1171091 118.6679366  99.9958552 123.5749992 119.6044990 109.0509997
 123.6939992 120.1784990 109.8079997 124.2299992 118.9164990 109.1659997
 123.6798684 119.5900205 109.1701656 123.9229992 115.6994990 100.8039997
 123.5759992 116.3164990 101.4489997 124.5809992 116.2004990 100.3229997
 123.9645290 115.8516384 100.8271635 120.8459992 130.0644990  97.8759997
 121.0069992 130.8644990  97.3749997 120.6489992 130.3714990  98.7609997
 120.8413919 130.2154140  97.9270988  56.4689992  28.5554990  81.8749997
  55.7429992  28.0754990  82.2729997  57.0499992  28.7604990  82.6069997
  56.4482504  28.5175592  82.0284199 119.5799992 116.7624990  97.4919997
 119.4969992 117.6504990  97.8379997 120.4699992 116.4974990  97.7229997
 119.6889751 116.8482482  97.5706066 129.7789992 117.5114990 109.8859997
 128.8629992 117.7734990 109.7979997 130.1149992 117.5084990 108.9889997
 129.6989789 117.5469637 109.7527829 128.3809992 121.2614990 103.9819997
 127.5839992 120.8464990 103.6529997 128.8259992 120.5714990 104.4729997
 128.3320317 121.1113197 104.0033556 117.8389992 127.1894990  96.5519997
 118.4309992 127.8894990  96.8279997 118.2979992 126.7564990  95.8329997
 117.9821172 127.2267371  96.4925163 116.1549992 119.8544990  95.6679997
 116.1099992 120.7934990  95.8469997 115.2669992 119.6184990  95.3979997
 116.0288472 119.9511946  95.6560282 129.4679992 130.5174990 105.6039997
 129.3119992 131.1964990 104.9469997 130.3999992 130.5894990 105.8069997
 129.5727328 130.6201586 105.5415529 116.9629992 114.6354990 104.3409997
 116.7339992 114.6944990 103.4139997 116.5199992 113.8444990 104.6479997
 116.8717387 114.5366412 104.2555223 115.8929992 128.5764990 100.5019997
 115.0609992 129.0484990 100.5289997 116.4389992 129.0864990  99.9029997
 115.8528710 128.7100317 100.4247570 123.8709992 129.6164990  94.8269997
 123.2269992 128.9854990  95.1489997 124.6329992 129.0854990  94.5949997
 123.8858260 129.4583035  94.8397298 128.4749992 129.4334990  95.0609997
 128.7579992 128.6384990  95.5139997 129.2149992 129.6664990  94.4999997
 128.6137295 129.3562349  95.0471469  56.2279992  31.3404990  86.8229997
  57.0619992  30.9624990  86.5419997  56.3399992  32.2834990  86.7039997
  56.3571917  31.4162954  86.7684844 119.4299992 125.3424990  94.9179997
 119.4939992 124.5484990  95.4489997 120.0829992 125.2244990  94.2289997
 119.5271168 125.2177747  94.8975119 124.7819992 126.3894990  94.6539997
 124.5139992 126.5704990  95.5549997 124.5759992 125.4644990  94.5229997
 124.7174251 126.2891528  94.7596809 127.4789992 124.8844990 109.6019997
 128.2239992 125.4734990 109.4819997 126.7209992 125.4664990 109.6649997
 127.4785185 125.0437000 109.5940940 120.5789992 123.3154990  97.2239997
 120.1199992 122.8314990  97.9099997 120.8339992 122.6464990  96.5879997
 120.5506178 123.1588511  97.2319785 119.8679992 121.2084990 109.5799997
 119.2499992 121.8824990 109.8609997 120.2119992 121.5294990 108.7469997
 119.8298181 121.3443233 109.5058266 121.6499992 121.5584990  95.4869997
 121.4699992 121.4034990  94.5589997 122.5999992 121.6664990  95.5309997
 121.7538016 121.5519264  95.3662123 131.0399992 123.9124990  94.9319997
 130.7669992 123.4884990  94.1189997 131.0799992 124.8444990  94.7149997
 131.0080201 123.9803523  94.7913548 120.6199992 116.9324990 108.1549997
 121.1559992 117.3844990 107.5029997 119.7679992 116.8244990 107.7329997
 120.5781648 116.9797883 108.0086395 122.2019992 122.3724990 108.3949997
 122.9529992 122.2164990 107.8219997 121.8629992 123.2244990 108.1189997
 122.2589052 122.4662745 108.2793469 121.4259992 114.3894990 108.5869997
 121.3279992 115.3354990 108.4809997 120.6829992 114.0164990 108.1109997
 121.3122363 114.4685987 108.5082029  54.7139992  34.2184990  89.1299997
  54.0669992  34.5434990  89.7549997  54.1969992  33.7774990  88.4549997
  54.5554068  34.2034726  89.1244918 121.5479992 132.2484990  96.4879997
 122.4809992 132.4064990  96.6319997 121.2829992 132.9244990  95.8629997
 121.6399846 132.3614567  96.4232930 115.1159992 126.8854990  95.9709997
 116.0299992 126.9644990  96.2439997 115.1229992 126.1984990  95.3039997
 115.2420769 126.8034735  95.9182366 113.7649992 132.2784990 101.0479997
 113.1179992 131.8164990 100.5149997 114.1199992 131.6064990 101.6309997
 113.7243861 132.1244707 101.0537939 114.6349992 130.3584990 102.8529997
 114.3009992 129.4784990 103.0249997 114.8569992 130.7044990 103.7169997
 114.6192677 130.2847366 102.9934252 132.1839992 131.1684990 105.8329997
 132.1619992 131.3534990 106.7719997 132.8739992 131.7364990 105.4919997
 132.2743439 131.2706898 105.9154774 131.7469992 130.7354990 108.7549997
 131.2599992 129.9994990 108.3839997 132.2959992 130.3414990 109.4329997
 131.7546101 130.5816267 108.7959034 131.4989992 124.7814990  98.9069997
 132.3489992 125.2024990  99.0349997 131.5039992 124.0414990  99.5149997
 131.6159745 124.7391347  99.0066479 131.8929992 122.8354990 100.7309997
 131.1669992 122.3554990 101.1289997 132.4739992 123.0404990 101.4629997
 131.8722504 122.7975592 100.8844199 131.6519992 125.6204990 105.6789997
 132.4859992 125.2424990 105.3979997 131.7639992 126.5634990 105.5599997
 131.7811917 125.6962954 105.6244844 130.1379992 128.4984990 107.9859997
 129.4909992 128.8234990 108.6109997 129.6209992 128.0574990 107.3109997
 129.9794068 128.4834726 107.9804918  56.7369992  28.4564990  78.2659997
  56.2159992  28.8124990  77.5469997  56.7039992  29.1314990  78.9439997
  56.6611525  28.5965273  78.2591408 132.1609992 122.7364990  97.1219997
 131.6399992 123.0924990  96.4029997 132.1279992 123.4114990  97.7999997
 132.0851525 122.8765273  97.1151408 130.5099992 119.9754990  95.6729997
 130.6069992 120.6424990  94.9929997 130.3699992 119.1604990  95.1909997
 130.5043428 119.9565667  95.5148311 129.6799992 121.3564990 101.2939997
 129.5299992 120.4114990 101.2739997 129.3259992 121.6374990 102.1379997
 129.6116351 121.2651656 101.4053202 114.7149992 123.4344990 105.3039997
 114.8989992 123.3524990 104.3689997 115.5639992 123.3104990 105.7279997
 114.8550259 123.4064915 105.2331771 129.7579992 117.3834990  94.7899997
 130.3679992 117.0124990  95.4269997 128.9209992 116.9624990  94.9859997
 129.7283704 117.2757942  94.9037077 129.3899992 118.9384990  99.7559997
 129.6699992 118.0314990  99.8809997 130.1489992 119.3724990  99.3669997
 129.5309471 118.8730654  99.7205051 130.0019992 119.5204990 105.1919997
 130.9349992 119.7324990 105.1579997 129.7669992 119.6214990 106.1149997
 130.0978357 119.5631303 105.3120232 130.0309992 120.2574990 107.9679997
 129.1879992 120.5254990 108.3339997 130.4739992 121.0794990 107.7569997
 129.9754358 120.4053294 107.9895999 130.0039992 116.2014990  99.8049997
 130.1859992 115.7524990 100.6299997 129.4039992 115.6174990  99.3409997
 129.9478187 116.0610563  99.8552721 115.5339992 117.0174990 104.3359997
 115.9789992 116.2254990 104.6379997 115.9999992 117.7334990 104.7669997
 115.6579059 117.0059485 104.4356061  54.2559992  27.0764990  82.4379997
  54.1059992  26.1314990  82.4179997  53.9019992  27.3574990  83.2819997
  54.1876351  26.9851656  82.5493202 113.8379992 120.0164990 105.4049997
 114.3299992 119.7954990 104.6149997 114.1999992 120.8564990 105.6859997
 113.9543429 120.0998220 105.3347918 131.8699992 116.2694990  96.3329997
 132.2829992 115.5484990  95.8569997 132.5519992 116.9384990  96.3909997
 132.0185712 116.2614304  96.2758247 114.1509992 116.2744990  99.4599997
 113.2259992 116.4824990  99.3299997 114.6049992 116.7584990  98.7699997
 114.0857401 116.3683895  99.3489433 128.9219992 131.2584990 101.4049997
 129.5739992 130.9104990 100.7969997 129.4329992 131.7464990 102.0509997
 129.0802872 131.2768248 101.4090964 114.1149992 115.0124990 107.8039997
 113.4499992 114.7664990 108.4469997 113.6719992 115.6344990 107.2269997
 113.9641168 115.0629225 107.8139830 119.2609992 129.1614990 108.2069997
 118.8359992 129.9714990 107.9239997 120.1649992 129.2474990 107.9049997
 119.3251002 129.2838728 108.1274798 130.8349992 114.4364990 109.4899997
 130.0219992 114.7614990 109.1019997 131.0679992 113.6754990 108.9569997
 130.7552566 114.3781570 109.3649196 116.6629992 132.4184990 108.2539997
 115.9419992 132.8584990 107.8029997 116.2969992 132.1674990 109.1029997
 116.5149785 132.4447691 108.3069849 119.1299992 132.0184990 107.2839997
 118.2649992 132.0904990 107.6879997 119.0749992 132.5654990 106.4999997
 119.0042066 132.1022678 107.2333371 123.8409992 131.9064990 106.4599997
 123.3839992 132.4354990 105.8059997 124.0029992 132.5094990 107.1849997
 123.8003919 132.0603990 106.4685740  39.2909992  29.1544990  86.4479997
  39.4749992  29.0724990  85.5129997  40.1399992  29.0304990  86.8719997
  39.4310259  29.1264915  86.3771771 126.1679992 130.7844990 107.4049997
 125.2639992 130.9494990 107.1389997 126.5969992 131.6374990 107.3389997
 126.1022017 130.9224184 107.3596495 128.7719992 132.3544990 107.6999997
 128.5909992 133.2704990 107.4889997 128.9489992 131.9434990 106.8529997
 128.7711377 132.4243365 107.5567178 116.0779992 131.0414990 105.1649997
 116.0589992 130.6154990 106.0219997 116.8819992 130.7224990 104.7559997
 116.1841393 130.9400297 105.2270155 118.2189992 129.7514990 103.8199997
 117.9999992 128.8344990 103.9889997 119.0429992 129.8914990 104.2859997
 118.3004637 129.6449586 103.9061414 120.7559992 130.2214990 104.6679997
 120.9689992 129.3334990 104.3809997 120.8209992 130.1864990 105.6229997
 120.7939075 130.0953318 104.7577355 124.2649992 115.8854990 103.8129997
 123.5899992 115.2554990 104.0679997 124.8289992 115.4014990 103.2099997
 124.2489558 115.7339283 103.7663451 129.4069992 113.9924990 103.9249997
 130.0109992 114.5404990 103.4239997 128.5379992 114.3114990 103.6849997
 129.3721126 114.1107070 103.8239180 131.1339992 115.1314990 102.2589997
 131.7459992 114.6174990 101.7319997 131.5169992 116.0084990 102.2819997
 131.2693867 115.1797613 102.1900888 116.5909992 114.5194990 101.6349997
 115.8139992 114.2844990 101.1269997 117.1219992 113.7224990 101.6439997
 116.5564443 114.3796721 101.5667200 115.4279992 114.3174990  97.4379997
 115.8669992 114.9284990  96.8469997 114.7939992 114.8554990  97.9119997
 115.4024103 114.4739233  97.4211376  55.1119992  29.0464990  92.0769997
  55.6949992  28.3114990  92.2679997  55.6759992  29.8184990  92.1229997
  55.2680326  29.0502746  92.1093579 121.1709992 114.4454990 101.4479997
 122.0449992 114.8344990 101.4179997 121.0349992 114.2304990 102.3709997
 121.2723125 114.4697120 101.5686523 126.7269992 114.4754990 103.0969997
 126.8039992 114.5714990 102.1479997 126.4519992 113.5684990 103.2259997
 126.7003407 114.3659188 102.9843532 128.0809992 114.5014990  98.7899997
 127.3779992 115.1164990  98.5799997 127.6359992 113.6644990  98.9209997
 127.9246550 114.4724679  98.7789819 115.3289992 130.2654990  98.3359997
 114.6439992 130.2274990  97.6679997 115.3319992 131.1774990  98.6239997
 115.2357358 130.3836744  98.2836145 117.2889992 116.2334990  95.8809997
 117.7799992 115.6034990  95.3529997 117.9119992 116.5294990  96.5439997
 117.4405459 116.1872419  95.8983667 122.3149992 116.5264990  98.3379997
 122.4929992 115.8794990  99.0209997 122.2609992 117.3604990  98.8049997
 122.3320678 116.5506615  98.4946283 124.1929992 131.4744990  96.7329997
 125.0589992 131.8414990  96.5549997 123.9459992 131.0354990  95.9199997
 124.2782041 131.4653648  96.5985958 130.9019992 131.0374990  99.4129997
 130.7079992 130.2894990  98.8479997 130.8629992 131.7954990  98.8289997
 130.8701907 131.0375770  99.2568077 117.1469992 131.1854990  95.3609997
 116.8789992 131.4714990  96.2339997 117.9179992 130.6394990  95.5129997
 117.2145600 131.1508341  95.5011482 135.8269992 122.5444990 106.6049997
 135.8679992 121.9194990 107.3289997 136.5299992 123.1684990 106.7869997
 135.9276054 122.5433262 106.7286311  56.6089992  26.9494990  92.7609997
  55.7449992  26.5704990  92.5959997  57.2129992  26.2104990  92.6869997
  56.5724912  26.7977937  92.7284360 136.7509992 126.9944990 105.1399997
 136.3809992 126.1924990 104.7709997 137.6919992 126.8264990 105.1869997
 136.8275630 126.8618680 105.0957873 133.3609992 120.6544990 100.5329997
 132.9129992 121.5004990 100.5149997 132.7999992 120.0754990 100.0179997
 133.2238546 120.6919004 100.4608874 134.0709992 122.8164990 102.6589997
 134.2849992 122.0464990 103.1859997 134.8089992 122.9064990 102.0559997
 134.2000073 122.7233546 102.6495786 138.1439992 117.8584990 103.0179997
 138.1869992 118.7184990 102.5999997 137.6859992 117.3054990 102.3849997
 138.0879613 117.9015689 102.8751276 134.7639992 120.2554990 103.7799997
 135.4179992 119.7054990 104.2119997 134.7879992 119.9814990 102.8639997
 134.8567022 120.1432005 103.7151698 136.9539992 116.7764990 107.0919997
 136.7349992 117.3064990 106.3259997 136.2859992 117.0024990 107.7399997
 136.8337271 116.8796508 107.0746206 139.5229992 124.4514990 107.3799997
 138.7829992 125.0504990 107.4829997 140.2369992 125.0054990 107.0639997
 139.5183288 124.6082368 107.3513787 136.5479992 118.6684990 105.0449997
 137.1609992 119.3014990 105.4179997 137.0599992 118.1964990 104.3879997
 136.7011680 118.6914006 105.0072830 137.9299992 126.4164990 108.1669997
 137.9249992 127.2954990 107.7889997 137.0769992 126.3324990 108.5919997
 137.8139199 126.5255901 108.1726942 134.0519992 126.0874990  98.9489997
 133.7799992 126.3164990  98.0599997 134.0969992 126.9244990  99.4089997
 134.0208709 126.2321069  98.8896089  53.9659992  24.6584990  80.8999997
  54.2459992  23.7514990  81.0249997  54.7249992  25.0924990  80.5109997
  54.1069471  24.5930654  80.8645052 138.2979992 123.7594990 101.8799997
 137.9679992 123.3884990 101.0609997 138.8859992 123.0884990 102.2259997
 138.3324056 123.6181257 101.8149035 138.6649992 122.5274990 105.5129997
 139.2299992 122.6494990 104.7499997 138.9829992 123.1654990 106.1519997
 138.7853430 122.6304448 105.4949094 136.4649992 123.1254990 109.4589997
 136.5349992 123.7764990 110.1569997 135.5739992 123.2284990 109.1239997
 136.3541802 123.2284769 109.5092231 137.2879992 122.8284990  99.4689997
 136.9959992 123.5964990  98.9779997 136.6139992 122.1694990  99.3059997
 137.1568843 122.8444537  99.3797695 133.3809992 125.1914990 108.2839997
 132.8799992 125.1634990 107.4689997 133.3869992 124.2864990 108.5939997
 133.3131690 125.0652234 108.2142770 133.1319992 127.9724990 105.1679997
 134.0779992 127.8274990 105.1489997 133.0189992 128.7564990 105.7049997
 133.2463578 128.0586708 105.2380300 136.3759992 130.7734990 101.3129997
 136.5279992 130.4254990 102.1919997 135.5249992 130.4164990 101.0579997
 136.2817899 130.6776749 101.3987322 135.6299992 126.5154990 109.3269997
 135.8459992 126.1534990 110.1869997 134.7749992 126.1404990 109.1169997
 135.5439349 126.4152914 109.4162134 138.2489992 114.9854990 105.3229997
 137.3869992 114.8984990 104.9149997 138.2269992 115.8414990 105.7499997
 138.1280953 115.0893558 105.3249262 138.3399992 119.9504990 106.4179997
 137.6979992 119.9104990 107.1269997 138.3769992 120.8774990 106.1799997
 138.2571659 120.0702540 106.4828463  54.5779992  25.2404990  86.3359997
  55.5109992  25.4524990  86.3019997  54.3429992  25.3414990  87.2589997
  54.6738357  25.2831303  86.4560232 138.3369992 120.1714990 101.3299997
 137.4439992 119.8314990 101.2709997 138.7879992 119.7944990 100.5739997
 138.2757185 120.0740220 101.2197698 136.0899992 120.2714990 108.2849997
 136.0519992 120.6714990 109.1529997 135.5989992 119.4544990 108.3749997
 136.0184246 120.2158842 108.4161171 139.4559992 117.6454990  95.0829997
 139.0249992 117.2004990  95.8129997 138.7379992 118.0164990  94.5709997
 139.2999363 117.6347979  95.1136194 132.6979992 117.3874990 102.1349997
 133.3289992 117.3584990 102.8549997 133.1479992 116.9624990 101.4049997
 132.8450905 117.3260839 102.1347479 133.9719992 118.1334990  97.5589997
 134.4469992 118.7244990  96.9739997 133.2549992 118.6634990  97.9059997
 133.9400406 118.2861011  97.5258495 135.7469992 119.2284990 101.2429997
 134.8579992 119.3274990 100.9029997 136.0429992 118.3864990 100.8969997
 135.6654001 119.1282473 101.1497318 139.3999992 119.2284990  98.8989997
 140.3319992 119.3574990  99.0769997 139.1849992 119.8974990  98.2499997
 139.4984245 119.3366452  98.8355602 138.0739992 120.4224990  96.4659997
 137.5319992 120.0434990  95.7749997 138.9079992 120.6174990  96.0369997
 138.1124283 120.3969383  96.3134298 137.2409992 116.5234990 100.7209997
 136.9229992 115.6204990 100.6859997 138.0219992 116.5254990 100.1689997
 137.3031560 116.4001148 100.6414975 136.5339992 124.2834990 104.1709997
 137.2789992 124.2804990 103.5699997 136.6119992 123.4594990 104.6529997
 136.6464158 124.1717928 104.1539136  54.6069992  25.9774990  89.1119997
  53.7639992  26.2454990  89.4779997  55.0499992  26.7994990  88.9009997
  54.5514358  26.1253294  89.1335999 133.5419992 122.7434990 109.4859997
 133.7649992 122.3254990 110.3179997 132.9399992 122.1314990 109.0639997
 133.4910802 122.6035216 109.5427561 138.9089992 127.8014990 101.5759997
 139.4359992 128.5744990 101.3749997 138.0289992 128.0254990 101.2739997
 138.8621793 127.9376652 101.5076304 134.6639992 122.6634990  96.1629997
 135.2799992 123.2904990  96.5419997 133.8019992 122.9794990  96.4339997
 134.6318195 122.7920810  96.2515369 139.0189992 130.4854990 100.6969997
 138.0699992 130.5914990 100.7489997 139.3709992 131.3064990 101.0419997
 138.9366214 130.6109361 100.7507317 135.1759992 117.4974990 109.0439997
 134.2829992 117.8354990 108.9769997 135.0769992 116.6414990 109.4619997
 135.0405241 117.4280941 109.0912982 134.8269992 129.3014990 107.4789997
 135.0439992 128.3694990 107.4479997 135.0739992 129.5764990 108.3629997
 134.8900543 129.2110877 107.5941412 136.0789992 124.5754990  97.6549997
 135.3929992 124.9284990  98.2219997 136.6019992 125.3384990  97.4089997
 136.0559033 124.7268757  97.6992644 138.4359992 116.7624990  97.4919997
 138.3529992 117.6504990  97.8379997 139.3259992 116.4974990  97.7229997
 138.5449751 116.8482482  97.5706066 136.6949992 127.1894990  96.5519997
 137.2869992 127.8894990  96.8279997 137.1539992 126.7564990  95.8329997
 136.8381172 127.2267371  96.4925163 135.0109992 119.8544990  95.6679997
 134.9659992 120.7934990  95.8469997 134.1229992 119.6184990  95.3979997
 134.8848472 119.9511946  95.6560282  38.8879992  24.4244990  92.5889997
  39.8079992  24.3024990  92.8249997  38.4389992  23.6744990  92.9779997
  38.9531561  24.3063720  92.6739015 135.8189992 114.6354990 104.3409997
 135.5899992 114.6944990 103.4139997 135.3759992 113.8444990 104.6479997
 135.7277387 114.5366412 104.2555223 134.7489992 128.5764990 100.5019997
 133.9169992 129.0484990 100.5289997 135.2949992 129.0864990  99.9029997
 134.7088710 128.7100317 100.4247570 138.2859992 125.3424990  94.9179997
 138.3499992 124.5484990  95.4489997 138.9389992 125.2244990  94.2289997
 138.3831168 125.2177748  94.8975119 139.4349992 123.3154990  97.2239997
 138.9759992 122.8314990  97.9099997 139.6899992 122.6464990  96.5879997
 139.4066178 123.1588511  97.2319785 138.7239992 121.2084990 109.5799997
 138.1059992 121.8824990 109.8609997 139.0679992 121.5294990 108.7469997
 138.6858181 121.3443233 109.5058266 139.4759992 116.9324990 108.1549997
 140.0119992 117.3844990 107.5029997 138.6239992 116.8244990 107.7329997
 139.4341648 116.9797883 108.0086395 133.9719992 126.8854990  95.9709997
 134.8859992 126.9644990  96.2439997 133.9789992 126.1984990  95.3039997
 134.0980769 126.8034735  95.9182366 132.6209992 132.2784990 101.0479997
 131.9739992 131.8164990 100.5149997 132.9759992 131.6064990 101.6309997
 132.5803861 132.1244707 101.0537939 133.4909992 130.3584990 102.8529997
 133.1569992 129.4784990 103.0249997 133.7129992 130.7044990 103.7169997
 133.4752677 130.2847366 102.9934252 133.5709992 123.4344990 105.3039997
 133.7549992 123.3524990 104.3689997 134.4199992 123.3104990 105.7279997
 133.7110259 123.4064915 105.2331771  56.8899992  19.9574990  94.4659997
  57.2399992  19.3034990  93.8599997  57.0369992  20.7944990  94.0259997
  56.9577192  19.9812545  94.3236712 134.3899992 117.0174990 104.3359997
 134.8349992 116.2254990 104.6379997 134.8559992 117.7334990 104.7669997
 134.5139059 117.0059485 104.4356061 132.6939992 120.0164990 105.4049997
 133.1859992 119.7954990 104.6149997 133.0559992 120.8564990 105.6859997
 132.8103429 120.0998220 105.3347918 133.0069992 116.2744990  99.4599997
 132.0819992 116.4824990  99.3299997 133.4609992 116.7584990  98.7699997
 132.9417401 116.3683895  99.3489433 132.9709992 115.0124990 107.8039997
 132.3059992 114.7664990 108.4469997 132.5279992 115.6344990 107.2269997
 132.8201168 115.0629225 107.8139830 138.1169992 129.1614990 108.2069997
 137.6919992 129.9714990 107.9239997 139.0209992 129.2474990 107.9049997
 138.1811002 129.2838728 108.1274798 135.5189992 132.4184990 108.2539997
 134.7979992 132.8584990 107.8029997 135.1529992 132.1674990 109.1029997
 135.3709785 132.4447691 108.3069849 137.9859992 132.0184990 107.2839997
 137.1209992 132.0904990 107.6879997 137.9309992 132.5654990 106.4999997
 137.8602066 132.1022678 107.2333371 134.9339992 131.0414990 105.1649997
 134.9149992 130.6154990 106.0219997 135.7379992 130.7224990 104.7559997
 135.0401393 130.9400297 105.2270155 137.0749992 129.7514990 103.8199997
 136.8559992 128.8344990 103.9889997 137.8989992 129.8914990 104.2859997
 137.1564637 129.6449586 103.9061414 135.4469992 114.5194990 101.6349997
 134.6699992 114.2844990 101.1269997 135.9779992 113.7224990 101.6439997
 135.4124443 114.3796721 101.5667200  54.5799992  21.9214990  80.9489997
  54.7619992  21.4724990  81.7739997  53.9799992  21.3374990  80.4849997
  54.5238187  21.7810563  80.9992721 134.2839992 114.3174990  97.4379997
 134.7229992 114.9284990  96.8469997 133.6499992 114.8554990  97.9119997
 134.2584103 114.4739233  97.4211376 134.1849992 130.2654990  98.3359997
 133.4999992 130.2274990  97.6679997 134.1879992 131.1774990  98.6239997
 134.0917358 130.3836744  98.2836145 136.1449992 116.2334990  95.8809997
 136.6359992 115.6034990  95.3529997 136.7679992 116.5294990  96.5439997
 136.2965459 116.1872419  95.8983667 136.0029992 131.1854990  95.3609997
 135.7349992 131.4714990  96.2339997 136.7739992 130.6394990  95.5129997
 136.0705600 131.1508341  95.5011482  18.5189992 135.8204990 106.2789997
  18.5679992 136.4304990 107.0149997  18.9449992 136.2814990 105.5559997
  18.5832851 135.9663266 106.2820532  12.9969992 138.6124990 105.7459997
  13.1389992 137.6664990 105.7659997  12.8909992 138.8194990 104.8169997
  13.0021158 138.5109722 105.6232241   6.1519992 136.7144990 103.0179997
   6.1949992 137.5744990 102.5999997   5.6939992 136.1614990 102.3849997
   6.0959613 136.7575689 102.8751276  13.8739992 136.8454990 101.4189997
  14.5199992 136.5164990 102.0439997  14.3839992 137.3624990 100.7959997
  14.0314392 136.8703710 101.4203248   2.7719992 139.1114990 103.7799997
   3.4259992 138.5614990 104.2119997   2.7959992 138.8374990 102.8639997
   2.8647022 138.9992005 103.7151698  18.9109992 137.2984990 108.5149997
  18.2219992 137.9564990 108.4199997  18.9259992 137.1004990 109.4519997
  18.8187756 137.3617614 108.6285795  40.1099992  22.7374990  85.4799997
  40.5549992  21.9454990  85.7819997  40.5759992  23.4534990  85.9109997
  40.2339059  22.7259485  85.5796061   4.9619992 135.6324990 107.0919997
   4.7429992 136.1624990 106.3259997   4.2939992 135.8584990 107.7399997
   4.8417271 135.7356508 107.0746206  15.6379992 136.1364990 103.3999997
  15.4229992 135.3704990 103.9319997  16.2939992 136.6084990 103.9129997
  15.6972451 136.0954472 103.5421699   4.5559992 137.5244990 105.0449997
   5.1689992 138.1574990 105.4179997   5.0679992 137.0524990 104.3879997
   4.7091680 137.5474006 105.0072830  15.9849992 134.8514990 107.0789997
  15.2489992 135.4614990 107.0409997  16.6689992 135.2664990 106.5529997
  15.9765885 134.9911924 107.0026931   8.9879992 132.9374990 104.5449997
   8.8709992 131.9894990 104.4909997   8.1329992 133.2704990 104.8179997
   8.8563691 132.8525842 104.5745072  17.2299992 132.8974990  97.4949997
  16.3299992 133.0354990  97.7899997  17.4819992 133.7284990  97.0929997
  17.1407355 133.0288200  97.4810539   6.2569992 133.8414990 105.3229997
   5.3949992 133.7544990 104.9149997   6.2349992 134.6974990 105.7499997
   6.1360953 133.9453558 105.3249262  10.9199992 133.5634990 108.6969997
  11.3399992 133.1484990 109.4499997   9.9869992 133.3844990 108.8139997
  10.8513736 133.4824921 108.8158950  14.2459992 137.3184990 109.5509997
  13.7319992 137.1934990 110.3479997  14.0909992 138.2314990 109.3059997
  14.1546643 137.4247068 109.6270624  10.5819992 136.0554990  95.9819997
  10.3279992 136.0744990  96.9049997  10.3249992 135.1844990  95.6809997
  10.5125133 135.9403121  96.0675065  38.4139992  25.7364990  86.5489997
  38.9059992  25.5154990  85.7589997  38.7759992  26.5764990  86.8299997
  38.5303429  25.8198220  86.4787918   6.3479992 138.8064990 106.4179997
   5.7059992 138.7664990 107.1269997   6.3849992 139.7334990 106.1799997
   6.2651659 138.9262540 106.4828463   6.3449992 139.0274990 101.3299997
   5.4519992 138.6874990 101.2709997   6.7959992 138.6504990 100.5739997
   6.2837185 138.9300220 101.2197698  11.8809992 139.4434990 100.1469997
  11.4719992 140.2584990  99.8549997  12.6009992 139.3034990  99.5319997
  11.9223946 139.5359963 100.0239616  12.8849992 138.8894990 102.9609997
  12.6899992 139.4954990 102.2459997  13.0669992 138.0564990 102.5259997
  12.8829272 138.8597955 102.8044075   4.0979992 139.1274990 108.2849997
   4.0599992 139.5274990 109.1529997   3.6069992 138.3104990 108.3749997
   4.0264246 139.0718842 108.4161171   7.4639992 136.5014990  95.0829997
   7.0329992 136.0564990  95.8129997   6.7459992 136.8724990  94.5709997
   7.3079363 136.4907979  95.1136194   0.7059992 136.2434990 102.1349997
   1.3369992 136.2144990 102.8549997   1.1559992 135.8184990 101.4049997
   0.8530905 136.1820839 102.1347479   1.9799992 136.9894990  97.5589997
   2.4549992 137.5804990  96.9739997   1.2629992 137.5194990  97.9059997
   1.9480406 137.1421011  97.5258495   8.9269992 136.4554990 102.4159997
   8.0159992 136.5124990 102.7049997   9.4319992 136.3954990 103.2269997
   8.8706873 136.4551838 102.5651190   3.7549992 138.0844990 101.2429997
   2.8659992 138.1834990 100.9029997   4.0509992 137.2424990 100.8969997
   3.6734001 137.9842473 101.1497318  56.4099992  22.0664990  92.8149997
  55.4929992  22.3374990  92.7789997  56.5329992  21.5314990  92.0309997
  56.3010828  22.0312711  92.7040767   7.4079992 138.0844990  98.8989997
   8.3399992 138.2134990  99.0769997   7.1929992 138.7534990  98.2499997
   7.5064245 138.1926452  98.8355602  13.3319992 135.6904990 105.6799997
  12.6549992 135.8214990 106.3439997  12.8459992 135.5354990 104.8699997
  13.1737265 135.6874665 105.6613380   6.0819992 139.2784990  96.4659997
   5.5399992 138.8994990  95.7749997   6.9159992 139.4734990  96.0369997
   6.1204283 139.2529383  96.3134298  10.2469992 139.2424990 104.3029997
  10.8109992 138.6964990 103.7559997  10.0989992 138.7214990 105.0919997
  10.3043037 139.0971798 104.3347212   5.2489992 135.3794990 100.7209997
   4.9309992 134.4764990 100.6859997   6.0299992 135.3814990 100.1689997
   5.3111560 135.2561148 100.6414975   8.8729992 137.6314990 106.7169997
   8.0379992 138.0854990 106.8269997   9.3969992 137.9074990 107.4689997
   8.8295070 137.7309677 106.8337134  13.3149992 136.6584990  96.6009997
  12.3759992 136.7694990  96.4499997  13.6119992 137.5144990  96.9069997
  13.2266371 136.7895327  96.6217362  14.0329992 138.5254990  98.2619997
  14.9249992 138.3874990  98.5809997  14.0899992 139.3164990  97.7249997
  14.1627380 138.6134777  98.2330981  18.9179992 138.7344990  97.9559997
  18.3639992 138.3384990  97.2839997  19.0189992 139.6454990  97.6789997
  18.8557084 138.8033565  97.8264381   3.1839992 136.3534990 109.0439997
   2.2909992 136.6914990 108.9769997   3.0849992 135.4974990 109.4619997
   3.0485241 136.2840941 109.0912982  56.4459992  21.9894990  77.4769997
  56.8589992  21.2684990  77.0009997  57.1279992  22.6584990  77.5349997
  56.5945712  21.9814304  77.4198247  11.9179992 136.0944990 107.9339997
  12.6169992 136.1684990 108.5839997  11.5379992 135.2294990 108.0889997
  11.9622095 135.9877402 108.0437982  12.7029992 135.7464990  99.0309997
  12.9229992 136.2174990  98.2279997  13.2609992 136.1404990  99.7019997
  12.8085851 135.8643272  99.0116134   9.9029992 137.4744990  99.8659997
  10.7149992 137.9784990  99.9119997   9.6579992 137.3294990 100.7799997
   9.9811091 137.5239366  99.9958552  10.4389992 138.4604990 109.0509997
  10.5579992 139.0344990 109.8079997  11.0939992 137.7724990 109.1659997
  10.5438684 138.4460205 109.1701656  10.7869992 134.5554990 100.8039997
  10.4399992 135.1724990 101.4489997  11.4449992 135.0564990 100.3229997
  10.8285290 134.7076384 100.8271635   6.4439992 135.6184990  97.4919997
   6.3609992 136.5064990  97.8379997   7.3339992 135.3534990  97.7229997
   6.5529751 135.7042482  97.5706066  16.6429992 136.3674990 109.8859997
  15.7269992 136.6294990 109.7979997  16.9789992 136.3644990 108.9889997
  16.5629789 136.4029637 109.7527829   3.0189992 138.7104990  95.6679997
   2.9739992 139.6494990  95.8469997   2.1309992 138.4744990  95.3979997
   2.8928472 138.8071946  95.6560282   3.8269992 133.4914990 104.3409997
   3.5979992 133.5504990 103.4139997   3.3839992 132.7004990 104.6479997
   3.7357387 133.3926412 104.2555223   7.4839992 135.7884990 108.1549997
   8.0199992 136.2404990 107.5029997   6.6319992 135.6804990 107.7329997
   7.4421648 135.8357883 108.0086395  38.7269992  21.9944990  80.6039997
  37.8019992  22.2024990  80.4739997  39.1809992  22.4784990  79.9139997
  38.6617401  22.0883895  80.4929433   8.2899992 133.2454990 108.5869997
   8.1919992 134.1914990 108.4809997   7.5469992 132.8724990 108.1109997
   8.1762363 133.3245987 108.5082029  17.3739992 138.8314990  95.6729997
  17.4709992 139.4984990  94.9929997  17.2339992 138.0164990  95.1909997
  17.3683428 138.8125667  95.5148311  16.6219992 136.2394990  94.7899997
  17.2319992 135.8684990  95.4269997  15.7849992 135.8184990  94.9859997
  16.5923704 136.1317942  94.9037077  16.2539992 137.7944990  99.7559997
  16.5339992 136.8874990  99.8809997  17.0129992 138.2284990  99.3669997
  16.3949471 137.7290654  99.7205052  16.8659992 138.3764990 105.1919997
  17.7989992 138.5884990 105.1579997  16.6309992 138.4774990 106.1149997
  16.9618357 138.4191303 105.3120232  16.8949992 139.1134990 107.9679997
  16.0519992 139.3814990 108.3339997  17.3379992 139.9354990 107.7569997
  16.8394358 139.2613294 107.9895999  16.8679992 135.0574990  99.8049997
  17.0499992 134.6084990 100.6299997  16.2679992 134.4734990  99.3409997
  16.8118187 134.9170563  99.8552721   2.3979992 135.8734990 104.3359997
   2.8429992 135.0814990 104.6379997   2.8639992 136.5894990 104.7669997
   2.5219059 135.8619485 104.4356061   0.7019992 138.8724990 105.4049997
   1.1939992 138.6514990 104.6149997   1.0639992 139.7124990 105.6859997
   0.8183429 138.9558220 105.3347918  18.7339992 135.1254990  96.3329997
  19.1469992 134.4044990  95.8569997  19.4159992 135.7944990  96.3909997
  18.8825712 135.1174304  96.2758247  53.4979992  36.9784990  82.5489997
  54.1499992  36.6304990  81.9409997  54.0089992  37.4664990  83.1949997
  53.6562872  36.9968248  82.5530964   1.0149992 135.1304990  99.4599997
   0.0899992 135.3384990  99.3299997   1.4689992 135.6144990  98.7699997
   0.9497401 135.2243895  99.3489433   0.9789992 133.8684990 107.8039997
   0.3139992 133.6224990 108.4469997   0.5359992 134.4904990 107.2269997
   0.8281168 133.9189225 107.8139830  17.6989992 133.2924990 109.4899997
  16.8859992 133.6174990 109.1019997  17.9319992 132.5314990 108.9569997
  17.6192566 133.2341570 109.3649196  11.1289992 134.7414990 103.8129997
  10.4539992 134.1114990 104.0679997  11.6929992 134.2574990 103.2099997
  11.1129558 134.5899283 103.7663451  16.2709992 132.8484990 103.9249997
  16.8749992 133.3964990 103.4239997  15.4019992 133.1674990 103.6849997
  16.2361126 132.9667070 103.8239180  17.9979992 133.9874990 102.2589997
  18.6099992 133.4734990 101.7319997  18.3809992 134.8644990 102.2819997
  18.1333867 134.0357613 102.1900888   3.4549992 133.3754990 101.6349997
   2.6779992 133.1404990 101.1269997   3.9859992 132.5784990 101.6439997
   3.4204443 133.2356721 101.5667200   2.2919992 133.1734990  97.4379997
   2.7309992 133.7844990  96.8469997   1.6579992 133.7114990  97.9119997
   2.2664103 133.3299233  97.4211376   8.0349992 133.3014990 101.4479997
   8.9089992 133.6904990 101.4179997   7.8989992 133.0864990 102.3709997
   8.1363125 133.3257120 101.5686523  13.5909992 133.3314990 103.0969997
  13.6679992 133.4274990 102.1479997  13.3159992 132.4244990 103.2259997
  13.5643407 133.2219188 102.9843532  38.6909992  20.7324990  88.9479997
  38.0259992  20.4864990  89.5909997  38.2479992  21.3544990  88.3709997
  38.5401168  20.7829225  88.9579830  14.9449992 133.3574990  98.7899997
  14.2419992 133.9724990  98.5799997  14.4999992 132.5204990  98.9209997
  14.7886550 133.3284679  98.7789819   4.1529992 135.0894990  95.8809997
   4.6439992 134.4594990  95.3529997   4.7759992 135.3854990  96.5439997
   4.3045459 135.0432419  95.8983667   9.1789992 135.3824990  98.3379997
   9.3569992 134.7354990  99.0209997   9.1249992 136.2164990  98.8049997
   9.1960678 135.4066615  98.4946283  37.3749992 135.8204990 106.2789997
  37.4239992 136.4304990 107.0149997  37.8009992 136.2814990 105.5559997
  37.4392851 135.9663266 106.2820532  31.8529992 138.6124990 105.7459997
  31.9949992 137.6664990 105.7659997  31.7469992 138.8194990 104.8169997
  31.8581158 138.5109722 105.6232241  25.0079992 136.7144990 103.0179997
  25.0509992 137.5744990 102.5999997  24.5499992 136.1614990 102.3849997
  24.9519613 136.7575689 102.8751276  32.7299992 136.8454990 101.4189997
  33.3759992 136.5164990 102.0439997  33.2399992 137.3624990 100.7959997
  32.8874392 136.8703710 101.4203248  21.6279992 139.1114990 103.7799997
  22.2819992 138.5614990 104.2119997  21.6519992 138.8374990 102.8639997
  21.7207022 138.9992005 103.7151698  37.7669992 137.2984990 108.5149997
  37.0779992 137.9564990 108.4199997  37.7819992 137.1004990 109.4519997
  37.6747756 137.3617614 108.6285795  23.8179992 135.6324990 107.0919997
  23.5989992 136.1624990 106.3259997  23.1499992 135.8584990 107.7399997
  23.6977271 135.7356508 107.0746206  40.8829992  33.9074990  93.0919997
  40.0619992  34.0824990  92.6319997  40.6309992  33.8344990  94.0129997
  40.7366173  33.9215806  93.1534954  34.4939992 136.1364990 103.3999997
  34.2789992 135.3704990 103.9319997  35.1499992 136.6084990 103.9129997
  34.5532451 136.0954472 103.5421699  23.4119992 137.5244990 105.0449997
  24.0249992 138.1574990 105.4179997  23.9239992 137.0524990 104.3879997
  23.5651680 137.5474006 105.0072830  34.8409992 134.8514990 107.0789997
  34.1049992 135.4614990 107.0409997  35.5249992 135.2664990 106.5529997
  34.8325885 134.9911924 107.0026931  27.8439992 132.9374990 104.5449997
  27.7269992 131.9894990 104.4909997  26.9889992 133.2704990 104.8179997
  27.7123691 132.8525842 104.5745072  36.0859992 132.8974990  97.4949997
  35.1859992 133.0354990  97.7899997  36.3379992 133.7284990  97.0929997
  35.9967355 133.0288200  97.4810539  25.1129992 133.8414990 105.3229997
  24.2509992 133.7544990 104.9149997  25.0909992 134.6974990 105.7499997
  24.9920953 133.9453558 105.3249262  29.7759992 133.5634990 108.6969997
  30.1959992 133.1484990 109.4499997  28.8429992 133.3844990 108.8139997
  29.7073736 133.4824921 108.8158950  33.1019992 137.3184990 109.5509997
  32.5879992 137.1934990 110.3479997  32.9469992 138.2314990 109.3059997
  33.0106643 137.4247068 109.6270624  29.4379992 136.0554990  95.9819997
  29.1839992 136.0744990  96.9049997  29.1809992 135.1844990  95.6809997
  29.3685133 135.9403121  96.0675065  25.2039992 138.8064990 106.4179997
  24.5619992 138.7664990 107.1269997  25.2409992 139.7334990 106.1799997
  25.1211659 138.9262540 106.4828463  43.8369992  34.8814990  89.3509997
  43.4119992  35.6914990  89.0679997  44.7409992  34.9674990  89.0489997
  43.9011002  35.0038728  89.2714798  25.2009992 139.0274990 101.3299997
  24.3079992 138.6874990 101.2709997  25.6519992 138.6504990 100.5739997
  25.1397185 138.9300220 101.2197698  30.7369992 139.4434990 100.1469997
  30.3279992 140.2584990  99.8549997  31.4569992 139.3034990  99.5319997
  30.7783946 139.5359963 100.0239616  31.7409992 138.8894990 102.9609997
  31.5459992 139.4954990 102.2459997  31.9229992 138.0564990 102.5259997
  31.7389272 138.8597955 102.8044075  22.9539992 139.1274990 108.2849997
  22.9159992 139.5274990 109.1529997  22.4629992 138.3104990 108.3749997
  22.8824246 139.0718842 108.4161171  26.3199992 136.5014990  95.0829997
  25.8889992 136.0564990  95.8129997  25.6019992 136.8724990  94.5709997
  26.1639363 136.4907979  95.1136194  19.5619992 136.2434990 102.1349997
  20.1929992 136.2144990 102.8549997  20.0119992 135.8184990 101.4049997
  19.7090905 136.1820839 102.1347479  20.8359992 136.9894990  97.5589997
  21.3109992 137.5804990  96.9739997  20.1189992 137.5194990  97.9059997
  20.8040406 137.1421011  97.5258495  27.7829992 136.4554990 102.4159997
  26.8719992 136.5124990 102.7049997  28.2879992 136.3954990 103.2269997
  27.7266873 136.4551838 102.5651190  22.6109992 138.0844990 101.2429997
  21.7219992 138.1834990 100.9029997  22.9069992 137.2424990 100.8969997
  22.5294001 137.9842473 101.1497318  26.2639992 138.0844990  98.8989997
  27.1959992 138.2134990  99.0769997  26.0489992 138.7534990  98.2499997
  26.3624245 138.1926452  98.8355602  48.1479992  36.2804990  92.3099997
  48.3329992  35.9474990  93.1879997  48.9949992  36.5904990  91.9879997
  48.2877291  36.2768214  92.3866140  32.1879992 135.6904990 105.6799997
  31.5109992 135.8214990 106.3439997  31.7019992 135.5354990 104.8699997
  32.0297265 135.6874665 105.6613380  24.9379992 139.2784990  96.4659997
  24.3959992 138.8994990  95.7749997  25.7719992 139.4734990  96.0369997
  24.9764283 139.2529383  96.3134298  29.1029992 139.2424990 104.3029997
  29.6669992 138.6964990 103.7559997  28.9549992 138.7214990 105.0919997
  29.1603037 139.0971798 104.3347212  24.1049992 135.3794990 100.7209997
  23.7869992 134.4764990 100.6859997  24.8859992 135.3814990 100.1689997
  24.1671560 135.2561148 100.6414975  27.7289992 137.6314990 106.7169997
  26.8939992 138.0854990 106.8269997  28.2529992 137.9074990 107.4689997
  27.6855070 137.7309677 106.8337134  32.1709992 136.6584990  96.6009997
  31.2319992 136.7694990  96.4499997  32.4679992 137.5144990  96.9069997
  32.0826371 136.7895327  96.6217362  32.8889992 138.5254990  98.2619997
  33.7809992 138.3874990  98.5809997  32.9459992 139.3164990  97.7249997
  33.0187380 138.6134777  98.2330981  37.7739992 138.7344990  97.9559997
  37.2199992 138.3384990  97.2839997  37.8749992 139.6454990  97.6789997
  37.7117084 138.8033565  97.8264381  22.0399992 136.3534990 109.0439997
  21.1469992 136.6914990 108.9769997  21.9409992 135.4974990 109.4619997
  21.9045241 136.2840941 109.0912982  30.7739992 136.0944990 107.9339997
  31.4729992 136.1684990 108.5839997  30.3939992 135.2294990 108.0889997
  30.8182095 135.9877402 108.0437982  50.4929992  37.5664990  91.5539997
  51.1699992  36.9334990  91.3139997  50.8149992  37.9674990  92.3619997
  50.6291280  37.5340638  91.6303190  31.5589992 135.7464990  99.0309997
  31.7789992 136.2174990  98.2279997  32.1169992 136.1404990  99.7019997
  31.6645851 135.8643272  99.0116134  28.7589992 137.4744990  99.8659997
  29.5709992 137.9784990  99.9119997  28.5139992 137.3294990 100.7799997
  28.8371091 137.5239366  99.9958552  29.2949992 138.4604990 109.0509997
  29.4139992 139.0344990 109.8079997  29.9499992 137.7724990 109.1659997
  29.3998684 138.4460205 109.1701656  29.6429992 134.5554990 100.8039997
  29.2959992 135.1724990 101.4489997  30.3009992 135.0564990 100.3229997
  29.6845290 134.7076384 100.8271635  25.2999992 135.6184990  97.4919997
  25.2169992 136.5064990  97.8379997  26.1899992 135.3534990  97.7229997
  25.4089751 135.7042482  97.5706066  35.4989992 136.3674990 109.8859997
  34.5829992 136.6294990 109.7979997  35.8349992 136.3644990 108.9889997
  35.4189789 136.4029637 109.7527829  21.8749992 138.7104990  95.6679997
  21.8299992 139.6494990  95.8469997  20.9869992 138.4744990  95.3979997
  21.7488472 138.8071946  95.6560282  22.6829992 133.4914990 104.3409997
  22.4539992 133.5504990 103.4139997  22.2399992 132.7004990 104.6479997
  22.5917387 133.3926412 104.2555223  26.3399992 135.7884990 108.1549997
  26.8759992 136.2404990 107.5029997  25.4879992 135.6804990 107.7329997
  26.2981648 135.8357883 108.0086395  27.1459992 133.2454990 108.5869997
  27.0479992 134.1914990 108.4809997  26.4029992 132.8724990 108.1109997
  27.0322363 133.3245987 108.5082029  55.4109992  20.1564990  90.6339997
  54.5979992  20.4814990  90.2459997  55.6439992  19.3954990  90.1009997
  55.3312566  20.0981570  90.5089196  36.2299992 138.8314990  95.6729997
  36.3269992 139.4984990  94.9929997  36.0899992 138.0164990  95.1909997
  36.2243428 138.8125667  95.5148311  35.4779992 136.2394990  94.7899997
  36.0879992 135.8684990  95.4269997  34.6409992 135.8184990  94.9859997
  35.4483704 136.1317942  94.9037077  35.1099992 137.7944990  99.7559997
  35.3899992 136.8874990  99.8809997  35.8689992 138.2284990  99.3669997
  35.2509471 137.7290654  99.7205052  35.7219992 138.3764990 105.1919997
  36.6549992 138.5884990 105.1579997  35.4869992 138.4774990 106.1149997
  35.8178357 138.4191303 105.3120232  35.7509992 139.1134990 107.9679997
  34.9079992 139.3814990 108.3339997  36.1939992 139.9354990 107.7569997
  35.6954358 139.2613294 107.9895999  35.7239992 135.0574990  99.8049997
  35.9059992 134.6084990 100.6299997  35.1239992 134.4734990  99.3409997
  35.6678187 134.9170563  99.8552721  21.2539992 135.8734990 104.3359997
  21.6989992 135.0814990 104.6379997  21.7199992 136.5894990 104.7669997
  21.3779059 135.8619485 104.4356061  19.5579992 138.8724990 105.4049997
  20.0499992 138.6514990 104.6149997  19.9199992 139.7124990 105.6859997
  19.6743429 138.9558220 105.3347918  37.5899992 135.1254990  96.3329997
  38.0029992 134.4044990  95.8569997  38.2719992 135.7944990  96.3909997
  37.7385712 135.1174304  96.2758247  19.8709992 135.1304990  99.4599997
  18.9459992 135.3384990  99.3299997  20.3249992 135.6144990  98.7699997
  19.8057401 135.2243895  99.3489433  41.2389992  38.1384990  89.3979997
  40.5179992  38.5784990  88.9469997  40.8729992  37.8874990  90.2469997
  41.0909785  38.1647691  89.4509849  19.8349992 133.8684990 107.8039997
  19.1699992 133.6224990 108.4469997  19.3919992 134.4904990 107.2269997
  19.6841168 133.9189225 107.8139830  36.5549992 133.2924990 109.4899997
  35.7419992 133.6174990 109.1019997  36.7879992 132.5314990 108.9569997
  36.4752566 133.2341570 109.3649196  29.9849992 134.7414990 103.8129997
  29.3099992 134.1114990 104.0679997  30.5489992 134.2574990 103.2099997
  29.9689558 134.5899283 103.7663451  35.1269992 132.8484990 103.9249997
  35.7309992 133.3964990 103.4239997  34.2579992 133.1674990 103.6849997
  35.0921126 132.9667070 103.8239180  36.8539992 133.9874990 102.2589997
  37.4659992 133.4734990 101.7319997  37.2369992 134.8644990 102.2819997
  36.9893867 134.0357613 102.1900888  22.3109992 133.3754990 101.6349997
  21.5339992 133.1404990 101.1269997  22.8419992 132.5784990 101.6439997
  22.2764443 133.2356721 101.5667200  21.1479992 133.1734990  97.4379997
  21.5869992 133.7844990  96.8469997  20.5139992 133.7114990  97.9119997
  21.1224103 133.3299233  97.4211376  26.8909992 133.3014990 101.4479997
  27.7649992 133.6904990 101.4179997  26.7549992 133.0864990 102.3709997
  26.9923125 133.3257120 101.5686523  32.4469992 133.3314990 103.0969997
  32.5239992 133.4274990 102.1479997  32.1719992 132.4244990 103.2259997
  32.4203407 133.2219188 102.9843532  33.8009992 133.3574990  98.7899997
  33.0979992 133.9724990  98.5799997  33.3559992 132.5204990  98.9209997
  33.6446550 133.3284679  98.7789819  43.7059992  37.7384990  88.4279997
  42.8409992  37.8104990  88.8319997  43.6509992  38.2854990  87.6439997
  43.5802066  37.8222678  88.3773371  23.0089992 135.0894990  95.8809997
  23.4999992 134.4594990  95.3529997  23.6319992 135.3854990  96.5439997
  23.1605459 135.0432419  95.8983667  28.0349992 135.3824990  98.3379997
  28.2129992 134.7354990  99.0209997  27.9809992 136.2164990  98.8049997
  28.0520678 135.4066615  98.4946283  56.2309992 135.8204990 106.2789997
  56.2799992 136.4304990 107.0149997  56.6569992 136.2814990 105.5559997
  56.2952851 135.9663266 106.2820532  50.7089992 138.6124990 105.7459997
  50.8509992 137.6664990 105.7659997  50.6029992 138.8194990 104.8169997
  50.7141158 138.5109722 105.6232241  43.8639992 136.7144990 103.0179997
  43.9069992 137.5744990 102.5999997  43.4059992 136.1614990 102.3849997
  43.8079613 136.7575689 102.8751276  51.5859992 136.8454990 101.4189997
  52.2319992 136.5164990 102.0439997  52.0959992 137.3624990 100.7959997
  51.7434392 136.8703710 101.4203248  40.4839992 139.1114990 103.7799997
  41.1379992 138.5614990 104.2119997  40.5079992 138.8374990 102.8639997
  40.5767022 138.9992005 103.7151698  56.6229992 137.2984990 108.5149997
  55.9339992 137.9564990 108.4199997  56.6379992 137.1004990 109.4519997
  56.5307756 137.3617614 108.6285795  42.6739992 135.6324990 107.0919997
  42.4549992 136.1624990 106.3259997  42.0059992 135.8584990 107.7399997
  42.5537271 135.7356508 107.0746206  53.3499992 136.1364990 103.3999997
  53.1349992 135.3704990 103.9319997  54.0059992 136.6084990 103.9129997
  53.4092451 136.0954472 103.5421699  48.4169992  37.6264990  87.6039997
  47.9599992  38.1554990  86.9499997  48.5789992  38.2294990  88.3289997
  48.3763919  37.7803990  87.6125740  42.2679992 137.5244990 105.0449997
  42.8809992 138.1574990 105.4179997  42.7799992 137.0524990 104.3879997
  42.4211680 137.5474006 105.0072830  53.6969992 134.8514990 107.0789997
  52.9609992 135.4614990 107.0409997  54.3809992 135.2664990 106.5529997
  53.6885885 134.9911924 107.0026931  46.6999992 132.9374990 104.5449997
  46.5829992 131.9894990 104.4909997  45.8449992 133.2704990 104.8179997
  46.5683691 132.8525842 104.5745072  54.9419992 132.8974990  97.4949997
  54.0419992 133.0354990  97.7899997  55.1939992 133.7284990  97.0929997
  54.8527355 133.0288200  97.4810539  43.9689992 133.8414990 105.3229997
  43.1069992 133.7544990 104.9149997  43.9469992 134.6974990 105.7499997
  43.8480953 133.9453558 105.3249262  48.6319992 133.5634990 108.6969997
  49.0519992 133.1484990 109.4499997  47.6989992 133.3844990 108.8139997
  48.5633736 133.4824921 108.8158950  51.9579992 137.3184990 109.5509997
  51.4439992 137.1934990 110.3479997  51.8029992 138.2314990 109.3059997
  51.8666643 137.4247068 109.6270624  48.2939992 136.0554990  95.9819997
  48.0399992 136.0744990  96.9049997  48.0369992 135.1844990  95.6809997
  48.2245133 135.9403121  96.0675065  44.0599992 138.8064990 106.4179997
  43.4179992 138.7664990 107.1269997  44.0969992 139.7334990 106.1799997
  43.9771659 138.9262540 106.4828463  44.0569992 139.0274990 101.3299997
  43.1639992 138.6874990 101.2709997  44.5079992 138.6504990 100.5739997
  43.9957185 138.9300220 101.2197698  50.7439992  36.5044990  88.5489997
  49.8399992  36.6694990  88.2829997  51.1729992  37.3574990  88.4829997
  50.6782017  36.6424184  88.5036495  49.5929992 139.4434990 100.1469997
  49.1839992 140.2584990  99.8549997  50.3129992 139.3034990  99.5319997
  49.6343946 139.5359963 100.0239616  50.5969992 138.8894990 102.9609997
  50.4019992 139.4954990 102.2459997  50.7789992 138.0564990 102.5259997
  50.5949272 138.8597955 102.8044075  41.8099992 139.1274990 108.2849997
  41.7719992 139.5274990 109.1529997  41.3189992 138.3104990 108.3749997
  41.7384246 139.0718842 108.4161171  45.1759992 136.5014990  95.0829997
  44.7449992 136.0564990  95.8129997  44.4579992 136.8724990  94.5709997
  45.0199363 136.4907979  95.1136194  38.4179992 136.2434990 102.1349997
  39.0489992 136.2144990 102.8549997  38.8679992 135.8184990 101.4049997
  38.5650905 136.1820839 102.1347479  39.6919992 136.9894990  97.5589997
  40.1669992 137.5804990  96.9739997  38.9749992 137.5194990  97.9059997
  39.6600406 137.1421011  97.5258495  46.6389992 136.4554990 102.4159997
  45.7279992 136.5124990 102.7049997  47.1439992 136.3954990 103.2269997
  46.5826873 136.4551838 102.5651190  41.4669992 138.0844990 101.2429997
  40.5779992 138.1834990 100.9029997  41.7629992 137.2424990 100.8969997
  41.3854001 137.9842473 101.1497318  45.1199992 138.0844990  98.8989997
  46.0519992 138.2134990  99.0769997  44.9049992 138.7534990  98.2499997
  45.2184245 138.1926452  98.8355602  51.0439992 135.6904990 105.6799997
  50.3669992 135.8214990 106.3439997  50.5579992 135.5354990 104.8699997
  50.8857265 135.6874665 105.6613380  53.3479992  38.0744990  88.8439997
  53.1669992  38.9904990  88.6329997  53.5249992  37.6634990  87.9969997
  53.3471377  38.1443365  88.7007178  43.7939992 139.2784990  96.4659997
  43.2519992 138.8994990  95.7749997  44.6279992 139.4734990  96.0369997
  43.8324283 139.2529383  96.3134298  47.9589992 139.2424990 104.3029997
  48.5229992 138.6964990 103.7559997  47.8109992 138.7214990 105.0919997
  48.0163037 139.0971798 104.3347212  42.9609992 135.3794990 100.7209997
  42.6429992 134.4764990 100.6859997  43.7419992 135.3814990 100.1689997
  43.0231560 135.2561148 100.6414975  46.5849992 137.6314990 106.7169997
  45.7499992 138.0854990 106.8269997  47.1089992 137.9074990 107.4689997
  46.5415070 137.7309677 106.8337134  51.0269992 136.6584990  96.6009997
  50.0879992 136.7694990  96.4499997  51.3239992 137.5144990  96.9069997
  50.9386371 136.7895327  96.6217362  51.7449992 138.5254990  98.2619997
  52.6369992 138.3874990  98.5809997  51.8019992 139.3164990  97.7249997
  51.8747380 138.6134777  98.2330981  56.6299992 138.7344990  97.9559997
  56.0759992 138.3384990  97.2839997  56.7309992 139.6454990  97.6789997
  56.5677084 138.8033565  97.8264381  40.8959992 136.3534990 109.0439997
  40.0029992 136.6914990 108.9769997  40.7969992 135.4974990 109.4619997
  40.7605241 136.2840941 109.0912982  49.6299992 136.0944990 107.9339997
  50.3289992 136.1684990 108.5839997  49.2499992 135.2294990 108.0889997
  49.6742095 135.9877402 108.0437982  50.4149992 135.7464990  99.0309997
  50.6349992 136.2174990  98.2279997  50.9729992 136.1404990  99.7019997
  50.5205851 135.8643272  99.0116134  40.6539992  36.7614990  86.3089997
  40.6349992  36.3354990  87.1659997  41.4579992  36.4424990  85.8999997
  40.7601393  36.6600297  86.3710155  47.6149992 137.4744990  99.8659997
  48.4269992 137.9784990  99.9119997  47.3699992 137.3294990 100.7799997
  47.6931091 137.5239366  99.9958552  48.1509992 138.4604990 109.0509997
  48.2699992 139.0344990 109.8079997  48.8059992 137.7724990 109.1659997
  48.2558684 138.4460205 109.1701656  48.4989992 134.5554990 100.8039997
  48.1519992 135.1724990 101.4489997  49.1569992 135.0564990 100.3229997
  48.5405290 134.7076384 100.8271635  44.1559992 135.6184990  97.4919997
  44.0729992 136.5064990  97.8379997  45.0459992 135.3534990  97.7229997
  44.2649751 135.7042482  97.5706066  54.3549992 136.3674990 109.8859997
  53.4389992 136.6294990 109.7979997  54.6909992 136.3644990 108.9889997
  54.2749789 136.4029637 109.7527829  40.7309992 138.7104990  95.6679997
  40.6859992 139.6494990  95.8469997  39.8429992 138.4744990  95.3979997
  40.6048472 138.8071946  95.6560282  41.5389992 133.4914990 104.3409997
  41.3099992 133.5504990 103.4139997  41.0959992 132.7004990 104.6479997
  41.4477387 133.3926412 104.2555223  45.1959992 135.7884990 108.1549997
  45.7319992 136.2404990 107.5029997  44.3439992 135.6804990 107.7329997
  45.1541648 135.8357883 108.0086395  46.0019992 133.2454990 108.5869997
  45.9039992 134.1914990 108.4809997  45.2589992 132.8724990 108.1109997
  45.8882363 133.3245987 108.5082029  55.0859992 138.8314990  95.6729997
  55.1829992 139.4984990  94.9929997  54.9459992 138.0164990  95.1909997
  55.0803428 138.8125667  95.5148311  42.7949992  35.4714990  84.9639997
  42.5759992  34.5544990  85.1329997  43.6189992  35.6114990  85.4299997
  42.8764637  35.3649586  85.0501414  54.3339992 136.2394990  94.7899997
  54.9439992 135.8684990  95.4269997  53.4969992 135.8184990  94.9859997
  54.3043704 136.1317942  94.9037077  53.9659992 137.7944990  99.7559997
  54.2459992 136.8874990  99.8809997  54.7249992 138.2284990  99.3669997
  54.1069471 137.7290654  99.7205051  54.5779992 138.3764990 105.1919997
  55.5109992 138.5884990 105.1579997  54.3429992 138.4774990 106.1149997
  54.6738357 138.4191303 105.3120232  54.6069992 139.1134990 107.9679997
  53.7639992 139.3814990 108.3339997  55.0499992 139.9354990 107.7569997
  54.5514358 139.2613294 107.9895999  54.5799992 135.0574990  99.8049997
  54.7619992 134.6084990 100.6299997  53.9799992 134.4734990  99.3409997
  54.5238187 134.9170563  99.8552721  40.1099992 135.8734990 104.3359997
  40.5549992 135.0814990 104.6379997  40.5759992 136.5894990 104.7669997
  40.2339059 135.8619485 104.4356061  38.4139992 138.8724990 105.4049997
  38.9059992 138.6514990 104.6149997  38.7759992 139.7124990 105.6859997
  38.5303429 138.9558220 105.3347918  56.4459992 135.1254990  96.3329997
  56.8589992 134.4044990  95.8569997  57.1279992 135.7944990  96.3909997
  56.5945712 135.1174304  96.2758247  38.7269992 135.1304990  99.4599997
  37.8019992 135.3384990  99.3299997  39.1809992 135.6144990  98.7699997
  38.6617401 135.2243895  99.3489433  38.6909992 133.8684990 107.8039997
  38.0259992 133.6224990 108.4469997  38.2479992 134.4904990 107.2269997
  38.5401168 133.9189225 107.8139830  45.3319992  35.9414990  85.8119997
  45.5449992  35.0534990  85.5249997  45.3969992  35.9064990  86.7669997
  45.3699075  35.8153318  85.9017355  55.4109992 133.2924990 109.4899997
  54.5979992 133.6174990 109.1019997  55.6439992 132.5314990 108.9569997
  55.3312566 133.2341570 109.3649196  48.8409992 134.7414990 103.8129997
  48.1659992 134.1114990 104.0679997  49.4049992 134.2574990 103.2099997
  48.8249558 134.5899283 103.7663451  53.9829992 132.8484990 103.9249997
  54.5869992 133.3964990 103.4239997  53.1139992 133.1674990 103.6849997
  53.9481126 132.9667070 103.8239180  55.7099992 133.9874990 102.2589997
  56.3219992 133.4734990 101.7319997  56.0929992 134.8644990 102.2819997
  55.8453867 134.0357613 102.1900888  41.1669992 133.3754990 101.6349997
  40.3899992 133.1404990 101.1269997  41.6979992 132.5784990 101.6439997
  41.1324443 133.2356721 101.5667200  40.0039992 133.1734990  97.4379997
  40.4429992 133.7844990  96.8469997  39.3699992 133.7114990  97.9119997
  39.9784103 133.3299233  97.4211376  45.7469992 133.3014990 101.4479997
  46.6209992 133.6904990 101.4179997  45.6109992 133.0864990 102.3709997
  45.8483125 133.3257120 101.5686523  51.3029992 133.3314990 103.0969997
  51.3799992 133.4274990 102.1479997  51.0279992 132.4244990 103.2259997
  51.2763407 133.2219188 102.9843532  52.6569992 133.3574990  98.7899997
  51.9539992 133.9724990  98.5799997  52.2119992 132.5204990  98.9209997
  52.5006550 133.3284679  98.7789819  41.8649992 135.0894990  95.8809997
  42.3559992 134.4594990  95.3529997  42.4879992 135.3854990  96.5439997
  42.0165459 135.0432419  95.8983667  48.8409992  21.6054990  84.9569997
  48.1659992  20.9754990  85.2119997  49.4049992  21.1214990  84.3539997
  48.8249558  21.4539283  84.9103451  46.8909992 135.3824990  98.3379997
  47.0689992 134.7354990  99.0209997  46.8369992 136.2164990  98.8049997
  46.9080678 135.4066615  98.4946283  75.0869992 135.8204990 106.2789997
  75.1359992 136.4304990 107.0149997  75.5129992 136.2814990 105.5559997
  75.1512851 135.9663266 106.2820532  69.5649992 138.6124990 105.7459997
  69.7069992 137.6664990 105.7659997  69.4589992 138.8194990 104.8169997
  69.5701158 138.5109722 105.6232241  62.7199992 136.7144990 103.0179997
  62.7629992 137.5744990 102.5999997  62.2619992 136.1614990 102.3849997
  62.6639613 136.7575689 102.8751276  70.4419992 136.8454990 101.4189997
  71.0879992 136.5164990 102.0439997  70.9519992 137.3624990 100.7959997
  70.5994392 136.8703710 101.4203248  59.3399992 139.1114990 103.7799997
  59.9939992 138.5614990 104.2119997  59.3639992 138.8374990 102.8639997
  59.4327022 138.9992005 103.7151698  75.4789992 137.2984990 108.5149997
  74.7899992 137.9564990 108.4199997  75.4939992 137.1004990 109.4519997
  75.3867756 137.3617614 108.6285795  61.5299992 135.6324990 107.0919997
  61.3109992 136.1624990 106.3259997  60.8619992 135.8584990 107.7399997
  61.4097271 135.7356508 107.0746206  72.2059992 136.1364990 103.3999997
  71.9909992 135.3704990 103.9319997  72.8619992 136.6084990 103.9129997
  72.2652451 136.0954472 103.5421699  61.1239992 137.5244990 105.0449997
  61.7369992 138.1574990 105.4179997  61.6359992 137.0524990 104.3879997
  61.2771680 137.5474006 105.0072830  53.9829992  19.7124990  85.0689997
  54.5869992  20.2604990  84.5679997  53.1139992  20.0314990  84.8289997
  53.9481126  19.8307070  84.9679180  72.5529992 134.8514990 107.0789997
  71.8169992 135.4614990 107.0409997  73.2369992 135.2664990 106.5529997
  72.5445885 134.9911924 107.0026931  65.5559992 132.9374990 104.5449997
  65.4389992 131.9894990 104.4909997  64.7009992 133.2704990 104.8179997
  65.4243691 132.8525842 104.5745072  73.7979992 132.8974990  97.4949997
  72.8979992 133.0354990  97.7899997  74.0499992 133.7284990  97.0929997
  73.7087355 133.0288200  97.4810539  62.8249992 133.8414990 105.3229997
  61.9629992 133.7544990 104.9149997  62.8029992 134.6974990 105.7499997
  62.7040953 133.9453558 105.3249262  67.4879992 133.5634990 108.6969997
  67.9079992 133.1484990 109.4499997  66.5549992 133.3844990 108.8139997
  67.4193736 133.4824921 108.8158950  70.8139992 137.3184990 109.5509997
  70.2999992 137.1934990 110.3479997  70.6589992 138.2314990 109.3059997
  70.7226643 137.4247068 109.6270624  67.1499992 136.0554990  95.9819997
  66.8959992 136.0744990  96.9049997  66.8929992 135.1844990  95.6809997
  67.0805133 135.9403121  96.0675065  62.9159992 138.8064990 106.4179997
  62.2739992 138.7664990 107.1269997  62.9529992 139.7334990 106.1799997
  62.8331659 138.9262540 106.4828463  62.9129992 139.0274990 101.3299997
  62.0199992 138.6874990 101.2709997  63.3639992 138.6504990 100.5739997
  62.8517185 138.9300220 101.2197698  68.4489992 139.4434990 100.1469997
  68.0399992 140.2584990  99.8549997  69.1689992 139.3034990  99.5319997
  68.4903946 139.5359963 100.0239616  55.7099992  20.8514990  83.4029997
  56.3219992  20.3374990  82.8759997  56.0929992  21.7284990  83.4259997
  55.8453867  20.8997613  83.3340888  69.4529992 138.8894990 102.9609997
  69.2579992 139.4954990 102.2459997  69.6349992 138.0564990 102.5259997
  69.4509272 138.8597955 102.8044075  60.6659992 139.1274990 108.2849997
  60.6279992 139.5274990 109.1529997  60.1749992 138.3104990 108.3749997
  60.5944246 139.0718842 108.4161171  64.0319992 136.5014990  95.0829997
  63.6009992 136.0564990  95.8129997  63.3139992 136.8724990  94.5709997
  63.8759363 136.4907979  95.1136194  57.2739992 136.2434990 102.1349997
  57.9049992 136.2144990 102.8549997  57.7239992 135.8184990 101.4049997
  57.4210905 136.1820839 102.1347479  58.5479992 136.9894990  97.5589997
  59.0229992 137.5804990  96.9739997  57.8309992 137.5194990  97.9059997
  58.5160406 137.1421011  97.5258495  65.4949992 136.4554990 102.4159997
  64.5839992 136.5124990 102.7049997  65.9999992 136.3954990 103.2269997
  65.4386873 136.4551838 102.5651190  60.3229992 138.0844990 101.2429997
  59.4339992 138.1834990 100.9029997  60.6189992 137.2424990 100.8969997
  60.2414001 137.9842473 101.1497318  63.9759992 138.0844990  98.8989997
  64.9079992 138.2134990  99.0769997  63.7609992 138.7534990  98.2499997
  64.0744245 138.1926452  98.8355602  69.8999992 135.6904990 105.6799997
  69.2229992 135.8214990 106.3439997  69.4139992 135.5354990 104.8699997
  69.7417265 135.6874665 105.6613380  62.6499992 139.2784990  96.4659997
  62.1079992 138.8994990  95.7749997  63.4839992 139.4734990  96.0369997
  62.6884283 139.2529383  96.3134298  41.1669992  20.2394990  82.7789997
  40.3899992  20.0044990  82.2709997  41.6979992  19.4424990  82.7879997
  41.1324443  20.0996721  82.7107200  66.8149992 139.2424990 104.3029997
  67.3789992 138.6964990 103.7559997  66.6669992 138.7214990 105.0919997
  66.8723037 139.0971798 104.3347212  61.8169992 135.3794990 100.7209997
  61.4989992 134.4764990 100.6859997  62.5979992 135.3814990 100.1689997
  61.8791560 135.2561148 100.6414975  65.4409992 137.6314990 106.7169997
  64.6059992 138.0854990 106.8269997  65.9649992 137.9074990 107.4689997
  65.3975070 137.7309677 106.8337134  69.8829992 136.6584990  96.6009997
  68.9439992 136.7694990  96.4499997  70.1799992 137.5144990  96.9069997
  69.7946371 136.7895327  96.6217362  70.6009992 138.5254990  98.2619997
  71.4929992 138.3874990  98.5809997  70.6579992 139.3164990  97.7249997
  70.7307380 138.6134777  98.2330981  75.4859992 138.7344990  97.9559997
  74.9319992 138.3384990  97.2839997  75.5869992 139.6454990  97.6789997
  75.4237084 138.8033565  97.8264381  59.7519992 136.3534990 109.0439997
  58.8589992 136.6914990 108.9769997  59.6529992 135.4974990 109.4619997
  59.6165241 136.2840941 109.0912982  68.4859992 136.0944990 107.9339997
  69.1849992 136.1684990 108.5839997  68.1059992 135.2294990 108.0889997
  68.5302095 135.9877402 108.0437982  69.2709992 135.7464990  99.0309997
  69.4909992 136.2174990  98.2279997  69.8289992 136.1404990  99.7019997
  69.3765851 135.8643272  99.0116134  66.4709992 137.4744990  99.8659997
  67.2829992 137.9784990  99.9119997  66.2259992 137.3294990 100.7799997
  66.5491091 137.5239366  99.9958552  45.7469992  20.1654990  82.5919997
  46.6209992  20.5544990  82.5619997  45.6109992  19.9504990  83.5149997
  45.8483125  20.1897120  82.7126523  67.0069992 138.4604990 109.0509997
  67.1259992 139.0344990 109.8079997  67.6619992 137.7724990 109.1659997
  67.1118684 138.4460205 109.1701656  67.3549992 134.5554990 100.8039997
  67.0079992 135.1724990 101.4489997  68.0129992 135.0564990 100.3229997
  67.3965290 134.7076384 100.8271635  63.0119992 135.6184990  97.4919997
  62.9289992 136.5064990  97.8379997  63.9019992 135.3534990  97.7229997
  63.1209751 135.7042482  97.5706066  73.2109992 136.3674990 109.8859997
  72.2949992 136.6294990 109.7979997  73.5469992 136.3644990 108.9889997
  73.1309789 136.4029637 109.7527829  59.5869992 138.7104990  95.6679997
  59.5419992 139.6494990  95.8469997  58.6989992 138.4744990  95.3979997
  59.4608472 138.8071946  95.6560282  60.3949992 133.4914990 104.3409997
  60.1659992 133.5504990 103.4139997  59.9519992 132.7004990 104.6479997
  60.3037387 133.3926412 104.2555223  64.0519992 135.7884990 108.1549997
  64.5879992 136.2404990 107.5029997  63.1999992 135.6804990 107.7329997
  64.0101648 135.8357883 108.0086395  64.8579992 133.2454990 108.5869997
  64.7599992 134.1914990 108.4809997  64.1149992 132.8724990 108.1109997
  64.7442363 133.3245987 108.5082029  73.9419992 138.8314990  95.6729997
  74.0389992 139.4984990  94.9929997  73.8019992 138.0164990  95.1909997
  73.9363428 138.8125667  95.5148311  73.1899992 136.2394990  94.7899997
  73.7999992 135.8684990  95.4269997  72.3529992 135.8184990  94.9859997
  73.1603704 136.1317942  94.9037077  51.3029992  20.1954990  84.2409997
  51.3799992  20.2914990  83.2919997  51.0279992  19.2884990  84.3699997
  51.2763407  20.0859188  84.1283532  72.8219992 137.7944990  99.7559997
  73.1019992 136.8874990  99.8809997  73.5809992 138.2284990  99.3669997
  72.9629471 137.7290654  99.7205051  73.4339992 138.3764990 105.1919997
  74.3669992 138.5884990 105.1579997  73.1989992 138.4774990 106.1149997
  73.5298357 138.4191303 105.3120232  73.4629992 139.1134990 107.9679997
  72.6199992 139.3814990 108.3339997  73.9059992 139.9354990 107.7569997
  73.4074358 139.2613294 107.9895999  73.4359992 135.0574990  99.8049997
  73.6179992 134.6084990 100.6299997  72.8359992 134.4734990  99.3409997
  73.3798187 134.9170563  99.8552721  58.9659992 135.8734990 104.3359997
  59.4109992 135.0814990 104.6379997  59.4319992 136.5894990 104.7669997
  59.0899059 135.8619485 104.4356061  57.2699992 138.8724990 105.4049997
  57.7619992 138.6514990 104.6149997  57.6319992 139.7124990 105.6859997
  57.3863429 138.9558220 105.3347918  75.3019992 135.1254990  96.3329997
  75.7149992 134.4044990  95.8569997  75.9839992 135.7944990  96.3909997
  75.4505712 135.1174304  96.2758247  57.5829992 135.1304990  99.4599997
  56.6579992 135.3384990  99.3299997  58.0369992 135.6144990  98.7699997
  57.5177401 135.2243895  99.3489433  57.5469992 133.8684990 107.8039997
  56.8819992 133.6224990 108.4469997  57.1039992 134.4904990 107.2269997
  57.3961168 133.9189225 107.8139830  74.2669992 133.2924990 109.4899997
  73.4539992 133.6174990 109.1019997  74.4999992 132.5314990 108.9569997
  74.1872566 133.2341570 109.3649196  52.6569992  20.2214990  79.9339997
  51.9539992  20.8364990  79.7239997  52.2119992  19.3844990  80.0649997
  52.5006550  20.1924679  79.9229819  67.6969992 134.7414990 103.8129997
  67.0219992 134.1114990 104.0679997  68.2609992 134.2574990 103.2099997
  67.6809558 134.5899283 103.7663451  72.8389992 132.8484990 103.9249997
  73.4429992 133.3964990 103.4239997  71.9699992 133.1674990 103.6849997
  72.8041126 132.9667070 103.8239180  74.5659992 133.9874990 102.2589997
  75.1779992 133.4734990 101.7319997  74.9489992 134.8644990 102.2819997
  74.7013867 134.0357613 102.1900888  60.0229992 133.3754990 101.6349997
  59.2459992 133.1404990 101.1269997  60.5539992 132.5784990 101.6439997
  59.9884443 133.2356721 101.5667200  58.8599992 133.1734990  97.4379997
  59.2989992 133.7844990  96.8469997  58.2259992 133.7114990  97.9119997
  58.8344103 133.3299233  97.4211376  64.6029992 133.3014990 101.4479997
  65.4769992 133.6904990 101.4179997  64.4669992 133.0864990 102.3709997
  64.7043125 133.3257120 101.5686523  70.1589992 133.3314990 103.0969997
  70.2359992 133.4274990 102.1479997  69.8839992 132.4244990 103.2259997
  70.1323407 133.2219188 102.9843532  71.5129992 133.3574990  98.7899997
  70.8099992 133.9724990  98.5799997  71.0679992 132.5204990  98.9209997
  71.3566550 133.3284679  98.7789819  60.7209992 135.0894990  95.8809997
  61.2119992 134.4594990  95.3529997  61.3439992 135.3854990  96.5439997
  60.8725459 135.0432419  95.8983667  65.7469992 135.3824990  98.3379997
  65.9249992 134.7354990  99.0209997  65.6929992 136.2164990  98.8049997
  65.7640678 135.4066615  98.4946283  39.9049992  35.9854990  79.4799997
  39.2199992  35.9474990  78.8119997  39.9079992  36.8974990  79.7679997
  39.8117358  36.1036744  79.4276145  93.9429992 135.8204990 106.2789997
  93.9919992 136.4304990 107.0149997  94.3689992 136.2814990 105.5559997
  94.0072851 135.9663266 106.2820532  88.4209992 138.6124990 105.7459997
  88.5629992 137.6664990 105.7659997  88.3149992 138.8194990 104.8169997
  88.4261158 138.5109722 105.6232241  81.5759992 136.7144990 103.0179997
  81.6189992 137.5744990 102.5999997  81.1179992 136.1614990 102.3849997
  81.5199613 136.7575689 102.8751276  89.2979992 136.8454990 101.4189997
  89.9439992 136.5164990 102.0439997  89.8079992 137.3624990 100.7959997
  89.4554392 136.8703710 101.4203248  78.1959992 139.1114990 103.7799997
  78.8499992 138.5614990 104.2119997  78.2199992 138.8374990 102.8639997
  78.2887022 138.9992005 103.7151698  94.3349992 137.2984990 108.5149997
  93.6459992 137.9564990 108.4199997  94.3499992 137.1004990 109.4519997
  94.2427756 137.3617614 108.6285795  80.3859992 135.6324990 107.0919997
  80.1669992 136.1624990 106.3259997  79.7179992 135.8584990 107.7399997
  80.2657271 135.7356508 107.0746206  91.0619992 136.1364990 103.3999997
  90.8469992 135.3704990 103.9319997  91.7179992 136.6084990 103.9129997
  91.1212451 136.0954472 103.5421699  79.9799992 137.5244990 105.0449997
  80.5929992 138.1574990 105.4179997  80.4919992 137.0524990 104.3879997
  80.1331680 137.5474006 105.0072830  91.4089992 134.8514990 107.0789997
  90.6729992 135.4614990 107.0409997  92.0929992 135.2664990 106.5529997
  91.4005885 134.9911924 107.0026931  41.8649992  21.9534990  77.0249997
  42.3559992  21.3234990  76.4969997  42.4879992  22.2494990  77.6879997
  42.0165459  21.9072419  77.0423667  84.4119992 132.9374990 104.5449997
  84.2949992 131.9894990 104.4909997  83.5569992 133.2704990 104.8179997
  84.2803691 132.8525842 104.5745072  92.6539992 132.8974990  97.4949997
  91.7539992 133.0354990  97.7899997  92.9059992 133.7284990  97.0929997
  92.5647355 133.0288200  97.4810539  81.6809992 133.8414990 105.3229997
  80.8189992 133.7544990 104.9149997  81.6589992 134.6974990 105.7499997
  81.5600953 133.9453558 105.3249262  86.3439992 133.5634990 108.6969997
  86.7639992 133.1484990 109.4499997  85.4109992 133.3844990 108.8139997
  86.2753736 133.4824921 108.8158950  89.6699992 137.3184990 109.5509997
  89.1559992 137.1934990 110.3479997  89.5149992 138.2314990 109.3059997
  89.5786643 137.4247068 109.6270624  86.0059992 136.0554990  95.9819997
  85.7519992 136.0744990  96.9049997  85.7489992 135.1844990  95.6809997
  85.9365133 135.9403121  96.0675065  81.7719992 138.8064990 106.4179997
  81.1299992 138.7664990 107.1269997  81.8089992 139.7334990 106.1799997
  81.6891659 138.9262540 106.4828463  81.7689992 139.0274990 101.3299997
  80.8759992 138.6874990 101.2709997  82.2199992 138.6504990 100.5739997
  81.7077185 138.9300220 101.2197698  87.3049992 139.4434990 100.1469997
  86.8959992 140.2584990  99.8549997  88.0249992 139.3034990  99.5319997
  87.3463946 139.5359963 100.0239616  88.3089992 138.8894990 102.9609997
  88.1139992 139.4954990 102.2459997  88.4909992 138.0564990 102.5259997
  88.3069272 138.8597955 102.8044075  46.8909992  22.2464990  79.4819997
  47.0689992  21.5994990  80.1649997  46.8369992  23.0804990  79.9489997
  46.9080678  22.2706615  79.6386283  79.5219992 139.1274990 108.2849997
  79.4839992 139.5274990 109.1529997  79.0309992 138.3104990 108.3749997
  79.4504246 139.0718842 108.4161171  82.8879992 136.5014990  95.0829997
  82.4569992 136.0564990  95.8129997  82.1699992 136.8724990  94.5709997
  82.7319363 136.4907979  95.1136194  76.1299992 136.2434990 102.1349997
  76.7609992 136.2144990 102.8549997  76.5799992 135.8184990 101.4049997
  76.2770905 136.1820839 102.1347479  77.4039992 136.9894990  97.5589997
  77.8789992 137.5804990  96.9739997  76.6869992 137.5194990  97.9059997
  77.3720406 137.1421011  97.5258495  84.3509992 136.4554990 102.4159997
  83.4399992 136.5124990 102.7049997  84.8559992 136.3954990 103.2269997
  84.2946873 136.4551838 102.5651190  79.1789992 138.0844990 101.2429997
  78.2899992 138.1834990 100.9029997  79.4749992 137.2424990 100.8969997
  79.0974001 137.9842473 101.1497318  82.8319992 138.0844990  98.8989997
  83.7639992 138.2134990  99.0769997  82.6169992 138.7534990  98.2499997
  82.9304245 138.1926452  98.8355602  88.7559992 135.6904990 105.6799997
  88.0789992 135.8214990 106.3439997  88.2699992 135.5354990 104.8699997
  88.5977265 135.6874665 105.6613380  81.5059992 139.2784990  96.4659997
  80.9639992 138.8994990  95.7749997  82.3399992 139.4734990  96.0369997
  81.5444283 139.2529383  96.3134298  85.6709992 139.2424990 104.3029997
  86.2349992 138.6964990 103.7559997  85.5229992 138.7214990 105.0919997
  85.7283037 139.0971798 104.3347212  48.7689992  37.1944990  77.8769997
  49.6349992  37.5614990  77.6989997  48.5219992  36.7554990  77.0639997
  48.8542041  37.1853648  77.7425958  80.6729992 135.3794990 100.7209997
  80.3549992 134.4764990 100.6859997  81.4539992 135.3814990 100.1689997
  80.7351560 135.2561148 100.6414975  84.2969992 137.6314990 106.7169997
  83.4619992 138.0854990 106.8269997  84.8209992 137.9074990 107.4689997
  84.2535070 137.7309677 106.8337134  88.7389992 136.6584990  96.6009997
  87.7999992 136.7694990  96.4499997  89.0359992 137.5144990  96.9069997
  88.6506371 136.7895327  96.6217362  89.4569992 138.5254990  98.2619997
  90.3489992 138.3874990  98.5809997  89.5139992 139.3164990  97.7249997
  89.5867380 138.6134777  98.2330981  94.3419992 138.7344990  97.9559997
  93.7879992 138.3384990  97.2839997  94.4429992 139.6454990  97.6789997
  94.2797084 138.8033565  97.8264381  78.6079992 136.3534990 109.0439997
  77.7149992 136.6914990 108.9769997  78.5089992 135.4974990 109.4619997
  78.4725241 136.2840941 109.0912982  87.3419992 136.0944990 107.9339997
  88.0409992 136.1684990 108.5839997  86.9619992 135.2294990 108.0889997
  87.3862095 135.9877402 108.0437982  88.1269992 135.7464990  99.0309997
  88.3469992 136.2174990  98.2279997  88.6849992 136.1404990  99.7019997
  88.2325851 135.8643272  99.0116134  85.3269992 137.4744990  99.8659997
  86.1389992 137.9784990  99.9119997  85.0819992 137.3294990 100.7799997
  85.4051091 137.5239366  99.9958552  85.8629992 138.4604990 109.0509997
  85.9819992 139.0344990 109.8079997  86.5179992 137.7724990 109.1659997
  85.9678684 138.4460205 109.1701656  41.1249992  20.7534990  92.2959997
  40.7589992  19.9874990  92.7389997  42.0379992  20.7824990  92.5829997
  41.1983225  20.6526918  92.3953441  86.2109992 134.5554990 100.8039997
  85.8639992 135.1724990 101.4489997  86.8689992 135.0564990 100.3229997
  86.2525290 134.7076384 100.8271635  81.8679992 135.6184990  97.4919997
  81.7849992 136.5064990  97.8379997  82.7579992 135.3534990  97.7229997
  81.9769751 135.7042482  97.5706066  92.0669992 136.3674990 109.8859997
  91.1509992 136.6294990 109.7979997  92.4029992 136.3644990 108.9889997
  91.9869789 136.4029637 109.7527829  78.4429992 138.7104990  95.6679997
  78.3979992 139.6494990  95.8469997  77.5549992 138.4744990  95.3979997
  78.3168472 138.8071946  95.6560282  79.2509992 133.4914990 104.3409997
  79.0219992 133.5504990 103.4139997  78.8079992 132.7004990 104.6479997
  79.1597387 133.3926412 104.2555223  82.9079992 135.7884990 108.1549997
  83.4439992 136.2404990 107.5029997  82.0559992 135.6804990 107.7329997
  82.8661648 135.8357883 108.0086395  83.7139992 133.2454990 108.5869997
  83.6159992 134.1914990 108.4809997  82.9709992 132.8724990 108.1109997
  83.6002363 133.3245987 108.5082029  92.7979992 138.8314990  95.6729997
  92.8949992 139.4984990  94.9929997  92.6579992 138.0164990  95.1909997
  92.7923428 138.8125667  95.5148311  92.0459992 136.2394990  94.7899997
  92.6559992 135.8684990  95.4269997  91.2089992 135.8184990  94.9859997
  92.0163704 136.1317942  94.9037077  91.6779992 137.7944990  99.7559997
  91.9579992 136.8874990  99.8809997  92.4369992 138.2284990  99.3669997
  91.8189471 137.7290654  99.7205052  43.0979992  20.1034990  93.8319997
  43.9969992  19.8294990  93.6469997  42.7119992  19.3614990  94.2959997
  43.1687237  19.9656520  93.8694693  92.2899992 138.3764990 105.1919997
  93.2229992 138.5884990 105.1579997  92.0549992 138.4774990 106.1149997
  92.3858357 138.4191303 105.3120232  92.3189992 139.1134990 107.9679997
  91.4759992 139.3814990 108.3339997  92.7619992 139.9354990 107.7569997
  92.2634358 139.2613294 107.9895999  92.2919992 135.0574990  99.8049997
  92.4739992 134.6084990 100.6299997  91.6919992 134.4734990  99.3409997
  92.2358187 134.9170563  99.8552721  77.8219992 135.8734990 104.3359997
  78.2669992 135.0814990 104.6379997  78.2879992 136.5894990 104.7669997
  77.9459059 135.8619485 104.4356061  76.1259992 138.8724990 105.4049997
  76.6179992 138.6514990 104.6149997  76.4879992 139.7124990 105.6859997
  76.2423429 138.9558220 105.3347918  94.1579992 135.1254990  96.3329997
  94.5709992 134.4044990  95.8569997  94.8399992 135.7944990  96.3909997
  94.3065712 135.1174304  96.2758247  76.4389992 135.1304990  99.4599997
  75.5139992 135.3384990  99.3299997  76.8929992 135.6144990  98.7699997
  76.3737401 135.2243895  99.3489433  76.4029992 133.8684990 107.8039997
  75.7379992 133.6224990 108.4469997  75.9599992 134.4904990 107.2269997
  76.2521168 133.9189225 107.8139830  93.1229992 133.2924990 109.4899997
  92.3099992 133.6174990 109.1019997  93.3559992 132.5314990 108.9569997
  93.0432566 133.2341570 109.3649196  86.5529992 134.7414990 103.8129997
  85.8779992 134.1114990 104.0679997  87.1169992 134.2574990 103.2099997
  86.5369558 134.5899283 103.7663451  51.5189992  19.4364990  94.0139997
  51.5959992  19.0104990  94.8679997  52.4129992  19.4494990  93.6719997
  51.6503315  19.3800320  94.0845052  91.6949992 132.8484990 103.9249997
  92.2989992 133.3964990 103.4239997  90.8259992 133.1674990 103.6849997
  91.6601126 132.9667070 103.8239180  93.4219992 133.9874990 102.2589997
  94.0339992 133.4734990 101.7319997  93.8049992 134.8644990 102.2819997
  93.5573867 134.0357613 102.1900888  78.8789992 133.3754990 101.6349997
  78.1019992 133.1404990 101.1269997  79.4099992 132.5784990 101.6439997
  78.8444443 133.2356721 101.5667200  77.7159992 133.1734990  97.4379997
  78.1549992 133.7844990  96.8469997  77.0819992 133.7114990  97.9119997
  77.6904103 133.3299233  97.4211376  83.4589992 133.3014990 101.4479997
  84.3329992 133.6904990 101.4179997  83.3229992 133.0864990 102.3709997
  83.5603125 133.3257120 101.5686523  89.0149992 133.3314990 103.0969997
  89.0919992 133.4274990 102.1479997  88.7399992 132.4244990 103.2259997
  88.9883407 133.2219188 102.9843532  90.3689992 133.3574990  98.7899997
  89.6659992 133.9724990  98.5799997  89.9239992 132.5204990  98.9209997
  90.2126550 133.3284679  98.7789819  79.5769992 135.0894990  95.8809997
  80.0679992 134.4594990  95.3529997  80.1999992 135.3854990  96.5439997
  79.7285459 135.0432419  95.8983667  84.6029992 135.3824990  98.3379997
  84.7809992 134.7354990  99.0209997  84.5489992 136.2164990  98.8049997
  84.6200678 135.4066615  98.4946283 112.7989992 135.8204990 106.2789997
 112.8479992 136.4304990 107.0149997 113.2249992 136.2814990 105.5559997
 112.8632851 135.9663266 106.2820532  54.6959992  35.5084990  92.7069997
  53.9139992  35.3224990  92.1869997  54.6239992  36.4384990  92.9239997
  54.5792975  35.6086973  92.6651823 107.2769992 138.6124990 105.7459997
 107.4189992 137.6664990 105.7659997 107.1709992 138.8194990 104.8169997
 107.2821158 138.5109722 105.6232241 100.4319992 136.7144990 103.0179997
 100.4749992 137.5744990 102.5999997  99.9739992 136.1614990 102.3849997
 100.3759613 136.7575689 102.8751276 108.1539992 136.8454990 101.4189997
 108.7999992 136.5164990 102.0439997 108.6639992 137.3624990 100.7959997
 108.3114392 136.8703710 101.4203248  97.0519992 139.1114990 103.7799997
  97.7059992 138.5614990 104.2119997  97.0759992 138.8374990 102.8639997
  97.1447022 138.9992005 103.7151698 113.1909992 137.2984990 108.5149997
 112.5019992 137.9564990 108.4199997 113.2059992 137.1004990 109.4519997
 113.0987756 137.3617614 108.6285795  99.2419992 135.6324990 107.0919997
  99.0229992 136.1624990 106.3259997  98.5739992 135.8584990 107.7399997
  99.1217271 135.7356508 107.0746206 109.9179992 136.1364990 103.3999997
 109.7029992 135.3704990 103.9319997 110.5739992 136.6084990 103.9129997
 109.9772451 136.0954472 103.5421699  98.8359992 137.5244990 105.0449997
  99.4489992 138.1574990 105.4179997  99.3479992 137.0524990 104.3879997
  98.9891680 137.5474006 105.0072830 110.2649992 134.8514990 107.0789997
 109.5289992 135.4614990 107.0409997 110.9489992 135.2664990 106.5529997
 110.2565885 134.9911924 107.0026931 103.2679992 132.9374990 104.5449997
 103.1509992 131.9894990 104.4909997 102.4129992 133.2704990 104.8179997
 103.1363691 132.8525842 104.5745072  69.1019992  29.3954990  82.7369997
  69.1909992  30.3394990  82.6049997  68.4629992  29.1204990  82.0789997
  69.0278319  29.4874984  82.6300276 111.5099992 132.8974990  97.4949997
 110.6099992 133.0354990  97.7899997 111.7619992 133.7284990  97.0929997
 111.4207355 133.0288200  97.4810539 100.5369992 133.8414990 105.3229997
  99.6749992 133.7544990 104.9149997 100.5149992 134.6974990 105.7499997
 100.4160953 133.9453558 105.3249262 105.1999992 133.5634990 108.6969997
 105.6199992 133.1484990 109.4499997 104.2669992 133.3844990 108.8139997
 105.1313736 133.4824921 108.8158950 108.5259992 137.3184990 109.5509997
 108.0119992 137.1934990 110.3479997 108.3709992 138.2314990 109.3059997
 108.4346643 137.4247068 109.6270624 104.8619992 136.0554990  95.9819997
 104.6079992 136.0744990  96.9049997 104.6049992 135.1844990  95.6809997
 104.7925133 135.9403121  96.0675065 100.6279992 138.8064990 106.4179997
  99.9859992 138.7664990 107.1269997 100.6649992 139.7334990 106.1799997
 100.5451659 138.9262540 106.4828463 100.6249992 139.0274990 101.3299997
  99.7319992 138.6874990 101.2709997 101.0759992 138.6504990 100.5739997
 100.5637185 138.9300220 101.2197698 106.1609992 139.4434990 100.1469997
 105.7519992 140.2584990  99.8549997 106.8809992 139.3034990  99.5319997
 106.2023946 139.5359963 100.0239616 107.1649992 138.8894990 102.9609997
 106.9699992 139.4954990 102.2459997 107.3469992 138.0564990 102.5259997
 107.1629272 138.8597955 102.8044075  98.3779992 139.1274990 108.2849997
  98.3399992 139.5274990 109.1529997  97.8869992 138.3104990 108.3749997
  98.3064246 139.0718842 108.4161171  68.0349992  28.6504990  86.1559997
  67.9959992  28.0044990  86.8609997  67.7119992  28.1834990  85.3849997
  67.9860199  28.4990089  86.1482865 101.7439992 136.5014990  95.0829997
 101.3129992 136.0564990  95.8129997 101.0259992 136.8724990  94.5709997
 101.5879363 136.4907979  95.1136194  94.9859992 136.2434990 102.1349997
  95.6169992 136.2144990 102.8549997  95.4359992 135.8184990 101.4049997
  95.1330905 136.1820839 102.1347479  96.2599992 136.9894990  97.5589997
  96.7349992 137.5804990  96.9739997  95.5429992 137.5194990  97.9059997
  96.2280406 137.1421011  97.5258495 103.2069992 136.4554990 102.4159997
 102.2959992 136.5124990 102.7049997 103.7119992 136.3954990 103.2269997
 103.1506873 136.4551838 102.5651190  98.0349992 138.0844990 101.2429997
  97.1459992 138.1834990 100.9029997  98.3309992 137.2424990 100.8969997
  97.9534001 137.9842473 101.1497318 101.6879992 138.0844990  98.8989997
 102.6199992 138.2134990  99.0769997 101.4729992 138.7534990  98.2499997
 101.7864245 138.1926452  98.8355602 107.6119992 135.6904990 105.6799997
 106.9349992 135.8214990 106.3439997 107.1259992 135.5354990 104.8699997
 107.4537265 135.6874665 105.6613380 100.3619992 139.2784990  96.4659997
  99.8199992 138.8994990  95.7749997 101.1959992 139.4734990  96.0369997
 100.4004283 139.2529383  96.3134298 104.5269992 139.2424990 104.3029997
 105.0909992 138.6964990 103.7559997 104.3789992 138.7214990 105.0919997
 104.5843037 139.0971798 104.3347212  99.5289992 135.3794990 100.7209997
  99.2109992 134.4764990 100.6859997 100.3099992 135.3814990 100.1689997
  99.5911560 135.2561148 100.6414975  60.4029992  28.2644990  87.7489997
  60.4439992  27.6394990  88.4729997  61.1059992  28.8884990  87.9309997
  60.5036054  28.2633262  87.8726311 103.1529992 137.6314990 106.7169997
 102.3179992 138.0854990 106.8269997 103.6769992 137.9074990 107.4689997
 103.1095070 137.7309677 106.8337134 107.5949992 136.6584990  96.6009997
 106.6559992 136.7694990  96.4499997 107.8919992 137.5144990  96.9069997
 107.5066371 136.7895327  96.6217362 108.3129992 138.5254990  98.2619997
 109.2049992 138.3874990  98.5809997 108.3699992 139.3164990  97.7249997
 108.4427380 138.6134777  98.2330981 113.1979992 138.7344990  97.9559997
 112.6439992 138.3384990  97.2839997 113.2989992 139.6454990  97.6789997
 113.1357084 138.8033565  97.8264381  97.4639992 136.3534990 109.0439997
  96.5709992 136.6914990 108.9769997  97.3649992 135.4974990 109.4619997
  97.3285241 136.2840941 109.0912982 106.1979992 136.0944990 107.9339997
 106.8969992 136.1684990 108.5839997 105.8179992 135.2294990 108.0889997
 106.2422095 135.9877402 108.0437982 106.9829992 135.7464990  99.0309997
 107.2029992 136.2174990  98.2279997 107.5409992 136.1404990  99.7019997
 107.0885851 135.8643272  99.0116134 104.1829992 137.4744990  99.8659997
 104.9949992 137.9784990  99.9119997 103.9379992 137.3294990 100.7799997
 104.2611091 137.5239366  99.9958552 104.7189992 138.4604990 109.0509997
 104.8379992 139.0344990 109.8079997 105.3739992 137.7724990 109.1659997
 104.8238684 138.4460205 109.1701656 105.0669992 134.5554990 100.8039997
 104.7199992 135.1724990 101.4489997 105.7249992 135.0564990 100.3229997
 105.1085290 134.7076384 100.8271635  71.7409992  31.5894990  84.4579997
  71.2999992  30.8694990  84.9079997  71.7279992  32.3104990  85.0879997
  71.6788398  31.5883187  84.6047734 100.7239992 135.6184990  97.4919997
 100.6409992 136.5064990  97.8379997 101.6139992 135.3534990  97.7229997
 100.8329751 135.7042482  97.5706066 110.9229992 136.3674990 109.8859997
 110.0069992 136.6294990 109.7979997 111.2589992 136.3644990 108.9889997
 110.8429789 136.4029637 109.7527829  97.2989992 138.7104990  95.6679997
  97.2539992 139.6494990  95.8469997  96.4109992 138.4744990  95.3979997
  97.1728472 138.8071946  95.6560282  98.1069992 133.4914990 104.3409997
  97.8779992 133.5504990 103.4139997  97.6639992 132.7004990 104.6479997
  98.0157387 133.3926412 104.2555223 101.7639992 135.7884990 108.1549997
 102.2999992 136.2404990 107.5029997 100.9119992 135.6804990 107.7329997
 101.7221648 135.8357883 108.0086395 102.5699992 133.2454990 108.5869997
 102.4719992 134.1914990 108.4809997 101.8269992 132.8724990 108.1109997
 102.4562363 133.3245987 108.5082029 111.6539992 138.8314990  95.6729997
 111.7509992 139.4984990  94.9929997 111.5139992 138.0164990  95.1909997
 111.6483428 138.8125667  95.5148311 110.9019992 136.2394990  94.7899997
 111.5119992 135.8684990  95.4269997 110.0649992 135.8184990  94.9859997
 110.8723704 136.1317942  94.9037077 110.5339992 137.7944990  99.7559997
 110.8139992 136.8874990  99.8809997 111.2929992 138.2284990  99.3669997
 110.6749471 137.7290654  99.7205052 111.1459992 138.3764990 105.1919997
 112.0789992 138.5884990 105.1579997 110.9109992 138.4774990 106.1149997
 111.2418357 138.4191303 105.3120232  61.3269992  32.7144990  86.2839997
  60.9569992  31.9124990  85.9149997  62.2679992  32.5464990  86.3309997
  61.4035630  32.5818680  86.2397873 111.1749992 139.1134990 107.9679997
 110.3319992 139.3814990 108.3339997 111.6179992 139.9354990 107.7569997
 111.1194358 139.2613294 107.9895999 111.1479992 135.0574990  99.8049997
 111.3299992 134.6084990 100.6299997 110.5479992 134.4734990  99.3409997
 111.0918187 134.9170563  99.8552721  96.6779992 135.8734990 104.3359997
  97.1229992 135.0814990 104.6379997  97.1439992 136.5894990 104.7669997
  96.8019059 135.8619485 104.4356061  94.9819992 138.8724990 105.4049997
  95.4739992 138.6514990 104.6149997  95.3439992 139.7124990 105.6859997
  95.0983429 138.9558220 105.3347918 113.0139992 135.1254990  96.3329997
 113.4269992 134.4044990  95.8569997 113.6959992 135.7944990  96.3909997
 113.1625712 135.1174304  96.2758247  95.2949992 135.1304990  99.4599997
  94.3699992 135.3384990  99.3299997  95.7489992 135.6144990  98.7699997
  95.2297401 135.2243895  99.3489433  95.2589992 133.8684990 107.8039997
  94.5939992 133.6224990 108.4469997  94.8159992 134.4904990 107.2269997
  95.1081168 133.9189225 107.8139830 111.9789992 133.2924990 109.4899997
 111.1659992 133.6174990 109.1019997 112.2119992 132.5314990 108.9569997
 111.8992566 133.2341570 109.3649196 105.4089992 134.7414990 103.8129997
 104.7339992 134.1114990 104.0679997 105.9729992 134.2574990 103.2099997
 105.3929558 134.5899283 103.7663451 110.5509992 132.8484990 103.9249997
 111.1549992 133.3964990 103.4239997 109.6819992 133.1674990 103.6849997
 110.5161126 132.9667070 103.8239180  57.9369992  26.3744990  81.6769997
  57.4889992  27.2204990  81.6589997  57.3759992  25.7954990  81.1619997
  57.7998546  26.4119004  81.6048874 112.2779992 133.9874990 102.2589997
 112.8899992 133.4734990 101.7319997 112.6609992 134.8644990 102.2819997
 112.4133867 134.0357613 102.1900888  97.7349992 133.3754990 101.6349997
  96.9579992 133.1404990 101.1269997  98.2659992 132.5784990 101.6439997
  97.7004443 133.2356721 101.5667200  96.5719992 133.1734990  97.4379997
  97.0109992 133.7844990  96.8469997  95.9379992 133.7114990  97.9119997
  96.5464103 133.3299233  97.4211376 102.3149992 133.3014990 101.4479997
 103.1889992 133.6904990 101.4179997 102.1789992 133.0864990 102.3709997
 102.4163125 133.3257120 101.5686523 107.8709992 133.3314990 103.0969997
 107.9479992 133.4274990 102.1479997 107.5959992 132.4244990 103.2259997
 107.8443407 133.2219188 102.9843532 109.2249992 133.3574990  98.7899997
 108.5219992 133.9724990  98.5799997 108.7799992 132.5204990  98.9209997
 109.0686550 133.3284679  98.7789819  98.4329992 135.0894990  95.8809997
  98.9239992 134.4594990  95.3529997  99.0559992 135.3854990  96.5439997
  98.5845459 135.0432419  95.8983667 103.4589992 135.3824990  98.3379997
 103.6369992 134.7354990  99.0209997 103.4049992 136.2164990  98.8049997
 103.4760678 135.4066615  98.4946283 131.6549992 135.8204990 106.2789997
 131.7039992 136.4304990 107.0149997 132.0809992 136.2814990 105.5559997
 131.7192851 135.9663266 106.2820532 126.1329992 138.6124990 105.7459997
 126.2749992 137.6664990 105.7659997 126.0269992 138.8194990 104.8169997
 126.1381158 138.5109722 105.6232241  58.6469992  28.5364990  83.8029997
  58.8609992  27.7664990  84.3299997  59.3849992  28.6264990  83.1999997
  58.7760073  28.4433546  83.7935786 119.2879992 136.7144990 103.0179997
 119.3309992 137.5744990 102.5999997 118.8299992 136.1614990 102.3849997
 119.2319613 136.7575689 102.8751276 127.0099992 136.8454990 101.4189997
 127.6559992 136.5164990 102.0439997 127.5199992 137.3624990 100.7959997
 127.1674392 136.8703710 101.4203248 115.9079992 139.1114990 103.7799997
 116.5619992 138.5614990 104.2119997 115.9319992 138.8374990 102.8639997
 116.0007022 138.9992005 103.7151698 132.0469992 137.2984990 108.5149997
 131.3579992 137.9564990 108.4199997 132.0619992 137.1004990 109.4519997
 131.9547756 137.3617614 108.6285795 118.0979992 135.6324990 107.0919997
 117.8789992 136.1624990 106.3259997 117.4299992 135.8584990 107.7399997
 117.9777271 135.7356508 107.0746206 128.7739992 136.1364990 103.3999997
 128.5589992 135.3704990 103.9319997 129.4299992 136.6084990 103.9129997
 128.8332451 136.0954472 103.5421699 117.6919992 137.5244990 105.0449997
 118.3049992 138.1574990 105.4179997 118.2039992 137.0524990 104.3879997
 117.8451680 137.5474006 105.0072830 129.1209992 134.8514990 107.0789997
 128.3849992 135.4614990 107.0409997 129.8049992 135.2664990 106.5529997
 129.1125885 134.9911924 107.0026931 122.1239992 132.9374990 104.5449997
 122.0069992 131.9894990 104.4909997 121.2689992 133.2704990 104.8179997
 121.9923691 132.8525842 104.5745072 130.3659992 132.8974990  97.4949997
 129.4659992 133.0354990  97.7899997 130.6179992 133.7284990  97.0929997
 130.2767355 133.0288200  97.4810539  68.8519992  36.6934990  84.6699997
  69.4719992  36.0174990  84.3969997  68.6439992  36.4754990  85.5779997
  68.9087360  36.5714792  84.7554387 119.3929992 133.8414990 105.3229997
 118.5309992 133.7544990 104.9149997 119.3709992 134.6974990 105.7499997
 119.2720953 133.9453558 105.3249262 124.0559992 133.5634990 108.6969997
 124.4759992 133.1484990 109.4499997 123.1229992 133.3844990 108.8139997
 123.9873736 133.4824921 108.8158950 127.3819992 137.3184990 109.5509997
 126.8679992 137.1934990 110.3479997 127.2269992 138.2314990 109.3059997
 127.2906643 137.4247068 109.6270624 123.7179992 136.0554990  95.9819997
 123.4639992 136.0744990  96.9049997 123.4609992 135.1844990  95.6809997
 123.6485133 135.9403121  96.0675065 119.4839992 138.8064990 106.4179997
 118.8419992 138.7664990 107.1269997 119.5209992 139.7334990 106.1799997
 119.4011659 138.9262540 106.4828463 119.4809992 139.0274990 101.3299997
 118.5879992 138.6874990 101.2709997 119.9319992 138.6504990 100.5739997
 119.4197185 138.9300220 101.2197698 125.0169992 139.4434990 100.1469997
 124.6079992 140.2584990  99.8549997 125.7369992 139.3034990  99.5319997
 125.0583946 139.5359963 100.0239616 126.0209992 138.8894990 102.9609997
 125.8259992 139.4954990 102.2459997 126.2029992 138.0564990 102.5259997
 126.0189272 138.8597955 102.8044075 117.2339992 139.1274990 108.2849997
 117.1959992 139.5274990 109.1529997 116.7429992 138.3104990 108.3749997
 117.1624246 139.0718842 108.4161171 120.5999992 136.5014990  95.0829997
 120.1689992 136.0564990  95.8129997 119.8819992 136.8724990  94.5709997
 120.4439363 136.4907979  95.1136194  66.4239992  31.0824990  86.5619997
  66.7279992  30.3964990  85.9679997  67.1459992  31.2014990  87.1799997
  66.5631152  31.0047201  86.5642106 113.8419992 136.2434990 102.1349997
 114.4729992 136.2144990 102.8549997 114.2919992 135.8184990 101.4049997
 113.9890905 136.1820839 102.1347479 115.1159992 136.9894990  97.5589997
 115.5909992 137.5804990  96.9739997 114.3989992 137.5194990  97.9059997
 115.0840406 137.1421011  97.5258495 122.0629992 136.4554990 102.4159997
 121.1519992 136.5124990 102.7049997 122.5679992 136.3954990 103.2269997
 122.0066873 136.4551838 102.5651190 116.8909992 138.0844990 101.2429997
 116.0019992 138.1834990 100.9029997 117.1869992 137.2424990 100.8969997
 116.8094001 137.9842473 101.1497318 120.5439992 138.0844990  98.8989997
 121.4759992 138.2134990  99.0769997 120.3289992 138.7534990  98.2499997
 120.6424245 138.1926452  98.8355602 126.4679992 135.6904990 105.6799997
 125.7909992 135.8214990 106.3439997 125.9819992 135.5354990 104.8699997
 126.3097265 135.6874665 105.6613380 119.2179992 139.2784990  96.4659997
 118.6759992 138.8994990  95.7749997 120.0519992 139.4734990  96.0369997
 119.2564283 139.2529383  96.3134298 123.3829992 139.2424990 104.3029997
 123.9469992 138.6964990 103.7559997 123.2349992 138.7214990 105.0919997
 123.4403037 139.0971798 104.3347212 118.3849992 135.3794990 100.7209997
 118.0669992 134.4764990 100.6859997 119.1659992 135.3814990 100.1689997
 118.4471560 135.2561148 100.6414975 122.0089992 137.6314990 106.7169997
 121.1739992 138.0854990 106.8269997 122.5329992 137.9074990 107.4689997
 121.9655070 137.7309677 106.8337134  75.0869992  22.6844990  87.4229997
  75.1359992  23.2944990  88.1589997  75.5129992  23.1454990  86.6999997
  75.1512851  22.8303266  87.4260532 126.4509992 136.6584990  96.6009997
 125.5119992 136.7694990  96.4499997 126.7479992 137.5144990  96.9069997
 126.3626371 136.7895327  96.6217362 127.1689992 138.5254990  98.2619997
 128.0609992 138.3874990  98.5809997 127.2259992 139.3164990  97.7249997
 127.2987380 138.6134777  98.2330981 132.0539992 138.7344990  97.9559997
 131.4999992 138.3384990  97.2839997 132.1549992 139.6454990  97.6789997
 131.9917084 138.8033565  97.8264381 116.3199992 136.3534990 109.0439997
 115.4269992 136.6914990 108.9769997 116.2209992 135.4974990 109.4619997
 116.1845241 136.2840941 109.0912982 125.0539992 136.0944990 107.9339997
 125.7529992 136.1684990 108.5839997 124.6739992 135.2294990 108.0889997
 125.0982095 135.9877402 108.0437982 125.8389992 135.7464990  99.0309997
 126.0589992 136.2174990  98.2279997 126.3969992 136.1404990  99.7019997
 125.9445851 135.8643272  99.0116134 123.0389992 137.4744990  99.8659997
 123.8509992 137.9784990  99.9119997 122.7939992 137.3294990 100.7799997
 123.1171091 137.5239366  99.9958552 123.5749992 138.4604990 109.0509997
 123.6939992 139.0344990 109.8079997 124.2299992 137.7724990 109.1659997
 123.6798684 138.4460205 109.1701656 123.9229992 134.5554990 100.8039997
 123.5759992 135.1724990 101.4489997 124.5809992 135.0564990 100.3229997
 123.9645290 134.7076384 100.8271635 119.5799992 135.6184990  97.4919997
 119.4969992 136.5064990  97.8379997 120.4699992 135.3534990  97.7229997
 119.6889751 135.7042482  97.5706066  69.5649992  25.4764990  86.8899997
  69.7069992  24.5304990  86.9099997  69.4589992  25.6834990  85.9609997
  69.5701158  25.3749722  86.7672241 129.7789992 136.3674990 109.8859997
 128.8629992 136.6294990 109.7979997 130.1149992 136.3644990 108.9889997
 129.6989789 136.4029637 109.7527829 116.1549992 138.7104990  95.6679997
 116.1099992 139.6494990  95.8469997 115.2669992 138.4744990  95.3979997
 116.0288472 138.8071946  95.6560282 116.9629992 133.4914990 104.3409997
 116.7339992 133.5504990 103.4139997 116.5199992 132.7004990 104.6479997
 116.8717387 133.3926412 104.2555223 120.6199992 135.7884990 108.1549997
 121.1559992 136.2404990 107.5029997 119.7679992 135.6804990 107.7329997
 120.5781648 135.8357883 108.0086395 121.4259992 133.2454990 108.5869997
 121.3279992 134.1914990 108.4809997 120.6829992 132.8724990 108.1109997
 121.3122363 133.3245987 108.5082029 130.5099992 138.8314990  95.6729997
 130.6069992 139.4984990  94.9929997 130.3699992 138.0164990  95.1909997
 130.5043428 138.8125667  95.5148311 129.7579992 136.2394990  94.7899997
 130.3679992 135.8684990  95.4269997 128.9209992 135.8184990  94.9859997
 129.7283704 136.1317942  94.9037077 129.3899992 137.7944990  99.7559997
 129.6699992 136.8874990  99.8809997 130.1489992 138.2284990  99.3669997
 129.5309471 137.7290654  99.7205052 130.0019992 138.3764990 105.1919997
 130.9349992 138.5884990 105.1579997 129.7669992 138.4774990 106.1149997
 130.0978357 138.4191303 105.3120232 130.0309992 139.1134990 107.9679997
 129.1879992 139.3814990 108.3339997 130.4739992 139.9354990 107.7569997
 129.9754358 139.2613294 107.9895999  62.7199992  23.5784990  84.1619997
  62.7629992  24.4384990  83.7439997  62.2619992  23.0254990  83.5289997
  62.6639613  23.6215689  84.0191276 130.0039992 135.0574990  99.8049997
 130.1859992 134.6084990 100.6299997 129.4039992 134.4734990  99.3409997
 129.9478187 134.9170563  99.8552721 115.5339992 135.8734990 104.3359997
 115.9789992 135.0814990 104.6379997 115.9999992 136.5894990 104.7669997
 115.6579059 135.8619485 104.4356061 113.8379992 138.8724990 105.4049997
 114.3299992 138.6514990 104.6149997 114.1999992 139.7124990 105.6859997
 113.9543429 138.9558220 105.3347918 131.8699992 135.1254990  96.3329997
 132.2829992 134.4044990  95.8569997 132.5519992 135.7944990  96.3909997
 132.0185712 135.1174304  96.2758247 114.1509992 135.1304990  99.4599997
 113.2259992 135.3384990  99.3299997 114.6049992 135.6144990  98.7699997
 114.0857401 135.2243895  99.3489433 114.1149992 133.8684990 107.8039997
 113.4499992 133.6224990 108.4469997 113.6719992 134.4904990 107.2269997
 113.9641168 133.9189225 107.8139830 130.8349992 133.2924990 109.4899997
 130.0219992 133.6174990 109.1019997 131.0679992 132.5314990 108.9569997
 130.7552566 133.2341570 109.3649196 124.2649992 134.7414990 103.8129997
 123.5899992 134.1114990 104.0679997 124.8289992 134.2574990 103.2099997
 124.2489558 134.5899283 103.7663451 129.4069992 132.8484990 103.9249997
 130.0109992 133.3964990 103.4239997 128.5379992 133.1674990 103.6849997
 129.3721126 132.9667070 103.8239180 131.1339992 133.9874990 102.2589997
 131.7459992 133.4734990 101.7319997 131.5169992 134.8644990 102.2819997
 131.2693867 134.0357613 102.1900888  70.4419992  23.7094990  82.5629997
  71.0879992  23.3804990  83.1879997  70.9519992  24.2264990  81.9399997
  70.5994392  23.7343710  82.5643248 116.5909992 133.3754990 101.6349997
 115.8139992 133.1404990 101.1269997 117.1219992 132.5784990 101.6439997
 116.5564443 133.2356721 101.5667200 115.4279992 133.1734990  97.4379997
 115.8669992 133.7844990  96.8469997 114.7939992 133.7114990  97.9119997
 115.4024103 133.3299233  97.4211376 121.1709992 133.3014990 101.4479997
 122.0449992 133.6904990 101.4179997 121.0349992 133.0864990 102.3709997
 121.2723125 133.3257120 101.5686523 126.7269992 133.3314990 103.0969997
 126.8039992 133.4274990 102.1479997 126.4519992 132.4244990 103.2259997
 126.7003407 133.2219188 102.9843532 128.0809992 133.3574990  98.7899997
 127.3779992 133.9724990  98.5799997 127.6359992 132.5204990  98.9209997
 127.9246550 133.3284679  98.7789819 117.2889992 135.0894990  95.8809997
 117.7799992 134.4594990  95.3529997 117.9119992 135.3854990  96.5439997
 117.4405459 135.0432419  95.8983667 122.3149992 135.3824990  98.3379997
 122.4929992 134.7354990  99.0209997 122.2609992 136.2164990  98.8049997
 122.3320678 135.4066615  98.4946283 138.1439992 136.7144990 103.0179997
 138.1869992 137.5744990 102.5999997 137.6859992 136.1614990 102.3849997
 138.0879613 136.7575689 102.8751276 134.7639992 139.1114990 103.7799997
 135.4179992 138.5614990 104.2119997 134.7879992 138.8374990 102.8639997
 134.8567022 138.9992005 103.7151698 136.9539992 135.6324990 107.0919997
 136.7349992 136.1624990 106.3259997 136.2859992 135.8584990 107.7399997
 136.8337271 135.7356508 107.0746206  59.3399992  25.9754990  84.9239997
  59.9939992  25.4254990  85.3559997  59.3639992  25.7014990  84.0079997
  59.4327022  25.8632005  84.8591698 136.5479992 137.5244990 105.0449997
 137.1609992 138.1574990 105.4179997 137.0599992 137.0524990 104.3879997
 136.7011680 137.5474006 105.0072830 138.2489992 133.8414990 105.3229997
 137.3869992 133.7544990 104.9149997 138.2269992 134.6974990 105.7499997
 138.1280953 133.9453558 105.3249262 138.3399992 138.8064990 106.4179997
 137.6979992 138.7664990 107.1269997 138.3769992 139.7334990 106.1799997
 138.2571659 138.9262540 106.4828463 138.3369992 139.0274990 101.3299997
 137.4439992 138.6874990 101.2709997 138.7879992 138.6504990 100.5739997
 138.2757185 138.9300220 101.2197698 136.0899992 139.1274990 108.2849997
 136.0519992 139.5274990 109.1529997 135.5989992 138.3104990 108.3749997
 136.0184246 139.0718842 108.4161171 139.4559992 136.5014990  95.0829997
 139.0249992 136.0564990  95.8129997 138.7379992 136.8724990  94.5709997
 139.2999363 136.4907979  95.1136194 132.6979992 136.2434990 102.1349997
 133.3289992 136.2144990 102.8549997 133.1479992 135.8184990 101.4049997
 132.8450905 136.1820839 102.1347479 133.9719992 136.9894990  97.5589997
 134.4469992 137.5804990  96.9739997 133.2549992 137.5194990  97.9059997
 133.9400406 137.1421011  97.5258495 135.7469992 138.0844990 101.2429997
 134.8579992 138.1834990 100.9029997 136.0429992 137.2424990 100.8969997
 135.6654001 137.9842473 101.1497318 139.3999992 138.0844990  98.8989997
 140.3319992 138.2134990  99.0769997 139.1849992 138.7534990  98.2499997
 139.4984245 138.1926452  98.8355602  64.4959992  27.5254990  84.1399997
  65.1119992  26.9984990  84.6489997  63.9099992  26.8854990  83.7359997
  64.5010652  27.3668919  84.1550277 138.0739992 139.2784990  96.4659997
 137.5319992 138.8994990  95.7749997 138.9079992 139.4734990  96.0369997
 138.1124283 139.2529383  96.3134298 137.2409992 135.3794990 100.7209997
 136.9229992 134.4764990 100.6859997 138.0219992 135.3814990 100.1689997
 137.3031560 135.2561148 100.6414975 135.1759992 136.3534990 109.0439997
 134.2829992 136.6914990 108.9769997 135.0769992 135.4974990 109.4619997
 135.0405241 136.2840941 109.0912982 138.4359992 135.6184990  97.4919997
 138.3529992 136.5064990  97.8379997 139.3259992 135.3534990  97.7229997
 138.5449751 135.7042482  97.5706066 135.0109992 138.7104990  95.6679997
 134.9659992 139.6494990  95.8469997 134.1229992 138.4744990  95.3979997
 134.8848472 138.8071946  95.6560282 135.8189992 133.4914990 104.3409997
 135.5899992 133.5504990 103.4139997 135.3759992 132.7004990 104.6479997
 135.7277387 133.3926412 104.2555223 139.4759992 135.7884990 108.1549997
 140.0119992 136.2404990 107.5029997 138.6239992 135.6804990 107.7329997
 139.4341648 135.8357883 108.0086395 134.3899992 135.8734990 104.3359997
 134.8349992 135.0814990 104.6379997 134.8559992 136.5894990 104.7669997
 134.5139059 135.8619485 104.4356061 132.6939992 138.8724990 105.4049997
 133.1859992 138.6514990 104.6149997 133.0559992 139.7124990 105.6859997
 132.8103429 138.9558220 105.3347918 133.0069992 135.1304990  99.4599997
 132.0819992 135.3384990  99.3299997 133.4609992 135.6144990  98.7699997
 132.9417401 135.2243895  99.3489433  75.4789992  24.1624990  89.6589997
  74.7899992  24.8204990  89.5639997  75.4939992  23.9644990  90.5959997
  75.3867756  24.2257614  89.7725795 132.9709992 133.8684990 107.8039997
 132.3059992 133.6224990 108.4469997 132.5279992 134.4904990 107.2269997
 132.8201168 133.9189225 107.8139830 135.4469992 133.3754990 101.6349997
 134.6699992 133.1404990 101.1269997 135.9779992 132.5784990 101.6439997
 135.4124443 133.2356721 101.5667200 134.2839992 133.1734990  97.4379997
 134.7229992 133.7844990  96.8469997 133.6499992 133.7114990  97.9119997
 134.2584103 133.3299233  97.4211376 136.1449992 135.0894990  95.8809997
 136.6359992 134.4594990  95.3529997 136.7679992 135.3854990  96.5439997
 136.2965459 135.0432419  95.8983667  12.5339992  10.5394990   6.0799997
  12.6229992  11.4834990   5.9469997  11.8949992  10.2644990   5.4219997
  12.4598378  10.6313846   5.9729258  11.4669992   9.7944990   9.4989997
  11.4279992   9.1484990  10.2039997  11.1439992   9.3274990   8.7269997
  11.4180469   9.6430005   9.4912803   3.8349992   9.4084990  11.0919997
   3.8759992   8.7834990  11.8149997   4.5379992  10.0324990  11.2739997
   3.9356223   9.4072318  11.2156164  15.1729992  12.7334990   7.7999997
  14.7319992  12.0134990   8.2509997  15.1599992  13.4544990   8.4299997
  15.1109215  12.7324303   7.9468088   4.7589992  13.8584990   9.6269997
   4.3889992  13.0564990   9.2569997   5.6999992  13.6904990   9.6729997
   4.8355984  13.7259649   9.5825586   1.3689992   7.5184990   5.0189997
   0.9209992   8.3644990   5.0009997   0.8079992   6.9394990   4.5039997
   1.2318546   7.5559004   4.9468874  61.5299992  22.4964990  88.2359997
  61.3109992  23.0264990  87.4699997  60.8619992  22.7224990  88.8839997
  61.4097271  22.5996508  88.2186206   2.0789992   9.6804990   7.1449997
   2.2929992   8.9104990   7.6719997   2.8169992   9.7704990   6.5419997
   2.2080073   9.5873546   7.1355786  12.2839992  17.8374990   8.0119997
  12.9039992  17.1614990   7.7389997  12.0759992  17.6194990   8.9209997
  12.3407679  17.7155032   8.0974518   9.8559992  12.2264990   9.9049997
  10.1599992  11.5404990   9.3099997  10.5779992  12.3454990  10.5229997
   9.9951240  12.1487325   9.9070941  18.5189992   3.8284990  10.7649997
  18.5679992   4.4384990  11.5009997  18.9449992   4.2894990  10.0419997
  18.5832851   3.9743266  10.7680532  12.9969992   6.6204990  10.2319997
  13.1389992   5.6744990  10.2519997  12.8909992   6.8274990   9.3039997
  13.0021051   6.5189706  10.1092249   6.1519992   4.7224990   7.5049997
   6.1949992   5.5824990   7.0859997   5.6939992   4.1694990   6.8709997
   6.0960163   4.7654174   7.3620604  13.8739992   4.8534990   5.9049997
  14.5199992   4.5244990   6.5299997  14.3839992   5.3704990   5.2829997
  14.0314289   4.8784333   5.9063681   2.7719992   7.1194990   8.2669997
   3.4259992   6.5694990   8.6989997   2.7959992   6.8454990   7.3499997
   2.8647199   7.0072178   8.2021650   7.9279992   8.6694990   7.4819997
   8.5439992   8.1424990   7.9909997   7.3419992   8.0294990   7.0779997
   7.9330652   8.5108919   7.4970277  18.9109992   5.3064990  13.0009997
  18.2219992   5.9644990  12.9059997  18.9259992   5.1084990  13.9379997
  18.8187756   5.3697614  13.1145795  68.8989992  31.9964990  81.7799997
  68.6029992  31.6734990  80.9289997  68.5749992  32.8964990  81.8219997
  68.8146501  32.0739058  81.6690893   4.9619992   3.6404990  11.5789997
   4.7429992   4.1704990  10.8119997   4.2939992   3.8664990  12.2259997
   4.8416975   3.7435979  11.5615123  12.3309992  13.1404990   5.1229997
  12.0349992  12.8174990   4.2709997  12.0069992  14.0404990   5.1639997
  12.2467458  13.2179678   5.0120598   7.5309992  11.3154990  11.8659997
   6.7909992  11.9144990  11.9699997   8.2449992  11.8694990  11.5499997
   7.5263146  11.4722611  11.8375150  15.6379992   4.1444990   7.8859997
  15.4229992   3.3784990   8.4189997  16.2939992   4.6164990   8.3989997
  15.6972673   4.1035739   8.0281972   4.5559992   5.5324990   9.5309997
   5.1689992   6.1654990   9.9039997   5.0679992   5.0604990   8.8749997
   4.7091933   5.5553380   9.4933477   5.9379992  13.2804990  12.6529997
   5.9329992  14.1594990  12.2749997   5.0849992  13.1964990  13.0779997
   5.8219199  13.3895901  12.6586942   2.0599992  12.9514990   3.4349997
   1.7879992  13.1804990   2.5459997   2.1049992  13.7884990   3.8959997
   2.0288360  13.0961034   3.3756186  15.6849992  14.5724990  10.1479997
  14.7429992  14.6314990  10.3099997  15.9609992  15.4784990  10.0109997
  15.5935865  14.7030299  10.1516174  15.9849992   2.8594990  11.5649997
  15.2489992   3.4694990  11.5279997  16.6689992   3.2744990  11.0389997
  15.9765367   2.9992562  11.4888156   8.9879992   0.9454990   9.0309997
   8.8709992  -0.0025010   8.9769997   8.1329992   1.2784990   9.3039997
   8.8563691   0.8605842   9.0605072  64.0989992  30.1714990  88.5239997
  63.3589992  30.7704990  88.6269997  64.8129992  30.7254990  88.2079997
  64.0943288  30.3282368  88.4953787  13.9369992  16.3534990   6.7729997
  14.3619992  15.6464990   6.2879997  14.2539992  17.1554990   6.3559997
  14.0380266  16.3650201   6.6502461  15.0959992  14.2544990   5.2819997
  14.8389992  13.5644990   4.6699997  15.1669992  13.8114990   6.1269997
  15.0704322  14.1001568   5.3125372  16.7819992  12.8214990  13.7589997
  16.9219992  12.2294990  13.0199997  16.9499992  13.6944990  13.4029997
  16.8238734  12.8584041  13.6096937  11.2549992   9.7834990   3.5319997
  10.5429992  10.3184990   3.1799997  11.9459992   9.8384990   2.8719997
  11.2509704   9.8641663   3.3945797  11.3089992   8.2404990   0.5699997
  12.0099992   8.2634990   1.2219997  11.6109992   7.6124990  -0.0860003
  11.4458202   8.1587223   0.5705591  18.6239992   9.1614990  11.8249997
  17.9719992   9.8554990  11.9139997  19.0889992   9.3714990  11.0149997
  18.5975357   9.2849544  11.7277056  14.6609992   9.9924990   4.4829997
  13.9289992  10.2214990   5.0559997  15.1079992   9.2794990   4.9379997
  14.6212753   9.9273984   4.6229698  14.5579992   8.1674990  13.5509997
  14.6379992   8.9304990  14.1229997  13.9569992   8.4464990  12.8609997
  14.4876547   8.3097468  13.5360029   6.3059992  10.6234990   6.3659997
   5.9759992  10.2524990   5.5479997   6.8939992   9.9524990   6.7129997
   6.3403182  10.4820648   6.3009898   7.6729992  14.0514990   9.0469997
   7.5779992  13.4724990   8.2909997   8.4019992  13.6804990   9.5429997
   7.7586011  13.9220572   9.0106011  72.2059992  23.0004990  84.5439997
  71.9909992  22.2344990  85.0759997  72.8619992  23.4724990  85.0569997
  72.2652451  22.9594472  84.6861699   6.6729992   9.3914990   9.9989997
   7.2379992   9.5134990   9.2369997   6.9909992  10.0294990  10.6379997
   6.7933619   9.4944388   9.9810019  12.9819992  14.8954990  10.7329997
  12.7409992  15.5574990  11.3809997  12.7839992  14.0604990  11.1579997
  12.9222662  14.8732704  10.8791008   7.5529992  13.7914990  14.7169997
   7.2409992  14.5734990  15.1719997   6.9029992  13.6384990  14.0309997
   7.4224858  13.8777882  14.6865344  13.5319992   9.1554990   2.1689997
  14.1109992   9.3054990   2.9149997  13.9459992   9.6254990   1.4449997
  13.6673358   9.2395966   2.1733935   4.4729992   9.9894990  13.9449997
   4.5429992  10.6404990  14.6439997   3.5819992  10.0924990  13.6099997
   4.3621690  10.0924261  13.9953026  11.2579992  15.8914990   5.6039997
  11.7319992  16.1874990   6.3809997  10.6949992  16.6304990   5.3709997
  11.2467890  16.0318047   5.6788084   5.7919992  15.8624990  15.4799997
   5.7999992  15.7264990  14.5329997   4.8759992  15.7454990  15.7319997
   5.6692528  15.8280475  15.3843226  17.2299992   0.9054990   1.9809997
  16.3299992   1.0434990   2.2769997  17.4819992   1.7364990   1.5799997
  17.1407727   1.0368705   1.9672935   5.2959992   9.6924990   3.9549997
   5.0039992  10.4604990   3.4639997   4.6219992   9.0334990   3.7919997
   5.1648843   9.7084537   3.8657695  18.4199992  15.2714990   0.3579997
  18.4929992  16.2104990   0.5279997  19.3249992  14.9664990   0.3019997
  18.5524170  15.3588294   0.3737045  61.1239992  24.3884990  86.1889997
  61.7369992  25.0214990  86.5619997  61.6359992  23.9164990  85.5319997
  61.2771680  24.4114006  86.1512830   1.3889992  12.0554990  12.7699997
   0.8879992  12.0274990  11.9549997   1.3949992  11.1504990  13.0799997
   1.3211690  11.9292234  12.7002770   1.1399992  14.8364990   9.6539997
   2.0859992  14.6914990   9.6349997   1.0269992  15.6204990  10.1909997
   1.2543578  14.9226708   9.7240300  19.3369992  15.5024990  15.3369997
  19.2879992  14.5464990  15.2989997  18.5109992  15.7694990  15.7379997
  19.2185096  15.4078416  15.3860698  10.3159992  15.0764990  14.2129997
  10.4029992  15.9024990  14.6879997   9.4519992  14.7464990  14.4619997
  10.2111944  15.1449871  14.3116558  10.7299992  18.8484990   4.0189997
  10.6549992  18.7274990   3.0719997  10.7629992  19.7974990   4.1369997
  10.7242083  18.9602639   3.9054973   4.3839992  17.6374990   5.7999997
   4.5359992  17.2894990   6.6779997   3.5329992  17.2804990   5.5439997
   4.2898344  17.5415891   5.8856851  13.8319992  18.0024990   1.0209997
  14.2069992  17.2584990   0.5499997  13.8359992  17.7324990   1.9389997
  13.8838969  17.8640920   1.0806475  13.5009992  17.9284990   3.7699997
  12.5659992  18.0284990   3.9489997  13.7809992  17.2184990   4.3489997
  13.4109471  17.8462944   3.8726678  16.4889992   6.9954990  15.8169997
  16.0819992   7.4754990  15.0959997  16.5299992   6.0894990  15.5089997
  16.4388403   6.9387989  15.6767253   3.6379992  13.3794990  13.8129997
   3.8539992  13.0174990  14.6729997   2.7829992  13.0044990  13.6039997
   3.5519082  13.2793377  13.9022396  62.5059992  32.1364990  89.3109997
  62.5009992  33.0154990  88.9329997  61.6529992  32.0524990  89.7359997
  62.3899199  32.2455901  89.3166942   6.2569992   1.8494990   9.8089997
   5.3949992   1.7624990   9.4009997   6.2349992   2.7054990  10.2369997
   6.1360557   1.9533078   9.8110202  10.9199992   1.5714990  13.1839997
  11.3399992   1.1564990  13.9369997   9.9869992   1.3924990  13.3009997
  10.8513736   1.4904921  13.3028950  14.2459992   5.3264990  14.0369997
  13.7319992   5.2014990  14.8349997  14.0909992   6.2394990  13.7929997
  14.1547802   5.4327433  14.1131504  15.0089992  10.1874990  -0.2020003
  15.0509992   9.9654990  -1.1320003  15.8579992  10.5864990  -0.0120003
  15.1295253  10.2110510  -0.3036196  10.5819992   4.0634990   0.4689997
  10.3279992   4.0824990   1.3909997  10.3249992   3.1924990   0.1669997
  10.5124508   3.9483292   0.5544786   6.3479992   6.8144990  10.9039997
   5.7059992   6.7744990  11.6129997   6.3849992   7.7414990  10.6659997
   6.2651659   6.9342540  10.9688463   6.3449992   7.0354990   5.8159997
   5.4519992   6.6954990   5.7569997   6.7959992   6.6584990   5.0599997
   6.2837185   6.9380220   5.7057698  11.8809992   7.4514990   4.6329997
  11.4719992   8.2664990   4.3409997  12.6009992   7.3114990   4.0189997
  11.9224439   7.5440383   4.5100098  10.9829992   7.6274990  16.1209997
  10.4199992   6.9224990  16.4419997  11.8089992   7.5064990  16.5889997
  11.0176674   7.5147176  16.2281734  12.8849992   6.8974990   7.4469997
  12.6899992   7.5034990   6.7319997  13.0669992   6.0644990   7.0129997
  12.8829195   6.8677936   7.2904079  58.6279992  31.8074990  80.0929997
  58.3559992  32.0364990  79.2039997  58.6729992  32.6444990  80.5529997
  58.5968709  31.9521069  80.0336089   4.0979992   7.1354990  12.7709997
   4.0599992   7.5354990  13.6399997   3.6069992   6.3184990  12.8609997
   4.0264374   7.0798228  12.9020980   7.4639992   4.5094990  -0.4300003
   7.0329992   4.0644990   0.2989997   6.7459992   4.8804990  -0.9430003
   7.3079176   4.4987063  -0.3995087   0.7059992   4.2514990   6.6219997
   1.3369992   4.2224990   7.3409997   1.1559992   3.8264990   5.8909997
   0.8531082   4.1901269   6.6216307   1.9799992   4.9974990   2.0459997
   2.4549992   5.5884990   1.4609997   1.2629992   5.5274990   2.3929997
   1.9480406   5.1501011   2.0128495  12.1489992   8.5354990  12.1179997
  12.4729992   7.9044990  11.4749997  11.7089992   8.0014990  12.7789997
  12.1338707   8.3768261  12.1193195   8.9269992   4.4634990   6.9019997
   8.0159992   4.5204990   7.1909997   9.4319992   4.4034990   7.7129997
   8.8706873   4.4631838   7.0511190   3.7549992   6.0924990   5.7289997
   2.8659992   6.1914990   5.3889997   4.0509992   5.2504990   5.3829997
   3.6734001   5.9922473   5.6357318   7.4079992   6.0924990   3.3859997
   8.3399992   6.2214990   3.5639997   7.1929992   6.7614990   2.7359997
   7.5064472   6.2005817   3.3224873  13.3319992   3.6984990  10.1659997
  12.6549992   3.8294990  10.8299997  12.8459992   3.5434990   9.3559997
  13.1737265   3.6954665  10.1473380   6.0819992   7.2864990   0.9519997
   5.5399992   6.9074990   0.2609997   6.9159992   7.4814990   0.5239997
   6.1204390   7.2609091   0.7994374  72.2529992  33.4284990  86.8059997
  71.3109992  33.4874990  86.9669997  72.5289992  34.3344990  86.6689997
  72.1615771  33.5590270  86.8094827  16.6189992  19.3694990  16.4429997
  16.8189992  19.7934990  15.6089997  17.2749992  19.7134990  17.0499997
  16.7349937  19.4739993  16.4108645   4.2169992  11.8434990  16.0509997
   4.9489992  12.0984990  16.6129997   3.4369992  12.0484990  16.5669997
   4.2116526  11.9060438  16.1975168  10.2469992   7.2504990   8.7889997
  10.8109992   6.7044990   8.2419997  10.0989992   6.7294990   9.5779997
  10.3043037   7.1051798   8.8207212   5.2489992   3.3874990   5.2079997
   4.9309992   2.4844990   5.1719997   6.0299992   3.3894990   4.6549997
   5.3111079   3.2642240   5.1282908   8.8729992   5.6394990  11.2029997
   8.0379992   6.0934990  11.3139997   9.3969992   5.9154990  11.9549997
   8.8296072   5.7388960  11.3198118   9.4169992  11.8524990   2.8879997
   8.6719992  11.3444990   2.5659997   9.2829992  11.9014990   3.8339997
   9.2969334  11.7896144   2.9718892  16.5669992  10.9854990  11.6749997
  17.2089992  11.4414990  11.1309997  15.7369992  11.0984990  11.2119997
  16.5426536  11.0631813  11.5379579  13.3149992   4.6664990   1.0869997
  12.3759992   4.7774990   0.9359997  13.6119992   5.5224990   1.3939997
  13.2266136   4.7974977   1.1078568  10.9369992  12.0364990  14.1249997
  10.5909992  11.6544990  14.9319997  10.7369992  12.9694990  14.1959997
  10.8625987  12.1104013  14.2450443  14.0329992   6.5334990   2.7479997
  14.9249992   6.3954990   3.0669997  14.0899992   7.3244990   2.2109997
  14.1627380   6.6214777   2.7190981  72.5529992  21.7154990  88.2229997
  71.8169992  22.3254990  88.1849997  73.2369992  22.1304990  87.6969997
  72.5445885  21.8551924  88.1466931   4.5419992  11.1474990   8.6579997
   5.2869992  11.1444990   8.0559997   4.6199992  10.3234990   9.1389997
   4.6543365  11.0357395   8.6407412  11.5429992  13.3104990   1.9129997
  11.2479992  14.1374990   2.2949997  10.8399992  12.6914990   2.1099997
  11.4076379  13.3399182   1.9918636   1.5499992   9.6074990  13.9729997
   1.7729992   9.1894990  14.8039997   0.9479992   8.9954990  13.5499997
   1.4991513   9.4674617  14.0296722   8.5669992   9.1244990  16.1859997
   8.2709992   8.9594990  15.2899997   9.4979992   8.9044990  16.1749997
   8.6524401   9.0721891  16.0620189  13.1869992  14.4984990  14.0749997
  12.2859992  14.6814990  13.8079997  13.2209992  14.7574990  14.9959997
  13.0683861  14.5585245  14.1629517  18.9179992   6.7424990   2.4429997
  18.3639992   6.3464990   1.7699997  19.0189992   7.6534990   2.1649997
  18.8558589   6.8113904   2.3133839  18.8809992  12.5434990  15.2799997
  18.0299992  12.7814990  14.9119997  19.4719992  12.5264990  14.5259997
  18.8443831  12.5737623  15.1278448  17.2129992  15.5284990   2.9079997
  16.8409992  14.7034990   3.2169997  17.4909992  15.3454990   2.0099997
  17.1995807  15.3907031   2.8290063  14.3739992  10.3364990   9.9289997
  13.4459992  10.1054990   9.9019997  14.8249992   9.5594990   9.5989997
  14.3078165  10.1997785   9.8806772   6.9169992  14.6654990   6.0619997
   7.4439992  15.4384990   5.8619997   6.0369992  14.8894990   5.7599997
   6.8702121  14.8017344   5.9937460  65.5559992  19.8014990  85.6889997
  65.4389992  18.8534990  85.6349997  64.7009992  20.1344990  85.9619997
  65.4243691  19.7165842  85.7185072   2.6719992   9.5274990   0.6489997
   3.2879992  10.1544990   1.0289997   1.8099992   9.8434990   0.9209997
   2.6397678   9.6559423   0.7377192   8.3439992  12.3284990   5.6379997
   8.1029992  13.2534990   5.6799997   7.6039992  11.8694990   6.0349997
   8.2109463  12.3930969   5.6974279   8.8589992  16.4774990  11.9529997
   9.2219992  17.3314990  11.7199997   9.3909992  16.1854990  12.6939997
   8.9805141  16.5548907  12.0212079   7.0269992  17.3494990   5.1839997
   6.0779992  17.4554990   5.2349997   7.3789992  18.1704990   5.5279997
   6.9445647  17.4750029   5.2374882  12.4029992  12.5764990  11.6539997
  11.9769992  12.3484990  12.4799997  12.9839992  11.8374990  11.4719997
  12.4232088  12.4454393  11.7424454  14.6059992  13.5054990   0.7279997
  14.9589992  13.1254990   1.5319997  13.6569992  13.4114990   0.8149997
  14.5260956  13.4407867   0.8498005  15.0619992  17.1284990  14.1229997
  14.4599992  16.5724990  13.6279997  15.3429992  17.7954990  13.4969997
  15.0175757  17.1425755  13.9705657  19.1089992  17.9844990   0.9289997
  19.8529992  18.5704990   0.7889997  18.4149992  18.5534990   1.2619997
  19.1169809  18.1415830   0.9548572   3.1839992   4.3614990  13.5309997
   2.2909992   4.6994990  13.4629997   3.0849992   3.5054990  13.9489997
   3.0484752   4.2920986  13.5781644  15.4719992  12.1774990   2.9549997
  15.1949992  11.4494990   3.5109997  16.3989992  12.2964990   3.1599997
  15.5594419  12.0939436   3.0588264  70.5049992  35.2094990  83.4309997
  70.9299992  34.5024990  82.9459997  70.8219992  36.0114990  83.0139997
  70.6060266  35.2210201  83.3082461   2.8349992  16.1654990  11.9659997
   3.0519992  15.2334990  11.9349997   3.0819992  16.4404990  12.8489997
   2.8980948  16.0750976  12.0811268   7.6339992  14.1874990   1.6309997
   7.7809992  13.6674990   2.4209997   7.6309992  15.0944990   1.9379997
   7.6537102  14.2388964   1.7805907   4.0869992  11.4394990   2.1419997
   3.4009992  11.7924990   2.7089997   4.6099992  12.2024990   1.8949997
   4.0638402  11.5908912   2.1861784  11.9179992   4.1024990  12.4209997
  12.6169992   4.1764990  13.0709997  11.5379992   3.2374990  12.5749997
  11.9622662   3.9957050  12.5307412  12.7029992   3.7544990   3.5179997
  12.9229992   4.2254990   2.7139997  13.2609992   4.1484990   4.1879997
  12.8086044   3.8722946   3.4985207  10.3719992  15.8844990   2.3809997
   9.5549992  16.3814990   2.4329997  10.9009992  16.3604990   1.7399997
  10.3318125  16.0167000   2.3015289   9.9029992   5.4824990   4.3529997
  10.7149992   5.9864990   4.3989997   9.6579992   5.3374990   5.2669997
   9.9811091   5.5319366   4.4828552  10.4389992   6.4684990  13.5369997
  10.5579992   7.0424990  14.2939997  11.0939992   5.7804990  13.6519997
  10.5438684   6.4540205  13.6561656  10.7869992   2.5634990   5.2909997
  10.4399992   3.1804990   5.9349997  11.4449992   3.0644990   4.8089997
  10.8284430   2.7156860   5.3140046   7.7099992  16.9284990   2.3619997
   7.8709992  17.7284990   1.8619997   7.5129992  17.2354990   3.2469997
   7.7053906  17.0793690   2.4132316  71.6639992  33.1104990  81.9399997
  71.4069992  32.4204990  81.3279997  71.7349992  32.6674990  82.7849997
  71.6384322  32.9561568  81.9705372   6.4439992   3.6264990   1.9779997
   6.3609992   4.5144990   2.3249997   7.3339992   3.3614990   2.2099997
   6.5529331   3.7121177   2.0568067  16.6429992   4.3754990  14.3719997
  15.7269992   4.6374990  14.2849997  16.9789992   4.3724990  13.4759997
  16.5628499   4.4110174  14.2388748  15.2449992   8.1254990   8.4679997
  14.4479992   7.7104990   8.1399997  15.6899992   7.4354990   8.9589997
  15.1960367   7.9753372   8.4894897   4.7029992  14.0534990   1.0379997
   5.2949992  14.7534990   1.3149997   5.1619992  13.6204990   0.3189997
   4.8461652  14.0907686   0.9786515   3.0189992   6.7184990   0.1539997
   2.9739992   7.6574990   0.3329997   2.1309992   6.4824990  -0.1150003
   2.8928166   6.8151698   0.1421507  16.3319992  17.3814990  10.0899997
  16.1759992  18.0604990   9.4329997  17.2639992  17.4534990  10.2929997
  16.4367328  17.4841586  10.0275529   3.8269992   1.4994990   8.8269997
   3.5979992   1.5584990   7.8999997   3.3839992   0.7084990   9.1339997
   3.7357387   1.4006412   8.7415223   2.7569992  15.4404990   4.9879997
   1.9249992  15.9124990   5.0149997   3.3029992  15.9504990   4.3889997
   2.7168710  15.5740317   4.9107570   2.0459992  18.0524990  16.3179997
   2.5859992  17.8364990  17.0779997   1.5639992  17.2474990  16.1279997
   2.0548485  17.9140463  16.3964870   6.6429992  16.9724990  17.9379997
   7.4109992  16.5134990  18.2789997   6.6219992  16.7464990  17.0079997
   6.7452135  16.8791680  17.8589473  73.3499992  31.6774990  90.4169997
  73.4899992  31.0854990  89.6779997  73.5179992  32.5504990  90.0609997
  73.3918734  31.7144041  90.2676937  10.7349992  16.4804990  -0.6870003
  10.0909992  15.8494990  -0.3650003  11.4969992  15.9494990  -0.9180003
  10.7498708  16.3223171  -0.6741539  13.2199992  15.3524990  16.6669997
  12.8689992  14.4954990  16.9099997  13.9459992  15.4944990  17.2739997
  13.2701590  15.2545189  16.7822889  15.3389992  16.2974990  -0.4530003
  15.6219992  15.5024990  -0.0000003  16.0789992  16.5304990  -1.0140003
  15.4777295  16.2202349  -0.4668531   1.9529992  11.8634990  17.2719997
   2.0969992  10.9614990  16.9859997   1.1799992  12.1494990  16.7849997
   1.8682266  11.7786548  17.1670102   6.2939992  12.2064990  -0.5950003
   6.3579992  11.4124990  -0.0650003   6.9469992  12.0884990  -1.2850003
   6.3910483  12.0817496  -0.6156593   8.6079992  11.8324990  16.7049997
   8.2799992  12.1034990  15.8479997   8.7599992  10.8914990  16.6169997
   8.5836412  11.7424058  16.5757804  14.3429992  11.7484990  14.0879997
  15.0879992  12.3374990  13.9689997  13.5849992  12.3304990  14.1509997
  14.3425289  11.9077067  14.0802292   2.7849992   9.0634990  16.6919997
   3.1929992   8.2064990  16.5709997   2.5249992   9.0774990  17.6129997
   2.8057082   8.9480596  16.7999469   7.4429992  10.1794990   1.7109997
   6.9839992   9.6954990   2.3959997   7.6979992   9.5104990   1.0749997
   7.4145997  10.0228491   1.7188734   6.7319992   8.0724990  14.0669997
   6.1139992   8.7464990  14.3469997   7.0759992   8.3934990  13.2329997
   6.6938078   8.2082298  13.9926609  67.8229992  28.6394990  80.1889997
  67.1109992  29.1744990  79.8379997  68.5139992  28.6944990  79.5289997
  67.8188696  28.7202591  80.0516372   8.5139992   8.4224990  -0.0270003
   8.3339992   8.2674990  -0.9540003   9.4639992   8.5304990   0.0179997
   8.6177804   8.4158821  -0.1478034  11.7519992  10.5434990  17.3439997
  12.7049992  10.6274990  17.3169997  11.5919992   9.8314990  17.9629997
  11.8607320  10.4587292  17.4239933  17.9039992  10.7764990  -0.5810003
  17.6309992  10.3524990  -1.3940003  17.9439992  11.7084990  -0.7980003
  17.8720201  10.8443523  -0.7216452   7.0719992   5.4274990  15.1489997
   7.2219992   4.6984990  14.5469997   7.0739992   6.2044990  14.5899997
   7.0927967   5.4327720  14.9910523   7.4839992   3.7964990  12.6419997
   8.0199992   4.2484990  11.9899997   6.6319992   3.6884990  12.2189997
   7.4421795   3.8437444  12.4956211   9.0659992   9.2364990  12.8809997
   9.8169992   9.0804990  12.3079997   8.7269992  10.0884990  12.6059997
   9.1229587   9.3303149  12.7654060  13.4819992   7.0514990  17.9099997
  13.6739992   6.1204990  17.7979997  14.3389992   7.4764990  17.8989997
  13.6242176   6.9815090  17.8931757  14.7979992   9.8404990  15.9869997
  14.5169992  10.5494990  15.4089997  15.7409992   9.7674990  15.8359997
  14.8869272   9.9276704  15.8874976   5.5499992   6.6254990  17.0599997
   4.7829992   6.0924990  16.8499997   6.2289992   6.3154990  16.4609997
   5.5368292   6.5106360  16.9502693   8.2899992   1.2534990  13.0729997
   8.1919992   2.1994990  12.9679997   7.5469992   0.8804990  12.5969997
   8.1762123   1.3326811  12.9943204  67.8769992  27.0964990  77.2279997
  68.5779992  27.1194990  77.8789997  68.1789992  26.4684990  76.5719997
  68.0138282  27.0147350  77.2284478   9.5539992   5.5744990  16.6369997
   9.3179992   5.3554990  17.5379997   8.7709992   5.3674990  16.1269997
   9.4158382   5.5165340  16.6913991  12.2699992   4.7024990  15.7119997
  11.3219992   4.7344990  15.8439997  12.5819992   4.0764990  16.3659997
  12.1825293   4.6222934  15.8184130  13.9039992   3.3364990  17.7169997
  13.8069992   2.3844990  17.7119997  13.5819992   3.6044990  18.5779997
  13.8472468   3.2425896  17.8326192   3.7309992   4.5454990  16.7649997
   3.9419992   3.8394990  16.1549997   3.6189992   4.1084990  17.6089997
   3.7447668   4.3896619  16.7955445   8.5119992   0.5474990  15.7439997
   9.2229992  -0.0925010  15.7299997   8.4109992   0.8134990  14.8309997
   8.5956858   0.4958591  15.6185501   8.8649992   2.2294990  17.7979997
   8.7339992   1.7544990  16.9779997   8.2659992   2.9744990  17.7429997
   8.7660829   2.2650949  17.6781823   8.4119992  19.1124990   0.9739997
   9.3449992  19.2704990   1.1179997   8.1469992  19.7884990   0.3489997
   8.5039846  19.2254567   0.9092930   1.9799992  13.7494990   0.4569997
   2.8939992  13.8284990   0.7299997   1.9869992  13.0624990  -0.2090003
   2.1060624  13.6674074   0.4043045   0.6289992  19.1424990   5.5339997
  -0.0180008  18.6804990   5.0019997   0.9839992  18.4704990   6.1169997
   0.5883741  18.9884785   5.5399157   1.4989992  17.2224990   7.3389997
   1.1649992  16.3424990   7.5109997   1.7209992  17.5684990   8.2039997
   1.4832565  17.1487410   7.4794263  75.1919992  28.0174990  88.4829997
  74.5399992  28.7114990  88.5719997  75.6569992  28.2274990  87.6729997
  75.1655357  28.1409544  88.3857056  19.0479992  18.0324990  10.3199997
  19.0259992  18.2174990  11.2579997  19.7379992  18.6004990   9.9789997
  19.1383383  18.1347104  10.4024580  18.6109992  17.5994990  13.2409997
  18.1239992  16.8634990  12.8699997  19.1599992  17.2054990  13.9189997
  18.6186101  17.4456267  13.2819034  17.0619992  13.3894990  17.8789997
  16.1959992  13.2844990  18.2739997  17.4379992  14.1474990  18.3259997
  16.9944940  13.4776141  17.9933958  18.3629992  11.6454990   3.3939997
  19.2129992  12.0664990   3.5209997  18.3679992  10.9054990   4.0009997
  18.4801143  11.6031106   3.4934732  18.7569992   9.6994990   5.2169997
  18.0309992   9.2194990   5.6149997  19.3379992   9.9044990   5.9489997
  18.7362504   9.6615592   5.3704199  18.5159992  12.4844990  10.1649997
  19.3499992  12.1064990   9.8839997  18.6279992  13.4274990  10.0459997
  18.6451917  12.5602954  10.1104844  17.0019992  15.3624990  12.4719997
  16.3549992  15.6874990  13.0969997  16.4849992  14.9214990  11.7979997
  16.8434112  15.3474133  12.4665272  19.0249992   9.6004990   1.6079997
  18.5039992   9.9564990   0.8899997  18.9919992  10.2754990   2.2869997
  18.9490955   9.7405023   1.6012634  17.3739992   6.8394990   0.1589997
  17.4709992   7.5064990  -0.5210003  17.2339992   6.0244990  -0.3220003
  17.3683407   6.8205670   0.0008312  16.5439992   8.2204990   5.7799997
  16.3939992   7.2754990   5.7599997  16.1899992   8.5014990   6.6239997
  16.4756351   8.1291656   5.8913202  71.2289992  28.8484990  81.1409997
  70.4969992  29.0774990  81.7139997  71.6759992  28.1354990  81.5959997
  71.1892753  28.7833984  81.2809698   1.5789992  10.2984990   9.7909997
   1.7629992  10.2164990   8.8549997   2.4279992  10.1744990  10.2139997
   1.7190132  10.2705066   9.7201460  17.3999992  10.1904990  15.4189997
  17.9829992   9.4554990  15.6109997  17.9639992  10.9624990  15.4659997
  17.5559781  10.1943156  15.4516146  18.8969992   8.0934990  16.1039997
  18.0329992   7.7144990  15.9379997  19.5009992   7.3544990  16.0289997
  18.8605394   7.9418378  16.0711778  16.2539992   5.8024990   4.2429997
  16.5339992   4.8954990   4.3669997  17.0129992   6.2364990   3.8539997
  16.3949258   5.7370935   4.2073691  16.8659992   6.3844990   9.6789997
  17.7989992   6.5964990   9.6439997  16.6309992   6.4854990  10.6009997
  16.9619517   6.4271844   9.7989113  16.8949992   7.1214990  12.4549997
  16.0519992   7.3894990  12.8199997  17.3379992   7.9434990  12.2439997
  16.8394035   7.2693351  12.4764770   1.1759992   5.5684990  15.9309997
   2.0959992   5.4464990  16.1679997   0.7269992   4.8184990  16.3209997
   1.2410500   5.4504576  16.0161016  19.1779992   1.1014990  17.8079997
  19.5279992   0.4474990  17.2019997  19.3249992   1.9384990  17.3679997
  19.2457192   1.1252545  17.6656712  16.8679992   3.0654990   4.2909997
  17.0499992   2.6164990   5.1159997  16.2679992   2.4814990   3.8269997
  16.8118187   2.9250563   4.3412721   2.3979992   3.8814990   8.8229997
   2.8429992   3.0894990   9.1249997   2.8639992   4.5974990   9.2529997
   2.5219718   3.8699546   8.9225247  71.1259992  27.0234990  90.2089997
  71.2059992  27.7864990  90.7809997  70.5249992  27.3024990  89.5179997
  71.0557115  27.1657707  90.1939631   0.7019992   6.8804990   9.8919997
   1.1939992   6.6594990   9.1009997   1.0639992   7.7204990  10.1729997
   0.8182923   6.9638480   9.8217389  18.6979992   3.2104990  16.1569997
  17.7809992   3.4814990  16.1209997  18.8209992   2.6754990  15.3729997
  18.5890828   3.1752711  16.0460767  18.7339992   3.1334990   0.8189997
  19.1469992   2.4124990   0.3439997  19.4159992   3.8024990   0.8769997
  18.8826060   3.1253741   0.7619233   1.0149992   3.1384990   3.9459997
   0.0899992   3.3464990   3.8169997   1.4689992   3.6224990   3.2559997
   0.9496298   3.2324311   3.8350433  15.7859992  18.1224990   5.8919997
  16.4379992  17.7744990   5.2839997  16.2969992  18.6104990   6.5379997
  15.9442872  18.1408248   5.8960964   0.9789992   1.8764990  12.2899997
   0.3139992   1.6304990  12.9329997   0.5359992   2.4984990  11.7129997
   0.8281168   1.9269225  12.2999830   3.1709992  15.0514990  16.4349997
   2.3499992  15.2264990  15.9739997   2.9189992  14.9784990  17.3549997
   3.0245594  15.0655728  16.4963593   6.1249992  16.0254990  12.6929997
   5.6999992  16.8354990  12.4109997   7.0289992  16.1114990  12.3909997
   6.1890706  16.1479557  12.6135836  10.4359992  17.4244990  15.6529997
  10.6209992  17.0914990  16.5309997  11.2829992  17.7344990  15.3309997
  10.5757291  17.4208214  15.7296140  12.7809992  18.7104990  14.8969997
  13.4579992  18.0774990  14.6569997  13.1029992  19.1114990  15.7039997
  12.9171618  18.6781147  14.9732802  62.8739992  29.4794990  83.0239997
  62.5439992  29.1084990  82.2049997  63.4619992  28.8084990  83.3699997
  62.9084056  29.3381257  82.9589035  17.6989992   1.3004990  13.9759997
  16.8859992   1.6254990  13.5889997  17.9319992   0.5394990  13.4429997
  17.6191347   1.2421891  13.8509824   3.5269992  19.2824990  12.7409997
   2.8059992  19.7224990  12.2899997   3.1609992  19.0314990  13.5889997
   3.3789632  19.3087235  12.7939649   5.9939992  18.8824990  11.7699997
   5.1289992  18.9544990  12.1739997   5.9389992  19.4294990  10.9869997
   5.8682289  18.9663242  11.7193749  10.7049992  18.7704990  10.9459997
  10.2479992  19.2994990  10.2919997  10.8669992  19.3734990  11.6709997
  10.6643919  18.9243990  10.9545740  13.0319992  17.6484990  11.8909997
  12.1279992  17.8134990  11.6249997  13.4609992  18.5014990  11.8249997
  12.9662017  17.7864184  11.8456495  15.6359992  19.2184990  12.1859997
  15.4549992  20.1344990  11.9749997  15.8129992  18.8074990  11.3389997
  15.6351377  19.2883365  12.0427178   2.9419992  17.9054990   9.6509997
   2.9229992  17.4794990  10.5079997   3.7459992  17.5864990   9.2419997
   3.0481393  17.8040297   9.7130155   5.0829992  16.6154990   8.3059997
   4.8639992  15.6984990   8.4759997   5.9069992  16.7554990   8.7719997
   5.1644702  16.5090523   8.3922510   7.6199992  17.0854990   9.1549997
   7.8329992  16.1974990   8.8679997   7.6849992  17.0504990  10.1089997
   7.6579149  16.9593338   9.2447351  11.1289992   2.7494990   8.2989997
  10.4539992   2.1194990   8.5549997  11.6929992   2.2654990   7.6959997
  11.1129363   2.5978886   8.2524810  64.2409992  32.9074990  85.7049997
  64.1459992  32.3284990  84.9479997  64.9699992  32.5364990  86.2009997
  64.3266161  32.7780902  85.6685191  16.2709992   0.8564990   8.4119997
  16.8749992   1.4044990   7.9099997  15.4019992   1.1754990   8.1709997
  16.2360419   0.9745628   8.3107741  17.9979992   1.9954990   6.7449997
  18.6099992   1.4814990   6.2179997  18.3809992   2.8724990   6.7679997
  18.1333867   2.0437613   6.6760888   3.4549992   1.3834990   6.1209997
   2.6779992   1.1484990   5.6139997   3.9859992   0.5864990   6.1299997
   3.4203735   1.2436462   6.0528090   2.2919992   1.1814990   1.9249997
   2.7309992   1.7924990   1.3329997   1.6579992   1.7194990   2.3989997
   2.2663859   1.3379076   1.9080287   8.0349992   1.3094990   5.9339997
   8.9089992   1.6984990   5.9049997   7.8989992   1.0944990   6.8569997
   8.1361953   1.3336654   6.0547599  13.5909992   1.3394990   7.5839997
  13.6679992   1.4354990   6.6339997  13.3159992   0.4324990   7.7119997
  13.5643233   1.2299093   7.4713665  14.9449992   1.3654990   3.2759997
  14.2419992   1.9804990   3.0659997  14.4999992   0.5284990   3.4069997
  14.7886550   1.3364679   3.2649819   2.1929992  17.1294990   2.8219997
   1.5079992  17.0914990   2.1549997   2.1959992  18.0414990   3.1099997
   2.0996806  17.2476669   2.7696961   4.1529992   3.0974990   0.3669997
   4.6439992   2.4674990  -0.1600003   4.7759992   3.3934990   1.0299997
   4.3045304   3.0512387   0.3844922   9.1789992   3.3904990   2.8239997
   9.3569992   2.7434990   3.5069997   9.1249992   4.2244990   3.2909997
   9.1960678   3.4146615   2.9806283  63.2409992  28.2474990  86.6569997
  63.8059992  28.3694990  85.8939997  63.5589992  28.8854990  87.2959997
  63.3613430  28.3504448  86.6389094  11.0569992  18.3384990   1.2199997
  11.9229992  18.7054990   1.0419997  10.8099992  17.8994990   0.4059997
  11.1421853  18.3294021   1.0855813  17.7659992  17.9014990   3.8989997
  17.5719992  17.1534990   3.3339997  17.7269992  18.6594990   3.3159997
  17.7341645  17.9015797   3.7428131   3.4129992   1.8974990  15.6389997
   3.0469992   1.1314990  16.0809997   4.3259992   1.9264990  15.9249997
   3.4863172   1.7965335  15.7381872   5.3859992   1.2474990  17.1739997
   6.2849992   0.9734990  16.9899997   4.9999992   0.5054990  17.6389997
   5.4567307   1.1097207  17.2117080   4.0109992  18.0494990  -0.1530003
   3.7429992  18.3354990   0.7209997   4.7819992  17.5034990  -0.0000003
   4.0785926  18.0147790  -0.0128812  13.8069992   0.5804990  17.3569997
  13.8839992   0.1544990  18.2099997  14.7009992   0.5934990  17.0139997
  13.9383263   0.5239345  17.4274366  16.9839992  16.6524990  16.0489997
  16.2019992  16.4664990  15.5289997  16.9119992  17.5824990  16.2659997
  16.8672975  16.7526973  16.0071822  31.3899992  10.5394990   6.0799997
  31.4789992  11.4834990   5.9469997  30.7509992  10.2644990   5.4219997
  31.3158378  10.6313846   5.9729258  30.3229992   9.7944990   9.4989997
  30.2839992   9.1484990  10.2039997  29.9999992   9.3274990   8.7269997
  30.2740469   9.6430005   9.4912803  22.6909992   9.4084990  11.0919997
  22.7319992   8.7834990  11.8149997  23.3939992  10.0324990  11.2739997
  22.7916223   9.4072318  11.2156164  69.5499992  33.7514990  87.3909997
  69.3089992  34.4134990  88.0389997  69.3519992  32.9164990  87.8159997
  69.4902662  33.7292704  87.5371008  34.0289992  12.7334990   7.7999997
  33.5879992  12.0134990   8.2509997  34.0159992  13.4544990   8.4299997
  33.9669215  12.7324303   7.9468088  23.6149992  13.8584990   9.6269997
  23.2449992  13.0564990   9.2569997  24.5559992  13.6904990   9.6729997
  23.6915984  13.7259649   9.5825586  20.2249992   7.5184990   5.0189997
  19.7769992   8.3644990   5.0009997  19.6639992   6.9394990   4.5039997
  20.0878546   7.5559004   4.9468874  20.9349992   9.6804990   7.1449997
  21.1489992   8.9104990   7.6719997  21.6729992   9.7704990   6.5419997
  21.0640073   9.5873546   7.1355786  31.1399992  17.8374990   8.0119997
  31.7599992  17.1614990   7.7389997  30.9319992  17.6194990   8.9209997
  31.1967679  17.7155032   8.0974518  28.7119992  12.2264990   9.9049997
  29.0159992  11.5404990   9.3099997  29.4339992  12.3454990  10.5229997
  28.8511240  12.1487325   9.9070941  37.3749992   3.8284990  10.7649997
  37.4239992   4.4384990  11.5009997  37.8009992   4.2894990  10.0419997
  37.4392851   3.9743266  10.7680532  31.8529992   6.6204990  10.2319997
  31.9949992   5.6744990  10.2519997  31.7469992   6.8274990   9.3039997
  31.8581051   6.5189706  10.1092249  25.0079992   4.7224990   7.5049997
  25.0509992   5.5824990   7.0859997  24.5499992   4.1694990   6.8709997
  24.9520163   4.7654174   7.3620604  32.7299992   4.8534990   5.9049997
  33.3759992   4.5244990   6.5299997  33.2399992   5.3704990   5.2829997
  32.8874289   4.8784333   5.9063681  64.1209992  32.6474990  91.3739997
  63.8089992  33.4294990  91.8299997  63.4709992  32.4944990  90.6879997
  63.9904643  32.7338019  91.3436657  21.6279992   7.1194990   8.2669997
  22.2819992   6.5694990   8.6989997  21.6519992   6.8454990   7.3499997
  21.7207199   7.0072179   8.2021650  26.7839992   8.6694990   7.4819997
  27.3999992   8.1424990   7.9909997  26.1979992   8.0294990   7.0779997
  26.7890652   8.5108919   7.4970277  37.7669992   5.3064990  13.0009997
  37.0779992   5.9644990  12.9059997  37.7819992   5.1084990  13.9379997
  37.6747756   5.3697614  13.1145795  23.8179992   3.6404990  11.5789997
  23.5989992   4.1704990  10.8119997  23.1499992   3.8664990  12.2259997
  23.6976975   3.7435979  11.5615123  31.1869992  13.1404990   5.1229997
  30.8909992  12.8174990   4.2709997  30.8629992  14.0404990   5.1639997
  31.1027458  13.2179678   5.0120598  26.3869992  11.3154990  11.8659997
  25.6469992  11.9144990  11.9699997  27.1009992  11.8694990  11.5499997
  26.3823146  11.4722611  11.8375150  34.4939992   4.1444990   7.8859997
  34.2789992   3.3784990   8.4189997  35.1499992   4.6164990   8.3989997
  34.5532673   4.1035739   8.0281972  23.4119992   5.5324990   9.5309997
  24.0249992   6.1654990   9.9039997  23.9239992   5.0604990   8.8749997
  23.5651933   5.5553380   9.4933477  24.7939992  13.2804990  12.6529997
  24.7889992  14.1594990  12.2749997  23.9409992  13.1964990  13.0779997
  24.6779199  13.3895901  12.6586942  20.9159992  12.9514990   3.4349997
  20.6439992  13.1804990   2.5459997  20.9609992  13.7884990   3.8959997
  20.8848360  13.0961034   3.3756186  70.0999992  28.0114990  78.8259997
  70.6789992  28.1614990  79.5729997  70.5139992  28.4814990  78.1029997
  70.2353122  28.0956288  78.8305024  34.5409992  14.5724990  10.1479997
  33.5989992  14.6314990  10.3099997  34.8169992  15.4784990  10.0109997
  34.4495865  14.7030299  10.1516174  34.8409992   2.8594990  11.5649997
  34.1049992   3.4694990  11.5279997  35.5249992   3.2744990  11.0389997
  34.8325367   2.9992562  11.4888156  27.8439992   0.9454990   9.0309997
  27.7269992  -0.0025010   8.9769997  26.9889992   1.2784990   9.3039997
  27.7123691   0.8605842   9.0605072  32.7929992  16.3534990   6.7729997
  33.2179992  15.6464990   6.2879997  33.1099992  17.1554990   6.3559997
  32.8940266  16.3650201   6.6502461  33.9519992  14.2544990   5.2819997
  33.6949992  13.5644990   4.6699997  34.0229992  13.8114990   6.1269997
  33.9264322  14.1001568   5.3125372  35.6379992  12.8214990  13.7589997
  35.7779992  12.2294990  13.0199997  35.8059992  13.6944990  13.4029997
  35.6798734  12.8584041  13.6096937  30.1109992   9.7834990   3.5319997
  29.3989992  10.3184990   3.1799997  30.8019992   9.8384990   2.8719997
  30.1069704   9.8641663   3.3945797  30.1649992   8.2404990   0.5699997
  30.8659992   8.2634990   1.2219997  30.4669992   7.6124990  -0.0860003
  30.3018202   8.1587223   0.5705591  37.4799992   9.1614990  11.8249997
  36.8279992   9.8554990  11.9139997  37.9449992   9.3714990  11.0149997
  37.4535357   9.2849544  11.7277056  33.5169992   9.9924990   4.4829997
  32.7849992  10.2214990   5.0559997  33.9639992   9.2794990   4.9379997
  33.4772753   9.9273984   4.6229698  61.0409992  28.8454990  90.6029997
  61.1109992  29.4964990  91.3009997  60.1499992  28.9484990  90.2679997
  60.9301802  28.9484769  90.6532231  33.4139992   8.1674990  13.5509997
  33.4939992   8.9304990  14.1229997  32.8129992   8.4464990  12.8609997
  33.3436547   8.3097468  13.5360029  25.1619992  10.6234990   6.3659997
  24.8319992  10.2524990   5.5479997  25.7499992   9.9524990   6.7129997
  25.1963182  10.4820648   6.3009898  26.5289992  14.0514990   9.0469997
  26.4339992  13.4724990   8.2909997  27.2579992  13.6804990   9.5429997
  26.6146011  13.9220572   9.0106011  25.5289992   9.3914990   9.9989997
  26.0939992   9.5134990   9.2369997  25.8469992  10.0294990  10.6379997
  25.6493619   9.4944388   9.9810019  31.8379992  14.8954990  10.7329997
  31.5969992  15.5574990  11.3809997  31.6399992  14.0604990  11.1579997
  31.7782662  14.8732704  10.8791008  26.4089992  13.7914990  14.7169997
  26.0969992  14.5734990  15.1719997  25.7589992  13.6384990  14.0309997
  26.2784858  13.8777882  14.6865344  32.3879992   9.1554990   2.1689997
  32.9669992   9.3054990   2.9149997  32.8019992   9.6254990   1.4449997
  32.5233358   9.2395966   2.1733935  23.3289992   9.9894990  13.9449997
  23.3989992  10.6404990  14.6439997  22.4379992  10.0924990  13.6099997
  23.2181690  10.0924261  13.9953026  30.1139992  15.8914990   5.6039997
  30.5879992  16.1874990   6.3809997  29.5509992  16.6304990   5.3709997
  30.1027890  16.0318047   5.6788084  24.6479992  15.8624990  15.4799997
  24.6559992  15.7264990  14.5329997  23.7319992  15.7454990  15.7319997
  24.5252528  15.8280475  15.3843226  67.8259992  34.7474990  82.2619997
  68.2999992  35.0434990  83.0389997  67.2629992  35.4864990  82.0279997
  67.8148461  34.8878336  82.3367626  36.0859992   0.9054990   1.9809997
  35.1859992   1.0434990   2.2769997  36.3379992   1.7364990   1.5799997
  35.9967727   1.0368705   1.9672935  24.1519992   9.6924990   3.9549997
  23.8599992  10.4604990   3.4639997  23.4779992   9.0334990   3.7919997
  24.0208843   9.7084537   3.8657695  37.2759992  15.2714990   0.3579997
  37.3489992  16.2104990   0.5279997  38.1809992  14.9664990   0.3019997
  37.4084170  15.3588294   0.3737045  20.2449992  12.0554990  12.7699997
  19.7439992  12.0274990  11.9549997  20.2509992  11.1504990  13.0799997
  20.1771690  11.9292234  12.7002770  19.9959992  14.8364990   9.6539997
  20.9419992  14.6914990   9.6349997  19.8829992  15.6204990  10.1909997
  20.1103578  14.9226708   9.7240300  38.1929992  15.5024990  15.3369997
  38.1439992  14.5464990  15.2989997  37.3669992  15.7694990  15.7379997
  38.0745096  15.4078416  15.3860698  29.1719992  15.0764990  14.2129997
  29.2589992  15.9024990  14.6879997  28.3079992  14.7464990  14.4619997
  29.0671944  15.1449871  14.3116558  29.5859992  18.8484990   4.0189997
  29.5109992  18.7274990   3.0719997  29.6189992  19.7974990   4.1369997
  29.5802083  18.9602639   3.9054973  23.2399992  17.6374990   5.7999997
  23.3919992  17.2894990   6.6779997  22.3889992  17.2804990   5.5439997
  23.1458344  17.5415891   5.8856851  32.6879992  18.0024990   1.0209997
  33.0629992  17.2584990   0.5499997  32.6919992  17.7324990   1.9389997
  32.7398969  17.8640920   1.0806475  62.3599992  34.7184990  92.1379997
  62.3679992  34.5824990  91.1899997  61.4439992  34.6014990  92.3899997
  62.2372512  34.6840663  92.0423179  32.3569992  17.9284990   3.7699997
  31.4219992  18.0284990   3.9489997  32.6369992  17.2184990   4.3489997
  32.2669471  17.8462944   3.8726678  35.3449992   6.9954990  15.8169997
  34.9379992   7.4754990  15.0959997  35.3859992   6.0894990  15.5089997
  35.2948403   6.9387989  15.6767253  22.4939992  13.3794990  13.8129997
  22.7099992  13.0174990  14.6729997  21.6389992  13.0044990  13.6039997
  22.4079082  13.2793377  13.9022396  25.1129992   1.8494990   9.8089997
  24.2509992   1.7624990   9.4009997  25.0909992   2.7054990  10.2369997
  24.9920557   1.9533078   9.8110202  29.7759992   1.5714990  13.1839997
  30.1959992   1.1564990  13.9369997  28.8429992   1.3924990  13.3009997
  29.7073736   1.4904921  13.3028950  33.1019992   5.3264990  14.0369997
  32.5879992   5.2014990  14.8349997  32.9469992   6.2394990  13.7929997
  33.0107802   5.4327433  14.1131504  33.8649992  10.1874990  -0.2020003
  33.9069992   9.9654990  -1.1320003  34.7139992  10.5864990  -0.0120003
  33.9855253  10.2110510  -0.3036196  29.4379992   4.0634990   0.4689997
  29.1839992   4.0824990   1.3909997  29.1809992   3.1924990   0.1669997
  29.3684508   3.9483292   0.5544786  25.2039992   6.8144990  10.9039997
  24.5619992   6.7744990  11.6129997  25.2409992   7.7414990  10.6659997
  25.1211659   6.9342540  10.9688463  25.2009992   7.0354990   5.8159997
  24.3079992   6.6954990   5.7569997  25.6519992   6.6584990   5.0599997
  25.1397185   6.9380220   5.7057698  73.7979992  19.7614990  78.6389997
  72.8979992  19.8994990  78.9339997  74.0499992  20.5924990  78.2369997
  73.7087355  19.8928200  78.6250539  30.7369992   7.4514990   4.6329997
  30.3279992   8.2664990   4.3409997  31.4569992   7.3114990   4.0189997
  30.7784439   7.5440383   4.5100098  29.8389992   7.6274990  16.1209997
  29.2759992   6.9224990  16.4419997  30.6649992   7.5064990  16.5889997
  29.8736674   7.5147176  16.2281734  31.7409992   6.8974990   7.4469997
  31.5459992   7.5034990   6.7319997  31.9229992   6.0644990   7.0129997
  31.7389195   6.8677936   7.2904079  22.9539992   7.1354990  12.7709997
  22.9159992   7.5354990  13.6399997  22.4629992   6.3184990  12.8609997
  22.8824374   7.0798228  12.9020980  26.3199992   4.5094990  -0.4300003
  25.8889992   4.0644990   0.2989997  25.6019992   4.8804990  -0.9430003
  26.1639176   4.4987063  -0.3995087  19.5619992   4.2514990   6.6219997
  20.1929992   4.2224990   7.3409997  20.0119992   3.8264990   5.8909997
  19.7091082   4.1901269   6.6216307  20.8359992   4.9974990   2.0459997
  21.3109992   5.5884990   1.4609997  20.1189992   5.5274990   2.3929997
  20.8040406   5.1501011   2.0128495  31.0049992   8.5354990  12.1179997
  31.3289992   7.9044990  11.4749997  30.5649992   8.0014990  12.7789997
  30.9898707   8.3768261  12.1193195  27.7829992   4.4634990   6.9019997
  26.8719992   4.5204990   7.1909997  28.2879992   4.4034990   7.7129997
  27.7266873   4.4631838   7.0511190  22.6109992   6.0924990   5.7289997
  21.7219992   6.1914990   5.3889997  22.9069992   5.2504990   5.3829997
  22.5294001   5.9922473   5.6357318  61.8639992  28.5484990  80.6129997
  61.5719992  29.3164990  80.1219997  61.1899992  27.8894990  80.4499997
  61.7328843  28.5644537  80.5237695  26.2639992   6.0924990   3.3859997
  27.1959992   6.2214990   3.5639997  26.0489992   6.7614990   2.7359997
  26.3624472   6.2005817   3.3224873  32.1879992   3.6984990  10.1659997
  31.5109992   3.8294990  10.8299997  31.7019992   3.5434990   9.3559997
  32.0297265   3.6954665  10.1473380  24.9379992   7.2864990   0.9519997
  24.3959992   6.9074990   0.2609997  25.7719992   7.4814990   0.5239997
  24.9764390   7.2609091   0.7994374  35.4749992  19.3694990  16.4429997
  35.6749992  19.7934990  15.6089997  36.1309992  19.7134990  17.0499997
  35.5909937  19.4739993  16.4108645  23.0729992  11.8434990  16.0509997
  23.8049992  12.0984990  16.6129997  22.2929992  12.0484990  16.5669997
  23.0676526  11.9060438  16.1975168  29.1029992   7.2504990   8.7889997
  29.6669992   6.7044990   8.2419997  28.9549992   6.7294990   9.5779997
  29.1603037   7.1051798   8.8207212  24.1049992   3.3874990   5.2079997
  23.7869992   2.4844990   5.1719997  24.8859992   3.3894990   4.6549997
  24.1671079   3.2642240   5.1282908  27.7289992   5.6394990  11.2029997
  26.8939992   6.0934990  11.3139997  28.2529992   5.9154990  11.9549997
  27.6856072   5.7388960  11.3198118  28.2729992  11.8524990   2.8879997
  27.5279992  11.3444990   2.5659997  28.1389992  11.9014990   3.8339997
  28.1529334  11.7896144   2.9718892  35.4229992  10.9854990  11.6749997
  36.0649992  11.4414990  11.1309997  34.5929992  11.0984990  11.2119997
  35.3986536  11.0631813  11.5379579  57.9569992  30.9114990  89.4279997
  57.4559992  30.8834990  88.6129997  57.9629992  30.0064990  89.7379997
  57.8891690  30.7852234  89.3582770  32.1709992   4.6664990   1.0869997
  31.2319992   4.7774990   0.9359997  32.4679992   5.5224990   1.3939997
  32.0826136   4.7974977   1.1078568  29.7929992  12.0364990  14.1249997
  29.4469992  11.6544990  14.9319997  29.5929992  12.9694990  14.1959997
  29.7185987  12.1104013  14.2450443  32.8889992   6.5334990   2.7479997
  33.7809992   6.3954990   3.0669997  32.9459992   7.3244990   2.2109997
  33.0187380   6.6214777   2.7190981  23.3979992  11.1474990   8.6579997
  24.1429992  11.1444990   8.0559997  23.4759992  10.3234990   9.1389997
  23.5103365  11.0357395   8.6407412  30.3989992  13.3104990   1.9129997
  30.1039992  14.1374990   2.2949997  29.6959992  12.6914990   2.1099997
  30.2636379  13.3399182   1.9918636  20.4059992   9.6074990  13.9729997
  20.6289992   9.1894990  14.8039997  19.8039992   8.9954990  13.5499997
  20.3551513   9.4674617  14.0296722  27.4229992   9.1244990  16.1859997
  27.1269992   8.9594990  15.2899997  28.3539992   8.9044990  16.1749997
  27.5084401   9.0721891  16.0620189  32.0429992  14.4984990  14.0749997
  31.1419992  14.6814990  13.8079997  32.0769992  14.7574990  14.9959997
  31.9243861  14.5585245  14.1629517  37.7739992   6.7424990   2.4429997
  37.2199992   6.3464990   1.7699997  37.8749992   7.6534990   2.1649997
  37.7118589   6.8113904   2.3133839  37.7369992  12.5434990  15.2799997
  36.8859992  12.7814990  14.9119997  38.3279992  12.5264990  14.5259997
  37.7003831  12.5737623  15.1278448  57.7079992  33.6924990  86.3119997
  58.6539992  33.5474990  86.2929997  57.5949992  34.4764990  86.8489997
  57.8223578  33.7786708  86.3820300  36.0689992  15.5284990   2.9079997
  35.6969992  14.7034990   3.2169997  36.3469992  15.3454990   2.0099997
  36.0555807  15.3907031   2.8290063  33.2299992  10.3364990   9.9289997
  32.3019992  10.1054990   9.9019997  33.6809992   9.5594990   9.5989997
  33.1638165  10.1997785   9.8806772  25.7729992  14.6654990   6.0619997
  26.2999992  15.4384990   5.8619997  24.8929992  14.8894990   5.7599997
  25.7262121  14.8017344   5.9937460  21.5279992   9.5274990   0.6489997
  22.1439992  10.1544990   1.0289997  20.6659992   9.8434990   0.9209997
  21.4957678   9.6559423   0.7377192  27.1999992  12.3284990   5.6379997
  26.9589992  13.2534990   5.6799997  26.4599992  11.8694990   6.0349997
  27.0669463  12.3930969   5.6974279  27.7149992  16.4774990  11.9529997
  28.0779992  17.3314990  11.7199997  28.2469992  16.1854990  12.6939997
  27.8365141  16.5548907  12.0212079  25.8829992  17.3494990   5.1839997
  24.9339992  17.4554990   5.2349997  26.2349992  18.1704990   5.5279997
  25.8005647  17.4750029   5.2374882  31.2589992  12.5764990  11.6539997
  30.8329992  12.3484990  12.4799997  31.8399992  11.8374990  11.4719997
  31.2792088  12.4454393  11.7424454  33.4619992  13.5054990   0.7279997
  33.8149992  13.1254990   1.5319997  32.5129992  13.4114990   0.8149997
  33.3820956  13.4407867   0.8498005  33.9179992  17.1284990  14.1229997
  33.3159992  16.5724990  13.6279997  34.1989992  17.7954990  13.4969997
  33.8735757  17.1425755  13.9705657  75.9049992  34.3584990  91.9939997
  75.8559992  33.4024990  91.9569997  75.0789992  34.6254990  92.3959997
  75.7865767  34.2638841  92.0433133  37.9649992  17.9844990   0.9289997
  38.7089992  18.5704990   0.7889997  37.2709992  18.5534990   1.2619997
  37.9729809  18.1415830   0.9548572  22.0399992   4.3614990  13.5309997
  21.1469992   4.6994990  13.4629997  21.9409992   3.5054990  13.9489997
  21.9044752   4.2920986  13.5781644  34.3279992  12.1774990   2.9549997
  34.0509992  11.4494990   3.5109997  35.2549992  12.2964990   3.1599997
  34.4154419  12.0939436   3.0588264  21.6909992  16.1654990  11.9659997
  21.9079992  15.2334990  11.9349997  21.9379992  16.4404990  12.8489997
  21.7540948  16.0750976  12.0811268  26.4899992  14.1874990   1.6309997
  26.6369992  13.6674990   2.4209997  26.4869992  15.0944990   1.9379997
  26.5097102  14.2388964   1.7805907  22.9429992  11.4394990   2.1419997
  22.2569992  11.7924990   2.7089997  23.4659992  12.2024990   1.8949997
  22.9198402  11.5908912   2.1861783  30.7739992   4.1024990  12.4209997
  31.4729992   4.1764990  13.0709997  30.3939992   3.2374990  12.5749997
  30.8182662   3.9957050  12.5307412  31.5589992   3.7544990   3.5179997
  31.7789992   4.2254990   2.7139997  32.1169992   4.1484990   4.1879997
  31.6646044   3.8722946   3.4985207  29.2279992  15.8844990   2.3809997
  28.4109992  16.3814990   2.4329997  29.7569992  16.3604990   1.7399997
  29.1878125  16.0167000   2.3015289  28.7589992   5.4824990   4.3529997
  29.5709992   5.9864990   4.3989997  28.5139992   5.3374990   5.2669997
  28.8371091   5.5319366   4.4828552  66.8839992  33.9324990  90.8699997
  66.9709992  34.7584990  91.3449997  66.0199992  33.6024990  91.1189997
  66.7791944  34.0009871  90.9686558  29.2949992   6.4684990  13.5369997
  29.4139992   7.0424990  14.2939997  29.9499992   5.7804990  13.6519997
  29.3998684   6.4540205  13.6561656  29.6429992   2.5634990   5.2909997
  29.2959992   3.1804990   5.9349997  30.3009992   3.0644990   4.8089997
  29.6844430   2.7156860   5.3140045  26.5659992  16.9284990   2.3619997
  26.7269992  17.7284990   1.8619997  26.3689992  17.2354990   3.2469997
  26.5613906  17.0793690   2.4132316  25.2999992   3.6264990   1.9779997
  25.2169992   4.5144990   2.3249997  26.1899992   3.3614990   2.2099997
  25.4089331   3.7121177   2.0568067  35.4989992   4.3754990  14.3719997
  34.5829992   4.6374990  14.2849997  35.8349992   4.3724990  13.4759997
  35.4188499   4.4110174  14.2388748  34.1009992   8.1254990   8.4679997
  33.3039992   7.7104990   8.1399997  34.5459992   7.4354990   8.9589997
  34.0520367   7.9753372   8.4894897  23.5589992  14.0534990   1.0379997
  24.1509992  14.7534990   1.3149997  24.0179992  13.6204990   0.3189997
  23.7021652  14.0907686   0.9786515  21.8749992   6.7184990   0.1539997
  21.8299992   7.6574990   0.3329997  20.9869992   6.4824990  -0.1150003
  21.7488166   6.8151698   0.1421507  35.1879992  17.3814990  10.0899997
  35.0319992  18.0604990   9.4329997  36.1199992  17.4534990  10.2929997
  35.2927328  17.4841586  10.0275529  22.6829992   1.4994990   8.8269997
  22.4539992   1.5584990   7.8999997  22.2399992   0.7084990   9.1339997
  22.5917387   1.4006412   8.7415223  67.2979992  37.7044990  80.6759997
  67.2229992  37.5834990  79.7299997  67.3309992  38.6534990  80.7949997
  67.2921862  37.8162492  80.5624840  21.6129992  15.4404990   4.9879997
  20.7809992  15.9124990   5.0149997  22.1589992  15.9504990   4.3889997
  21.5728710  15.5740317   4.9107570  20.9019992  18.0524990  16.3179997
  21.4419992  17.8364990  17.0779997  20.4199992  17.2474990  16.1279997
  20.9108485  17.9140463  16.3964870  25.4989992  16.9724990  17.9379997
  26.2669992  16.5134990  18.2789997  25.4779992  16.7464990  17.0079997
  25.6012135  16.8791680  17.8589473  29.5909992  16.4804990  -0.6870003
  28.9469992  15.8494990  -0.3650003  30.3529992  15.9494990  -0.9180003
  29.6058708  16.3223171  -0.6741539  32.0759992  15.3524990  16.6669997
  31.7249992  14.4954990  16.9099997  32.8019992  15.4944990  17.2739997
  32.1261590  15.2545189  16.7822889  34.1949992  16.2974990  -0.4530003
  34.4779992  15.5024990  -0.0000003  34.9349992  16.5304990  -1.0140003
  34.3337295  16.2202349  -0.4668531  20.8089992  11.8634990  17.2719997
  20.9529992  10.9614990  16.9859997  20.0359992  12.1494990  16.7849997
  20.7242266  11.7786548  17.1670102  25.1499992  12.2064990  -0.5950003
  25.2139992  11.4124990  -0.0650003  25.8029992  12.0884990  -1.2850003
  25.2470483  12.0817496  -0.6156593  27.4639992  11.8324990  16.7049997
  27.1359992  12.1034990  15.8479997  27.6159992  10.8914990  16.6169997
  27.4396412  11.7424058  16.5757804  33.1989992  11.7484990  14.0879997
  33.9439992  12.3374990  13.9689997  32.4409992  12.3304990  14.1509997
  33.1985289  11.9077067  14.0802292  70.3999992  36.8584990  77.6789997
  70.7749992  36.1144990  77.2079997  70.4039992  36.5884990  78.5969997
  70.4518969  36.7200920  77.7386475  21.6409992   9.0634990  16.6919997
  22.0489992   8.2064990  16.5709997  21.3809992   9.0774990  17.6129997
  21.6617082   8.9480596  16.7999469  26.2989992  10.1794990   1.7109997
  25.8399992   9.6954990   2.3959997  26.5539992   9.5104990   1.0749997
  26.2705997  10.0228491   1.7188734  25.5879992   8.0724990  14.0669997
  24.9699992   8.7464990  14.3469997  25.9319992   8.3934990  13.2329997
  25.5498078   8.2082298  13.9926609  27.3699992   8.4224990  -0.0270003
  27.1899992   8.2674990  -0.9540003  28.3199992   8.5304990   0.0179997
  27.4737804   8.4158821  -0.1478034  30.6079992  10.5434990  17.3439997
  31.5609992  10.6274990  17.3169997  30.4479992   9.8314990  17.9629997
  30.7167320  10.4587292  17.4239933  36.7599992  10.7764990  -0.5810003
  36.4869992  10.3524990  -1.3940003  36.7999992  11.7084990  -0.7980003
  36.7280201  10.8443523  -0.7216452  25.9279992   5.4274990  15.1489997
  26.0779992   4.6984990  14.5469997  25.9299992   6.2044990  14.5899997
  25.9487967   5.4327720  14.9910523  26.3399992   3.7964990  12.6419997
  26.8759992   4.2484990  11.9899997  25.4879992   3.6884990  12.2189997
  26.2981795   3.8437444  12.4956211  27.9219992   9.2364990  12.8809997
  28.6729992   9.0804990  12.3079997  27.5829992  10.0884990  12.6059997
  27.9789587   9.3303149  12.7654060  32.3379992   7.0514990  17.9099997
  32.5299992   6.1204990  17.7979997  33.1949992   7.4764990  17.8989997
  32.4802176   6.9815090  17.8931757  70.0689992  36.7844990  80.4279997
  69.1339992  36.8844990  80.6069997  70.3489992  36.0744990  81.0059997
  69.9789270  36.7022300  80.5305984  33.6539992   9.8404990  15.9869997
  33.3729992  10.5494990  15.4089997  34.5969992   9.7674990  15.8359997
  33.7429272   9.9276704  15.8874976  24.4059992   6.6254990  17.0599997
  23.6389992   6.0924990  16.8499997  25.0849992   6.3154990  16.4609997
  24.3928292   6.5106360  16.9502693  27.1459992   1.2534990  13.0729997
  27.0479992   2.1994990  12.9679997  26.4029992   0.8804990  12.5969997
  27.0322123   1.3326811  12.9943204  28.4099992   5.5744990  16.6369997
  28.1739992   5.3554990  17.5379997  27.6269992   5.3674990  16.1269997
  28.2718382   5.5165340  16.6913991  31.1259992   4.7024990  15.7119997
  30.1779992   4.7344990  15.8439997  31.4379992   4.0764990  16.3659997
  31.0385293   4.6222934  15.8184130  32.7599992   3.3364990  17.7169997
  32.6629992   2.3844990  17.7119997  32.4379992   3.6044990  18.5779997
  32.7032468   3.2425896  17.8326192  22.5869992   4.5454990  16.7649997
  22.7979992   3.8394990  16.1549997  22.4749992   4.1084990  17.6089997
  22.6007668   4.3896619  16.7955445  27.3679992   0.5474990  15.7439997
  28.0789992  -0.0925010  15.7299997  27.2669992   0.8134990  14.8309997
  27.4516858   0.4958591  15.6185501  27.7209992   2.2294990  17.7979997
  27.5899992   1.7544990  16.9779997  27.1219992   2.9744990  17.7429997
  27.6220829   2.2650949  17.6781823  27.2679992  19.1124990   0.9739997
  28.2009992  19.2704990   1.1179997  27.0029992  19.7884990   0.3489997
  27.3599846  19.2254567   0.9092930  73.0569992  25.8514990  92.4739997
  72.6499992  26.3314990  91.7539997  73.0979992  24.9454990  92.1669997
  73.0067178  25.7948609  92.3337441  20.8359992  13.7494990   0.4569997
  21.7499992  13.8284990   0.7299997  20.8429992  13.0624990  -0.2090003
  20.9620624  13.6674074   0.4043045  19.4849992  19.1424990   5.5339997
  18.8379992  18.6804990   5.0019997  19.8399992  18.4704990   6.1169997
  19.4443741  18.9884785   5.5399157  20.3549992  17.2224990   7.3389997
  20.0209992  16.3424990   7.5109997  20.5769992  17.5684990   8.2039997
  20.3392565  17.1487410   7.4794263  37.9039992  18.0324990  10.3199997
  37.8819992  18.2174990  11.2579997  38.5939992  18.6004990   9.9789997
  37.9943383  18.1347104  10.4024580  37.4669992  17.5994990  13.2409997
  36.9799992  16.8634990  12.8699997  38.0159992  17.2054990  13.9189997
  37.4746101  17.4456267  13.2819034  35.9179992  13.3894990  17.8789997
  35.0519992  13.2844990  18.2739997  36.2939992  14.1474990  18.3259997
  35.8504940  13.4776141  17.9933958  37.2189992  11.6454990   3.3939997
  38.0689992  12.0664990   3.5209997  37.2239992  10.9054990   4.0009997
  37.3361143  11.6031106   3.4934732  37.6129992   9.6994990   5.2169997
  36.8869992   9.2194990   5.6149997  38.1939992   9.9044990   5.9489997
  37.5922504   9.6615592   5.3704199  37.3719992  12.4844990  10.1649997
  38.2059992  12.1064990   9.8839997  37.4839992  13.4274990  10.0459997
  37.5011917  12.5602954  10.1104844  35.8579992  15.3624990  12.4719997
  35.2109992  15.6874990  13.0969997  35.3409992  14.9214990  11.7979997
  35.6994112  15.3474133  12.4665272  60.2059992  32.2354990  90.4709997
  60.4219992  31.8734990  91.3309997  59.3509992  31.8604990  90.2609997
  60.1199349  32.1352914  90.5602134  37.8809992   9.6004990   1.6079997
  37.3599992   9.9564990   0.8899997  37.8479992  10.2754990   2.2869997
  37.8050955   9.7405023   1.6012634  36.2299992   6.8394990   0.1589997
  36.3269992   7.5064990  -0.5210003  36.0899992   6.0244990  -0.3220003
  36.2243407   6.8205670   0.0008312  35.3999992   8.2204990   5.7799997
  35.2499992   7.2754990   5.7599997  35.0459992   8.5014990   6.6239997
  35.3316351   8.1291656   5.8913202  20.4349992  10.2984990   9.7909997
  20.6189992  10.2164990   8.8549997  21.2839992  10.1744990  10.2139997
  20.5750132  10.2705066   9.7201460  36.2559992  10.1904990  15.4189997
  36.8389992   9.4554990  15.6109997  36.8199992  10.9624990  15.4659997
  36.4119781  10.1943156  15.4516146  37.7529992   8.0934990  16.1039997
  36.8889992   7.7144990  15.9379997  38.3569992   7.3544990  16.0289997
  37.7165394   7.9418378  16.0711778  35.1099992   5.8024990   4.2429997
  35.3899992   4.8954990   4.3669997  35.8689992   6.2364990   3.8539997
  35.2509258   5.7370935   4.2073691  35.7219992   6.3844990   9.6789997
  36.6549992   6.5964990   9.6439997  35.4869992   6.4854990  10.6009997
  35.8179517   6.4271844   9.7989113  35.7509992   7.1214990  12.4549997
  34.9079992   7.3894990  12.8199997  36.1939992   7.9434990  12.2439997
  35.6954035   7.2693351  12.4764770  20.0319992   5.5684990  15.9309997
  20.9519992   5.4464990  16.1679997  19.5829992   4.8184990  16.3209997
  20.0970500   5.4504576  16.0161016  62.8249992  20.7054990  86.4669997
  61.9629992  20.6184990  86.0589997  62.8029992  21.5614990  86.8939997
  62.7040953  20.8093558  86.4689262  38.0339992   1.1014990  17.8079997
  38.3839992   0.4474990  17.2019997  38.1809992   1.9384990  17.3679997
  38.1017192   1.1252545  17.6656712  35.7239992   3.0654990   4.2909997
  35.9059992   2.6164990   5.1159997  35.1239992   2.4814990   3.8269997
  35.6678187   2.9250563   4.3412721  21.2539992   3.8814990   8.8229997
  21.6989992   3.0894990   9.1249997  21.7199992   4.5974990   9.2529997
  21.3779718   3.8699546   8.9225247  19.5579992   6.8804990   9.8919997
  20.0499992   6.6594990   9.1009997  19.9199992   7.7204990  10.1729997
  19.6742923   6.9638480   9.8217389  37.5539992   3.2104990  16.1569997
  36.6369992   3.4814990  16.1209997  37.6769992   2.6754990  15.3729997
  37.4450828   3.1752711  16.0460767  37.5899992   3.1334990   0.8189997
  38.0029992   2.4124990   0.3439997  38.2719992   3.8024990   0.8769997
  37.7386060   3.1253741   0.7619233  19.8709992   3.1384990   3.9459997
  18.9459992   3.3464990   3.8169997  20.3249992   3.6224990   3.2559997
  19.8056298   3.2324311   3.8350433  34.6419992  18.1224990   5.8919997
  35.2939992  17.7744990   5.2839997  35.1529992  18.6104990   6.5379997
  34.8002872  18.1408248   5.8960964  19.8349992   1.8764990  12.2899997
  19.1699992   1.6304990  12.9329997  19.3919992   2.4984990  11.7129997
  19.6841168   1.9269225  12.2999830  22.0269992  15.0514990  16.4349997
  21.2059992  15.2264990  15.9739997  21.7749992  14.9784990  17.3549997
  21.8805594  15.0655728  16.4963593  67.4879992  20.4274990  89.8409997
  67.9079992  20.0124990  90.5939997  66.5549992  20.2484990  89.9579997
  67.4193736  20.3464921  89.9598950  24.9809992  16.0254990  12.6929997
  24.5559992  16.8354990  12.4109997  25.8849992  16.1114990  12.3909997
  25.0450706  16.1479557  12.6135836  29.2919992  17.4244990  15.6529997
  29.4769992  17.0914990  16.5309997  30.1389992  17.7344990  15.3309997
  29.4317291  17.4208214  15.7296140  31.6369992  18.7104990  14.8969997
  32.3139992  18.0774990  14.6569997  31.9589992  19.1114990  15.7039997
  31.7731618  18.6781147  14.9732802  36.5549992   1.3004990  13.9759997
  35.7419992   1.6254990  13.5889997  36.7879992   0.5394990  13.4429997
  36.4751347   1.2421891  13.8509824  22.3829992  19.2824990  12.7409997
  21.6619992  19.7224990  12.2899997  22.0169992  19.0314990  13.5889997
  22.2349632  19.3087235  12.7939649  24.8499992  18.8824990  11.7699997
  23.9849992  18.9544990  12.1739997  24.7949992  19.4294990  10.9869997
  24.7242289  18.9663242  11.7193749  29.5609992  18.7704990  10.9459997
  29.1039992  19.2994990  10.2919997  29.7229992  19.3734990  11.6709997
  29.5203919  18.9243990  10.9545740  31.8879992  17.6484990  11.8909997
  30.9839992  17.8134990  11.6249997  32.3169992  18.5014990  11.8249997
  31.8222017  17.7864184  11.8456495  34.4919992  19.2184990  12.1859997
  34.3109992  20.1344990  11.9749997  34.6689992  18.8074990  11.3389997
  34.4911377  19.2883365  12.0427178  21.7979992  17.9054990   9.6509997
  21.7789992  17.4794990  10.5079997  22.6019992  17.5864990   9.2419997
  21.9041393  17.8040297   9.7130155  70.8139992  24.1824990  90.6949997
  70.2999992  24.0574990  91.4919997  70.6589992  25.0954990  90.4499997
  70.7226643  24.2887068  90.7710624  23.9389992  16.6154990   8.3059997
  23.7199992  15.6984990   8.4759997  24.7629992  16.7554990   8.7719997
  24.0204702  16.5090523   8.3922510  26.4759992  17.0854990   9.1549997
  26.6889992  16.1974990   8.8679997  26.5409992  17.0504990  10.1089997
  26.5139149  16.9593338   9.2447351  29.9849992   2.7494990   8.2989997
  29.3099992   2.1194990   8.5549997  30.5489992   2.2654990   7.6959997
  29.9689363   2.5978886   8.2524810  35.1269992   0.8564990   8.4119997
  35.7309992   1.4044990   7.9099997  34.2579992   1.1754990   8.1709997
  35.0920419   0.9745628   8.3107741  36.8539992   1.9954990   6.7449997
  37.4659992   1.4814990   6.2179997  37.2369992   2.8724990   6.7679997
  36.9893867   2.0437613   6.6760888  22.3109992   1.3834990   6.1209997
  21.5339992   1.1484990   5.6139997  22.8419992   0.5864990   6.1299997
  22.2763735   1.2436462   6.0528090  21.1479992   1.1814990   1.9249997
  21.5869992   1.7924990   1.3329997  20.5139992   1.7194990   2.3989997
  21.1223859   1.3379076   1.9080287  26.8909992   1.3094990   5.9339997
  27.7649992   1.6984990   5.9049997  26.7549992   1.0944990   6.8569997
  26.9921953   1.3336654   6.0547599  32.4469992   1.3394990   7.5839997
  32.5239992   1.4354990   6.6339997  32.1719992   0.4324990   7.7119997
  32.4203233   1.2299093   7.4713665  33.8009992   1.3654990   3.2759997
  33.0979992   1.9804990   3.0659997  33.3559992   0.5284990   3.4069997
  33.6446550   1.3364679   3.2649819  62.9159992  25.6704990  87.5619997
  62.2739992  25.6304990  88.2709997  62.9529992  26.5974990  87.3239997
  62.8331659  25.7902540  87.6268463  21.0489992  17.1294990   2.8219997
  20.3639992  17.0914990   2.1549997  21.0519992  18.0414990   3.1099997
  20.9556806  17.2476669   2.7696961  23.0089992   3.0974990   0.3669997
  23.4999992   2.4674990  -0.1600003  23.6319992   3.3934990   1.0299997
  23.1605304   3.0512387   0.3844922  28.0349992   3.3904990   2.8239997
  28.2129992   2.7434990   3.5069997  27.9809992   4.2244990   3.2909997
  28.0520678   3.4146615   2.9806283  29.9129992  18.3384990   1.2199997
  30.7789992  18.7054990   1.0419997  29.6659992  17.8994990   0.4059997
  29.9981853  18.3294021   1.0855813  36.6219992  17.9014990   3.8989997
  36.4279992  17.1534990   3.3339997  36.5829992  18.6594990   3.3159997
  36.5901645  17.9015797   3.7428131  22.2689992   1.8974990  15.6389997
  21.9029992   1.1314990  16.0809997  23.1819992   1.9264990  15.9249997
  22.3423172   1.7965335  15.7381872  24.2419992   1.2474990  17.1739997
  25.1409992   0.9734990  16.9899997  23.8559992   0.5054990  17.6389997
  24.3127307   1.1097207  17.2117080  22.8669992  18.0494990  -0.1530003
  22.5989992  18.3354990   0.7209997  23.6379992  17.5034990  -0.0000003
  22.9345926  18.0147790  -0.0128812  32.6629992   0.5804990  17.3569997
  32.7399992   0.1544990  18.2099997  33.5569992   0.5934990  17.0139997
  32.7943263   0.5239345  17.4274366  35.8399992  16.6524990  16.0489997
  35.0579992  16.4664990  15.5289997  35.7679992  17.5824990  16.2659997
  35.7232975  16.7526973  16.0071822  62.9129992  25.8914990  82.4739997
  62.0199992  25.5514990  82.4149997  63.3639992  25.5144990  81.7179997
  62.8517185  25.7940220  82.3637698  50.2459992  10.5394990   6.0799997
  50.3349992  11.4834990   5.9469997  49.6069992  10.2644990   5.4219997
  50.1718378  10.6313846   5.9729258  49.1789992   9.7944990   9.4989997
  49.1399992   9.1484990  10.2039997  48.8559992   9.3274990   8.7269997
  49.1300469   9.6430005   9.4912803  41.5469992   9.4084990  11.0919997
  41.5879992   8.7834990  11.8149997  42.2499992  10.0324990  11.2739997
  41.6476223   9.4072318  11.2156164  52.8849992  12.7334990   7.7999997
  52.4439992  12.0134990   8.2509997  52.8719992  13.4544990   8.4299997
  52.8229215  12.7324303   7.9468088  42.4709992  13.8584990   9.6269997
  42.1009992  13.0564990   9.2569997  43.4119992  13.6904990   9.6729997
  42.5475984  13.7259649   9.5825586  39.0809992   7.5184990   5.0189997
  38.6329992   8.3644990   5.0009997  38.5199992   6.9394990   4.5039997
  38.9438546   7.5559004   4.9468874  39.7909992   9.6804990   7.1449997
  40.0049992   8.9104990   7.6719997  40.5289992   9.7704990   6.5419997
  39.9200073   9.5873546   7.1355786  49.9959992  17.8374990   8.0119997
  50.6159992  17.1614990   7.7389997  49.7879992  17.6194990   8.9209997
  50.0527679  17.7155032   8.0974518  47.5679992  12.2264990   9.9049997
  47.8719992  11.5404990   9.3099997  48.2899992  12.3454990  10.5229997
  47.7071240  12.1487325   9.9070941  56.2309992   3.8284990  10.7649997
  56.2799992   4.4384990  11.5009997  56.6569992   4.2894990  10.0419997
  56.2952851   3.9743266  10.7680532  68.4489992  26.3074990  81.2909997
  68.0399992  27.1224990  80.9989997  69.1689992  26.1674990  80.6759997
  68.4903946  26.3999963  81.1679616  50.7089992   6.6204990  10.2319997
  50.8509992   5.6744990  10.2519997  50.6029992   6.8274990   9.3039997
  50.7141051   6.5189706  10.1092249  43.8639992   4.7224990   7.5049997
  43.9069992   5.5824990   7.0859997  43.4059992   4.1694990   6.8709997
  43.8080163   4.7654174   7.3620604  51.5859992   4.8534990   5.9049997
  52.2319992   4.5244990   6.5299997  52.0959992   5.3704990   5.2829997
  51.7434289   4.8784333   5.9063681  40.4839992   7.1194990   8.2669997
  41.1379992   6.5694990   8.6989997  40.5079992   6.8454990   7.3499997
  40.5767199   7.0072178   8.2021650  45.6399992   8.6694990   7.4819997
  46.2559992   8.1424990   7.9909997  45.0539992   8.0294990   7.0779997
  45.6450652   8.5108919   7.4970277  56.6229992   5.3064990  13.0009997
  55.9339992   5.9644990  12.9059997  56.6379992   5.1084990  13.9379997
  56.5307756   5.3697614  13.1145795  42.6739992   3.6404990  11.5789997
  42.4549992   4.1704990  10.8119997  42.0059992   3.8664990  12.2259997
  42.5536975   3.7435979  11.5615123  50.0429992  13.1404990   5.1229997
  49.7469992  12.8174990   4.2709997  49.7189992  14.0404990   5.1639997
  49.9587458  13.2179678   5.0120598  45.2429992  11.3154990  11.8659997
  44.5029992  11.9144990  11.9699997  45.9569992  11.8694990  11.5499997
  45.2383146  11.4722611  11.8375150  53.3499992   4.1444990   7.8859997
  53.1349992   3.3784990   8.4189997  54.0059992   4.6164990   8.3989997
  53.4092673   4.1035739   8.0281972  67.5509992  26.4834990  92.7789997
  66.9879992  25.7784990  93.0989997  68.3769992  26.3624990  93.2459997
  67.5856423  26.3705614  92.8860168  42.2679992   5.5324990   9.5309997
  42.8809992   6.1654990   9.9039997  42.7799992   5.0604990   8.8749997
  42.4211933   5.5553380   9.4933477  43.6499992  13.2804990  12.6529997
  43.6449992  14.1594990  12.2749997  42.7969992  13.1964990  13.0779997
  43.5339199  13.3895901  12.6586942  39.7719992  12.9514990   3.4349997
  39.4999992  13.1804990   2.5459997  39.8169992  13.7884990   3.8959997
  39.7408360  13.0961034   3.3756186  53.3969992  14.5724990  10.1479997
  52.4549992  14.6314990  10.3099997  53.6729992  15.4784990  10.0109997
  53.3055865  14.7030299  10.1516174  53.6969992   2.8594990  11.5649997
  52.9609992   3.4694990  11.5279997  54.3809992   3.2744990  11.0389997
  53.6885367   2.9992562  11.4888156  46.6999992   0.9454990   9.0309997
  46.5829992  -0.0025010   8.9769997  45.8449992   1.2784990   9.3039997
  46.5683691   0.8605842   9.0605072  51.6489992  16.3534990   6.7729997
  52.0739992  15.6464990   6.2879997  51.9659992  17.1554990   6.3559997
  51.7500266  16.3650201   6.6502461  52.8079992  14.2544990   5.2819997
  52.5509992  13.5644990   4.6699997  52.8789992  13.8114990   6.1269997
  52.7824322  14.1001568   5.3125372  54.4939992  12.8214990  13.7589997
  54.6339992  12.2294990  13.0199997  54.6619992  13.6944990  13.4029997
  54.5358734  12.8584041  13.6096937  48.9669992   9.7834990   3.5319997
  48.2549992  10.3184990   3.1799997  49.6579992   9.8384990   2.8719997
  48.9629704   9.8641663   3.3945797  69.4529992  25.7534990  84.1049997
  69.2579992  26.3594990  83.3899997  69.6349992  24.9204990  83.6699997
  69.4509272  25.7237955  83.9484075  49.0209992   8.2404990   0.5699997
  49.7219992   8.2634990   1.2219997  49.3229992   7.6124990  -0.0860003
  49.1578202   8.1587223   0.5705591  56.3359992   9.1614990  11.8249997
  55.6839992   9.8554990  11.9139997  56.8009992   9.3714990  11.0149997
  56.3095357   9.2849544  11.7277056  52.3729992   9.9924990   4.4829997
  51.6409992  10.2214990   5.0559997  52.8199992   9.2794990   4.9379997
  52.3332753   9.9273984   4.6229698  52.2699992   8.1674990  13.5509997
  52.3499992   8.9304990  14.1229997  51.6689992   8.4464990  12.8609997
  52.1996547   8.3097468  13.5360029  44.0179992  10.6234990   6.3659997
  43.6879992  10.2524990   5.5479997  44.6059992   9.9524990   6.7129997
  44.0523182  10.4820648   6.3009898  45.3849992  14.0514990   9.0469997
  45.2899992  13.4724990   8.2909997  46.1139992  13.6804990   9.5429997
  45.4706011  13.9220572   9.0106011  44.3849992   9.3914990   9.9989997
  44.9499992   9.5134990   9.2369997  44.7029992  10.0294990  10.6379997
  44.5053619   9.4944388   9.9810019  50.6939992  14.8954990  10.7329997
  50.4529992  15.5574990  11.3809997  50.4959992  14.0604990  11.1579997
  50.6342662  14.8732704  10.8791008  45.2649992  13.7914990  14.7169997
  44.9529992  14.5734990  15.1719997  44.6149992  13.6384990  14.0309997
  45.1344858  13.8777882  14.6865344  51.2439992   9.1554990   2.1689997
  51.8229992   9.3054990   2.9149997  51.6579992   9.6254990   1.4449997
  51.3793358   9.2395966   2.1733935  60.6659992  25.9914990  89.4289997
  60.6279992  26.3914990  90.2969997  60.1749992  25.1744990  89.5189997
  60.5944246  25.9358842  89.5601171  42.1849992   9.9894990  13.9449997
  42.2549992  10.6404990  14.6439997  41.2939992  10.0924990  13.6099997
  42.0741690  10.0924261  13.9953026  48.9699992  15.8914990   5.6039997
  49.4439992  16.1874990   6.3809997  48.4069992  16.6304990   5.3709997
  48.9587890  16.0318047   5.6788084  43.5039992  15.8624990  15.4799997
  43.5119992  15.7264990  14.5329997  42.5879992  15.7454990  15.7319997
  43.3812528  15.8280475  15.3843226  54.9419992   0.9054990   1.9809997
  54.0419992   1.0434990   2.2769997  55.1939992   1.7364990   1.5799997
  54.8527727   1.0368705   1.9672935  43.0079992   9.6924990   3.9549997
  42.7159992  10.4604990   3.4639997  42.3339992   9.0334990   3.7919997
  42.8768843   9.7084537   3.8657695  56.1319992  15.2714990   0.3579997
  56.2049992  16.2104990   0.5279997  57.0369992  14.9664990   0.3019997
  56.2644170  15.3588294   0.3737045  39.1009992  12.0554990  12.7699997
  38.5999992  12.0274990  11.9549997  39.1069992  11.1504990  13.0799997
  39.0331690  11.9292234  12.7002770  38.8519992  14.8364990   9.6539997
  39.7979992  14.6914990   9.6349997  38.7389992  15.6204990  10.1909997
  38.9663578  14.9226708   9.7240300  57.0489992  15.5024990  15.3369997
  56.9999992  14.5464990  15.2989997  56.2229992  15.7694990  15.7379997
  56.9305096  15.4078416  15.3860698  48.0279992  15.0764990  14.2129997
  48.1149992  15.9024990  14.6879997  47.1639992  14.7464990  14.4619997
  47.9231944  15.1449871  14.3116558  57.2739992  23.1074990  83.2789997
  57.9049992  23.0784990  83.9989997  57.7239992  22.6824990  82.5489997
  57.4210905  23.0460839  83.2787479  48.4419992  18.8484990   4.0189997
  48.3669992  18.7274990   3.0719997  48.4749992  19.7974990   4.1369997
  48.4362083  18.9602639   3.9054973  42.0959992  17.6374990   5.7999997
  42.2479992  17.2894990   6.6779997  41.2449992  17.2804990   5.5439997
  42.0018344  17.5415891   5.8856851  51.5439992  18.0024990   1.0209997
  51.9189992  17.2584990   0.5499997  51.5479992  17.7324990   1.9389997
  51.5958969  17.8640920   1.0806475  51.2129992  17.9284990   3.7699997
  50.2779992  18.0284990   3.9489997  51.4929992  17.2184990   4.3489997
  51.1229471  17.8462944   3.8726678  54.2009992   6.9954990  15.8169997
  53.7939992   7.4754990  15.0959997  54.2419992   6.0894990  15.5089997
  54.1508403   6.9387989  15.6767253  41.3499992  13.3794990  13.8129997
  41.5659992  13.0174990  14.6729997  40.4949992  13.0044990  13.6039997
  41.2639082  13.2793377  13.9022396  43.9689992   1.8494990   9.8089997
  43.1069992   1.7624990   9.4009997  43.9469992   2.7054990  10.2369997
  43.8480557   1.9533078   9.8110202  48.6319992   1.5714990  13.1839997
  49.0519992   1.1564990  13.9369997  47.6989992   1.3924990  13.3009997
  48.5633736   1.4904921  13.3028950  51.9579992   5.3264990  14.0369997
  51.4439992   5.2014990  14.8349997  51.8029992   6.2394990  13.7929997
  51.8667802   5.4327433  14.1131504  52.7209992  10.1874990  -0.2020003
  52.7629992   9.9654990  -1.1320003  53.5699992  10.5864990  -0.0120003
  52.8415253  10.2110510  -0.3036196  58.5479992  23.8534990  78.7029997
  59.0229992  24.4444990  78.1179997  57.8309992  24.3834990  79.0499997
  58.5160406  24.0061011  78.6698495  48.2939992   4.0634990   0.4689997
  48.0399992   4.0824990   1.3909997  48.0369992   3.1924990   0.1669997
  48.2244508   3.9483292   0.5544786  44.0599992   6.8144990  10.9039997
  43.4179992   6.7744990  11.6129997  44.0969992   7.7414990  10.6659997
  43.9771659   6.9342540  10.9688463  44.0569992   7.0354990   5.8159997
  43.1639992   6.6954990   5.7569997  44.5079992   6.6584990   5.0599997
  43.9957185   6.9380220   5.7057698  49.5929992   7.4514990   4.6329997
  49.1839992   8.2664990   4.3409997  50.3129992   7.3114990   4.0189997
  49.6344439   7.5440383   4.5100098  48.6949992   7.6274990  16.1209997
  48.1319992   6.9224990  16.4419997  49.5209992   7.5064990  16.5889997
  48.7296674   7.5147176  16.2281734  50.5969992   6.8974990   7.4469997
  50.4019992   7.5034990   6.7319997  50.7789992   6.0644990   7.0129997
  50.5949195   6.8677936   7.2904079  41.8099992   7.1354990  12.7709997
  41.7719992   7.5354990  13.6399997  41.3189992   6.3184990  12.8609997
  41.7384374   7.0798228  12.9020980  45.1759992   4.5094990  -0.4300003
  44.7449992   4.0644990   0.2989997  44.4579992   4.8804990  -0.9430003
  45.0199176   4.4987063  -0.3995087  38.4179992   4.2514990   6.6219997
  39.0489992   4.2224990   7.3409997  38.8679992   3.8264990   5.8909997
  38.5651082   4.1901269   6.6216307  39.6919992   4.9974990   2.0459997
  40.1669992   5.5884990   1.4609997  38.9749992   5.5274990   2.3929997
  39.6600406   5.1501011   2.0128495  68.7169992  27.3914990  88.7759997
  69.0409992  26.7604990  88.1329997  68.2769992  26.8574990  89.4369997
  68.7018707  27.2328261  88.7773195  49.8609992   8.5354990  12.1179997
  50.1849992   7.9044990  11.4749997  49.4209992   8.0014990  12.7789997
  49.8458707   8.3768261  12.1193195  46.6389992   4.4634990   6.9019997
  45.7279992   4.5204990   7.1909997  47.1439992   4.4034990   7.7129997
  46.5826873   4.4631838   7.0511190  41.4669992   6.0924990   5.7289997
  40.5779992   6.1914990   5.3889997  41.7629992   5.2504990   5.3829997
  41.3854001   5.9922473   5.6357318  45.1199992   6.0924990   3.3859997
  46.0519992   6.2214990   3.5639997  44.9049992   6.7614990   2.7359997
  45.2184472   6.2005817   3.3224873  51.0439992   3.6984990  10.1659997
  50.3669992   3.8294990  10.8299997  50.5579992   3.5434990   9.3559997
  50.8857265   3.6954665  10.1473380  43.7939992   7.2864990   0.9519997
  43.2519992   6.9074990   0.2609997  44.6279992   7.4814990   0.5239997
  43.8324390   7.2609091   0.7994374  54.3309992  19.3694990  16.4429997
  54.5309992  19.7934990  15.6089997  54.9869992  19.7134990  17.0499997
  54.4469937  19.4739993  16.4108645  41.9289992  11.8434990  16.0509997
  42.6609992  12.0984990  16.6129997  41.1489992  12.0484990  16.5669997
  41.9236526  11.9060438  16.1975168  47.9589992   7.2504990   8.7889997
  48.5229992   6.7044990   8.2419997  47.8109992   6.7294990   9.5779997
  48.0163037   7.1051798   8.8207212  42.9609992   3.3874990   5.2079997
  42.6429992   2.4844990   5.1719997  43.7419992   3.3894990   4.6549997
  43.0231079   3.2642240   5.1282908  65.4949992  23.3194990  83.5599997
  64.5839992  23.3764990  83.8489997  65.9999992  23.2594990  84.3709997
  65.4386873  23.3191838  83.7091190  46.5849992   5.6394990  11.2029997
  45.7499992   6.0934990  11.3139997  47.1089992   5.9154990  11.9549997
  46.5416072   5.7388960  11.3198118  47.1289992  11.8524990   2.8879997
  46.3839992  11.3444990   2.5659997  46.9949992  11.9014990   3.8339997
  47.0089334  11.7896144   2.9718892  54.2789992  10.9854990  11.6749997
  54.9209992  11.4414990  11.1309997  53.4489992  11.0984990  11.2119997
  54.2546536  11.0631813  11.5379579  51.0269992   4.6664990   1.0869997
  50.0879992   4.7774990   0.9359997  51.3239992   5.5224990   1.3939997
  50.9386136   4.7974977   1.1078568  48.6489992  12.0364990  14.1249997
  48.3029992  11.6544990  14.9319997  48.4489992  12.9694990  14.1959997
  48.5745987  12.1104013  14.2450443  51.7449992   6.5334990   2.7479997
  52.6369992   6.3954990   3.0669997  51.8019992   7.3244990   2.2109997
  51.8747380   6.6214777   2.7190981  42.2539992  11.1474990   8.6579997
  42.9989992  11.1444990   8.0559997  42.3319992  10.3234990   9.1389997
  42.3663365  11.0357395   8.6407412  49.2549992  13.3104990   1.9129997
  48.9599992  14.1374990   2.2949997  48.5519992  12.6914990   2.1099997
  49.1196379  13.3399182   1.9918636  39.2619992   9.6074990  13.9729997
  39.4849992   9.1894990  14.8039997  38.6599992   8.9954990  13.5499997
  39.2111513   9.4674617  14.0296722  46.2789992   9.1244990  16.1859997
  45.9829992   8.9594990  15.2899997  47.2099992   8.9044990  16.1749997
  46.3644401   9.0721891  16.0620189  60.3229992  24.9484990  82.3869997
  59.4339992  25.0474990  82.0469997  60.6189992  24.1064990  82.0409997
  60.2414001  24.8482473  82.2937318  50.8989992  14.4984990  14.0749997
  49.9979992  14.6814990  13.8079997  50.9329992  14.7574990  14.9959997
  50.7803861  14.5585245  14.1629517  56.6299992   6.7424990   2.4429997
  56.0759992   6.3464990   1.7699997  56.7309992   7.6534990   2.1649997
  56.5678589   6.8113904   2.3133839  56.5929992  12.5434990  15.2799997
  55.7419992  12.7814990  14.9119997  57.1839992  12.5264990  14.5259997
  56.5563831  12.5737623  15.1278448  54.9249992  15.5284990   2.9079997
  54.5529992  14.7034990   3.2169997  55.2029992  15.3454990   2.0099997
  54.9115807  15.3907031   2.8290063  52.0859992  10.3364990   9.9289997
  51.1579992  10.1054990   9.9019997  52.5369992   9.5594990   9.5989997
  52.0198165  10.1997785   9.8806772  44.6289992  14.6654990   6.0619997
  45.1559992  15.4384990   5.8619997  43.7489992  14.8894990   5.7599997
  44.5822121  14.8017344   5.9937460  40.3839992   9.5274990   0.6489997
  40.9999992  10.1544990   1.0289997  39.5219992   9.8434990   0.9209997
  40.3517678   9.6559423   0.7377192  46.0559992  12.3284990   5.6379997
  45.8149992  13.2534990   5.6799997  45.3159992  11.8694990   6.0349997
  45.9229463  12.3930969   5.6974279  46.5709992  16.4774990  11.9529997
  46.9339992  17.3314990  11.7199997  47.1029992  16.1854990  12.6939997
  46.6925141  16.5548907  12.0212079  44.7389992  17.3494990   5.1839997
  43.7899992  17.4554990   5.2349997  45.0909992  18.1704990   5.5279997
  44.6565647  17.4750029   5.2374882  69.8999992  22.5544990  86.8239997
  69.2229992  22.6854990  87.4879997  69.4139992  22.3994990  86.0139997
  69.7417265  22.5514665  86.8053380  50.1149992  12.5764990  11.6539997
  49.6889992  12.3484990  12.4799997  50.6959992  11.8374990  11.4719997
  50.1352088  12.4454393  11.7424454  52.3179992  13.5054990   0.7279997
  52.6709992  13.1254990   1.5319997  51.3689992  13.4114990   0.8149997
  52.2380956  13.4407867   0.8498005  52.7739992  17.1284990  14.1229997
  52.1719992  16.5724990  13.6279997  53.0549992  17.7954990  13.4969997
  52.7295757  17.1425755  13.9705657  56.8209992  17.9844990   0.9289997
  57.5649992  18.5704990   0.7889997  56.1269992  18.5534990   1.2619997
  56.8289809  18.1415830   0.9548572  40.8959992   4.3614990  13.5309997
  40.0029992   4.6994990  13.4629997  40.7969992   3.5054990  13.9489997
  40.7604752   4.2920986  13.5781644  53.1839992  12.1774990   2.9549997
  52.9069992  11.4494990   3.5109997  54.1109992  12.2964990   3.1599997
  53.2714419  12.0939436   3.0588264  40.5469992  16.1654990  11.9659997
  40.7639992  15.2334990  11.9349997  40.7939992  16.4404990  12.8489997
  40.6100948  16.0750976  12.0811268  45.3459992  14.1874990   1.6309997
  45.4929992  13.6674990   2.4209997  45.3429992  15.0944990   1.9379997
  45.3657102  14.2388964   1.7805907  41.7989992  11.4394990   2.1419997
  41.1129992  11.7924990   2.7089997  42.3219992  12.2024990   1.8949997
  41.7758402  11.5908912   2.1861783  49.6299992   4.1024990  12.4209997
  50.3289992   4.1764990  13.0709997  49.2499992   3.2374990  12.5749997
  49.6742662   3.9957050  12.5307412  73.1869992  38.2254990  93.1009997
  73.3869992  38.6494990  92.2659997  73.8429992  38.5694990  93.7079997
  73.3029916  38.3299784  93.0687890  50.4149992   3.7544990   3.5179997
  50.6349992   4.2254990   2.7139997  50.9729992   4.1484990   4.1879997
  50.5206044   3.8722946   3.4985207  48.0839992  15.8844990   2.3809997
  47.2669992  16.3814990   2.4329997  48.6129992  16.3604990   1.7399997
  48.0438125  16.0167000   2.3015289  47.6149992   5.4824990   4.3529997
  48.4269992   5.9864990   4.3989997  47.3699992   5.3374990   5.2669997
  47.6931091   5.5319366   4.4828552  48.1509992   6.4684990  13.5369997
  48.2699992   7.0424990  14.2939997  48.8059992   5.7804990  13.6519997
  48.2558684   6.4540205  13.6561656  48.4989992   2.5634990   5.2909997
  48.1519992   3.1804990   5.9349997  49.1569992   3.0644990   4.8089997
  48.5404430   2.7156860   5.3140046  45.4219992  16.9284990   2.3619997
  45.5829992  17.7284990   1.8619997  45.2249992  17.2354990   3.2469997
  45.4173906  17.0793690   2.4132316  44.1559992   3.6264990   1.9779997
  44.0729992   4.5144990   2.3249997  45.0459992   3.3614990   2.2099997
  44.2649331   3.7121177   2.0568067  54.3549992   4.3754990  14.3719997
  53.4389992   4.6374990  14.2849997  54.6909992   4.3724990  13.4759997
  54.2748499   4.4110174  14.2388748  52.9569992   8.1254990   8.4679997
  52.1599992   7.7104990   8.1399997  53.4019992   7.4354990   8.9589997
  52.9080367   7.9753372   8.4894897  42.4149992  14.0534990   1.0379997
  43.0069992  14.7534990   1.3149997  42.8739992  13.6204990   0.3189997
  42.5581652  14.0907686   0.9786515  60.7849992  30.6994990  92.7089997
  61.5169992  30.9544990  93.2699997  60.0049992  30.9044990  93.2239997
  60.7797684  30.7621457  92.8554774  40.7309992   6.7184990   0.1539997
  40.6859992   7.6574990   0.3329997  39.8429992   6.4824990  -0.1150003
  40.6048166   6.8151698   0.1421507  54.0439992  17.3814990  10.0899997
  53.8879992  18.0604990   9.4329997  54.9759992  17.4534990  10.2929997
  54.1487328  17.4841586  10.0275529  41.5389992   1.4994990   8.8269997
  41.3099992   1.5584990   7.8999997  41.0959992   0.7084990   9.1339997
  41.4477387   1.4006412   8.7415223  40.4689992  15.4404990   4.9879997
  39.6369992  15.9124990   5.0149997  41.0149992  15.9504990   4.3889997
  40.4288710  15.5740317   4.9107570  39.7579992  18.0524990  16.3179997
  40.2979992  17.8364990  17.0779997  39.2759992  17.2474990  16.1279997
  39.7668485  17.9140463  16.3964870  44.3549992  16.9724990  17.9379997
  45.1229992  16.5134990  18.2789997  44.3339992  16.7464990  17.0079997
  44.4572135  16.8791680  17.8589473  48.4469992  16.4804990  -0.6870003
  47.8029992  15.8494990  -0.3650003  49.2089992  15.9494990  -0.9180003
  48.4618708  16.3223171  -0.6741539  50.9319992  15.3524990  16.6669997
  50.5809992  14.4954990  16.9099997  51.6579992  15.4944990  17.2739997
  50.9821590  15.2545189  16.7822889  53.0509992  16.2974990  -0.4530003
  53.3339992  15.5024990  -0.0000003  53.7909992  16.5304990  -1.0140003
  53.1897295  16.2202349  -0.4668531  39.6649992  11.8634990  17.2719997
  39.8089992  10.9614990  16.9859997  38.8919992  12.1494990  16.7849997
  39.5802266  11.7786548  17.1670102  66.8149992  26.1064990  85.4469997
  67.3789992  25.5604990  84.8999997  66.6669992  25.5854990  86.2359997
  66.8723037  25.9611798  85.4787212  44.0059992  12.2064990  -0.5950003
  44.0699992  11.4124990  -0.0650003  44.6589992  12.0884990  -1.2850003
  44.1030483  12.0817496  -0.6156593  46.3199992  11.8324990  16.7049997
  45.9919992  12.1034990  15.8479997  46.4719992  10.8914990  16.6169997
  46.2956412  11.7424058  16.5757804  52.0549992  11.7484990  14.0879997
  52.7999992  12.3374990  13.9689997  51.2969992  12.3304990  14.1509997
  52.0545289  11.9077067  14.0802292  40.4969992   9.0634990  16.6919997
  40.9049992   8.2064990  16.5709997  40.2369992   9.0774990  17.6129997
  40.5177082   8.9480596  16.7999469  45.1549992  10.1794990   1.7109997
  44.6959992   9.6954990   2.3959997  45.4099992   9.5104990   1.0749997
  45.1265997  10.0228491   1.7188734  44.4439992   8.0724990  14.0669997
  43.8259992   8.7464990  14.3469997  44.7879992   8.3934990  13.2329997
  44.4058078   8.2082298  13.9926609  46.2259992   8.4224990  -0.0270003
  46.0459992   8.2674990  -0.9540003  47.1759992   8.5304990   0.0179997
  46.3297804   8.4158821  -0.1478034  49.4639992  10.5434990  17.3439997
  50.4169992  10.6274990  17.3169997  49.3039992   9.8314990  17.9629997
  49.5727320  10.4587292  17.4239933  55.6159992  10.7764990  -0.5810003
  55.3429992  10.3524990  -1.3940003  55.6559992  11.7084990  -0.7980003
  55.5840201  10.8443523  -0.7216452  44.7839992   5.4274990  15.1489997
  44.9339992   4.6984990  14.5469997  44.7859992   6.2044990  14.5899997
  44.8047967   5.4327720  14.9910523  61.8169992  22.2434990  81.8649997
  61.4989992  21.3404990  81.8299997  62.5979992  22.2454990  81.3129997
  61.8791560  22.1201148  81.7854975  45.1959992   3.7964990  12.6419997
  45.7319992   4.2484990  11.9899997  44.3439992   3.6884990  12.2189997
  45.1541795   3.8437444  12.4956211  46.7779992   9.2364990  12.8809997
  47.5289992   9.0804990  12.3079997  46.4389992  10.0884990  12.6059997
  46.8349587   9.3303149  12.7654060  51.1939992   7.0514990  17.9099997
  51.3859992   6.1204990  17.7979997  52.0509992   7.4764990  17.8989997
  51.3362176   6.9815090  17.8931757  52.5099992   9.8404990  15.9869997
  52.2289992  10.5494990  15.4089997  53.4529992   9.7674990  15.8359997
  52.5989272   9.9276704  15.8874976  43.2619992   6.6254990  17.0599997
  42.4949992   6.0924990  16.8499997  43.9409992   6.3154990  16.4609997
  43.2488292   6.5106360  16.9502693  46.0019992   1.2534990  13.0729997
  45.9039992   2.1994990  12.9679997  45.2589992   0.8804990  12.5969997
  45.8882123   1.3326811  12.9943204  47.2659992   5.5744990  16.6369997
  47.0299992   5.3554990  17.5379997  46.4829992   5.3674990  16.1269997
  47.1278382   5.5165340  16.6913991  49.9819992   4.7024990  15.7119997
  49.0339992   4.7344990  15.8439997  50.2939992   4.0764990  16.3659997
  49.8945293   4.6222934  15.8184130  51.6159992   3.3364990  17.7169997
  51.5189992   2.3844990  17.7119997  51.2939992   3.6044990  18.5779997
  51.5592468   3.2425896  17.8326192  41.4429992   4.5454990  16.7649997
  41.6539992   3.8394990  16.1549997  41.3309992   4.1084990  17.6089997
  41.4567668   4.3896619  16.7955445  65.4409992  24.4954990  87.8609997
  64.6059992  24.9494990  87.9709997  65.9649992  24.7714990  88.6129997
  65.3975070  24.5949677  87.9777134  46.2239992   0.5474990  15.7439997
  46.9349992  -0.0925010  15.7299997  46.1229992   0.8134990  14.8309997
  46.3076858   0.4958591  15.6185501  46.5769992   2.2294990  17.7979997
  46.4459992   1.7544990  16.9779997  45.9779992   2.9744990  17.7429997
  46.4780829   2.2650949  17.6781823  46.1239992  19.1124990   0.9739997
  47.0569992  19.2704990   1.1179997  45.8589992  19.7884990   0.3489997
  46.2159846  19.2254567   0.9092930  39.6919992  13.7494990   0.4569997
  40.6059992  13.8284990   0.7299997  39.6989992  13.0624990  -0.2090003
  39.8180624  13.6674074   0.4043045  38.3409992  19.1424990   5.5339997
  37.6939992  18.6804990   5.0019997  38.6959992  18.4704990   6.1169997
  38.3003741  18.9884785   5.5399157  39.2109992  17.2224990   7.3389997
  38.8769992  16.3424990   7.5109997  39.4329992  17.5684990   8.2039997
  39.1952565  17.1487410   7.4794263  56.7599992  18.0324990  10.3199997
  56.7379992  18.2174990  11.2579997  57.4499992  18.6004990   9.9789997
  56.8503383  18.1347104  10.4024580  56.3229992  17.5994990  13.2409997
  55.8359992  16.8634990  12.8699997  56.8719992  17.2054990  13.9189997
  56.3306101  17.4456267  13.2819034  54.7739992  13.3894990  17.8789997
  53.9079992  13.2844990  18.2739997  55.1499992  14.1474990  18.3259997
  54.7064940  13.4776141  17.9933958  56.0749992  11.6454990   3.3939997
  56.9249992  12.0664990   3.5209997  56.0799992  10.9054990   4.0009997
  56.1921143  11.6031106   3.4934732  65.9849992  30.7084990  79.5459997
  65.2399992  30.2004990  79.2229997  65.8509992  30.7574990  80.4919997
  65.8648633  30.6455714  79.6297563  56.4689992   9.6994990   5.2169997
  55.7429992   9.2194990   5.6149997  57.0499992   9.9044990   5.9489997
  56.4482504   9.6615592   5.3704199  56.2279992  12.4844990  10.1649997
  57.0619992  12.1064990   9.8839997  56.3399992  13.4274990  10.0459997
  56.3571917  12.5602954  10.1104844  54.7139992  15.3624990  12.4719997
  54.0669992  15.6874990  13.0969997  54.1969992  14.9214990  11.7979997
  54.5554112  15.3474133  12.4665272  56.7369992   9.6004990   1.6079997
  56.2159992   9.9564990   0.8899997  56.7039992  10.2754990   2.2869997
  56.6610955   9.7405023   1.6012634  55.0859992   6.8394990   0.1589997
  55.1829992   7.5064990  -0.5210003  54.9459992   6.0244990  -0.3220003
  55.0803407   6.8205670   0.0008312  54.2559992   8.2204990   5.7799997
  54.1059992   7.2754990   5.7599997  53.9019992   8.5014990   6.6239997
  54.1876351   8.1291656   5.8913202  39.2909992  10.2984990   9.7909997
  39.4749992  10.2164990   8.8549997  40.1399992  10.1744990  10.2139997
  39.4310132  10.2705066   9.7201460  55.1119992  10.1904990  15.4189997
  55.6949992   9.4554990  15.6109997  55.6759992  10.9624990  15.4659997
  55.2679781  10.1943156  15.4516146  56.6089992   8.0934990  16.1039997
  55.7449992   7.7144990  15.9379997  57.2129992   7.3544990  16.0289997
  56.5725394   7.9418378  16.0711778  53.9659992   5.8024990   4.2429997
  54.2459992   4.8954990   4.3669997  54.7249992   6.2364990   3.8539997
  54.1069258   5.7370935   4.2073691  73.1349992  29.8414990  88.3319997
  73.7769992  30.2974990  87.7889997  72.3049992  29.9544990  87.8699997
  73.1107352  29.9193223  88.1950234  54.5779992   6.3844990   9.6789997
  55.5109992   6.5964990   9.6439997  54.3429992   6.4854990  10.6009997
  54.6739517   6.4271844   9.7989113  54.6069992   7.1214990  12.4549997
  53.7639992   7.3894990  12.8199997  55.0499992   7.9434990  12.2439997
  54.5514035   7.2693351  12.4764770  38.8879992   5.5684990  15.9309997
  39.8079992   5.4464990  16.1679997  38.4389992   4.8184990  16.3209997
  38.9530500   5.4504576  16.0161016  56.8899992   1.1014990  17.8079997
  57.2399992   0.4474990  17.2019997  57.0369992   1.9384990  17.3679997
  56.9577192   1.1252545  17.6656712  54.5799992   3.0654990   4.2909997
  54.7619992   2.6164990   5.1159997  53.9799992   2.4814990   3.8269997
  54.5238187   2.9250563   4.3412721  40.1099992   3.8814990   8.8229997
  40.5549992   3.0894990   9.1249997  40.5759992   4.5974990   9.2529997
  40.2339718   3.8699546   8.9225247  38.4139992   6.8804990   9.8919997
  38.9059992   6.6594990   9.1009997  38.7759992   7.7204990  10.1729997
  38.5302923   6.9638480   9.8217389  56.4099992   3.2104990  16.1569997
  55.4929992   3.4814990  16.1209997  56.5329992   2.6754990  15.3729997
  56.3010828   3.1752711  16.0460767  56.4459992   3.1334990   0.8189997
  56.8589992   2.4124990   0.3439997  57.1279992   3.8024990   0.8769997
  56.5946060   3.1253741   0.7619233  38.7269992   3.1384990   3.9459997
  37.8019992   3.3464990   3.8169997  39.1809992   3.6224990   3.2559997
  38.6616298   3.2324311   3.8350433  67.5049992  30.8924990  90.7829997
  67.1589992  30.5104990  91.5889997  67.3049992  31.8254990  90.8539997
  67.4305399  30.9663489  90.9030401  53.4979992  18.1224990   5.8919997
  54.1499992  17.7744990   5.2839997  54.0089992  18.6104990   6.5379997
  53.6562872  18.1408248   5.8960964  38.6909992   1.8764990  12.2899997
  38.0259992   1.6304990  12.9329997  38.2479992   2.4984990  11.7129997
  38.5401168   1.9269225  12.2999830  40.8829992  15.0514990  16.4349997
  40.0619992  15.2264990  15.9739997  40.6309992  14.9784990  17.3549997
  40.7365594  15.0655728  16.4963593  43.8369992  16.0254990  12.6929997
  43.4119992  16.8354990  12.4109997  44.7409992  16.1114990  12.3909997
  43.9010706  16.1479557  12.6135836  48.1479992  17.4244990  15.6529997
  48.3329992  17.0914990  16.5309997  48.9949992  17.7344990  15.3309997
  48.2877291  17.4208214  15.7296140  50.4929992  18.7104990  14.8969997
  51.1699992  18.0774990  14.6569997  50.8149992  19.1114990  15.7039997
  50.6291618  18.6781147  14.9732802  55.4109992   1.3004990  13.9759997
  54.5979992   1.6254990  13.5889997  55.6439992   0.5394990  13.4429997
  55.3311347   1.2421891  13.8509824  41.2389992  19.2824990  12.7409997
  40.5179992  19.7224990  12.2899997  40.8729992  19.0314990  13.5889997
  41.0909632  19.3087235  12.7939649  43.7059992  18.8824990  11.7699997
  42.8409992  18.9544990  12.1739997  43.6509992  19.4294990  10.9869997
  43.5802289  18.9663242  11.7193749  48.4169992  18.7704990  10.9459997
  47.9599992  19.2994990  10.2919997  48.5789992  19.3734990  11.6709997
  48.3763919  18.9243990  10.9545740  70.6009992  25.3894990  79.4059997
  71.4929992  25.2514990  79.7249997  70.6579992  26.1804990  78.8689997
  70.7307380  25.4774777  79.3770981  50.7439992  17.6484990  11.8909997
  49.8399992  17.8134990  11.6249997  51.1729992  18.5014990  11.8249997
  50.6782017  17.7864184  11.8456495  53.3479992  19.2184990  12.1859997
  53.1669992  20.1344990  11.9749997  53.5249992  18.8074990  11.3389997
  53.3471377  19.2883365  12.0427178  40.6539992  17.9054990   9.6509997
  40.6349992  17.4794990  10.5079997  41.4579992  17.5864990   9.2419997
  40.7601393  17.8040297   9.7130155  42.7949992  16.6154990   8.3059997
  42.5759992  15.6984990   8.4759997  43.6189992  16.7554990   8.7719997
  42.8764702  16.5090523   8.3922510  45.3319992  17.0854990   9.1549997
  45.5449992  16.1974990   8.8679997  45.3969992  17.0504990  10.1089997
  45.3699149  16.9593338   9.2447351  48.8409992   2.7494990   8.2989997
  48.1659992   2.1194990   8.5549997  49.4049992   2.2654990   7.6959997
  48.8249363   2.5978886   8.2524810  53.9829992   0.8564990   8.4119997
  54.5869992   1.4044990   7.9099997  53.1139992   1.1754990   8.1709997
  53.9480419   0.9745628   8.3107741  55.7099992   1.9954990   6.7449997
  56.3219992   1.4814990   6.2179997  56.0929992   2.8724990   6.7679997
  55.8453867   2.0437613   6.6760888  41.1669992   1.3834990   6.1209997
  40.3899992   1.1484990   5.6139997  41.6979992   0.5864990   6.1299997
  41.1323735   1.2436462   6.0528090  40.0039992   1.1814990   1.9249997
  40.4429992   1.7924990   1.3329997  39.3699992   1.7194990   2.3989997
  39.9783859   1.3379076   1.9080287  61.1099992  30.0034990  85.3149997
  61.8549992  30.0004990  84.7139997  61.1879992  29.1794990  85.7969997
  61.2224158  29.8917928  85.2979136  45.7469992   1.3094990   5.9339997
  46.6209992   1.6984990   5.9049997  45.6109992   1.0944990   6.8569997
  45.8481953   1.3336654   6.0547599  51.3029992   1.3394990   7.5839997
  51.3799992   1.4354990   6.6339997  51.0279992   0.4324990   7.7119997
  51.2763233   1.2299093   7.4713665  52.6569992   1.3654990   3.2759997
  51.9539992   1.9804990   3.0659997  52.2119992   0.5284990   3.4069997
  52.5006550   1.3364679   3.2649819  39.9049992  17.1294990   2.8219997
  39.2199992  17.0914990   2.1549997  39.9079992  18.0414990   3.1099997
  39.8116806  17.2476669   2.7696961  41.8649992   3.0974990   0.3669997
  42.3559992   2.4674990  -0.1600003  42.4879992   3.3934990   1.0299997
  42.0165304   3.0512387   0.3844922  46.8909992   3.3904990   2.8239997
  47.0689992   2.7434990   3.5069997  46.8369992   4.2244990   3.2909997
  46.9080678   3.4146615   2.9806283  48.7689992  18.3384990   1.2199997
  49.6349992  18.7054990   1.0419997  48.5219992  17.8994990   0.4059997
  48.8541853  18.3294021   1.0855813  55.4779992  17.9014990   3.8989997
  55.2839992  17.1534990   3.3339997  55.4389992  18.6594990   3.3159997
  55.4461645  17.9015797   3.7428131  41.1249992   1.8974990  15.6389997
  40.7589992   1.1314990  16.0809997  42.0379992   1.9264990  15.9249997
  41.1983172   1.7965335  15.7381872  43.0979992   1.2474990  17.1739997
  43.9969992   0.9734990  16.9899997  42.7119992   0.5054990  17.6389997
  43.1687307   1.1097207  17.2117080  68.1109992  32.1664990  78.5709997
  67.8159992  32.9934990  78.9529997  67.4079992  31.5474990  78.7669997
  67.9755855  32.1959458  78.6497634  41.7229992  18.0494990  -0.1530003
  41.4549992  18.3354990   0.7209997  42.4939992  17.5034990  -0.0000003
  41.7905926  18.0147790  -0.0128812  51.5189992   0.5804990  17.3569997
  51.5959992   0.1544990  18.2099997  52.4129992   0.5934990  17.0139997
  51.6503263   0.5239345  17.4274366  54.6959992  16.6524990  16.0489997
  53.9139992  16.4664990  15.5289997  54.6239992  17.5824990  16.2659997
  54.5792975  16.7526973  16.0071823  69.1019992  10.5394990   6.0799997
  69.1909992  11.4834990   5.9469997  68.4629992  10.2644990   5.4219997
  69.0278378  10.6313846   5.9729258  68.0349992   9.7944990   9.4989997
  67.9959992   9.1484990  10.2039997  67.7119992   9.3274990   8.7269997
  67.9860469   9.6430005   9.4912803  60.4029992   9.4084990  11.0919997
  60.4439992   8.7834990  11.8149997  61.1059992  10.0324990  11.2739997
  60.5036223   9.4072318  11.2156164  71.7409992  12.7334990   7.7999997
  71.2999992  12.0134990   8.2509997  71.7279992  13.4544990   8.4299997
  71.6789215  12.7324303   7.9468088  61.3269992  13.8584990   9.6269997
  60.9569992  13.0564990   9.2569997  62.2679992  13.6904990   9.6729997
  61.4035984  13.7259649   9.5825586  57.9369992   7.5184990   5.0189997
  57.4889992   8.3644990   5.0009997  57.3759992   6.9394990   4.5039997
  57.7998546   7.5559004   4.9468874  58.6469992   9.6804990   7.1449997
  58.8609992   8.9104990   7.6719997  59.3849992   9.7704990   6.5419997
  58.7760073   9.5873546   7.1355786  58.1179992  28.4634990  90.6299997
  58.3409992  28.0454990  91.4619997  57.5159992  27.8514990  90.2079997
  58.0670802  28.3235216  90.6867561  68.8519992  17.8374990   8.0119997
  69.4719992  17.1614990   7.7389997  68.6439992  17.6194990   8.9209997
  68.9087679  17.7155032   8.0974518  66.4239992  12.2264990   9.9049997
  66.7279992  11.5404990   9.3099997  67.1459992  12.3454990  10.5229997
  66.5631240  12.1487325   9.9070941  75.0869992   3.8284990  10.7649997
  75.1359992   4.4384990  11.5009997  75.5129992   4.2894990  10.0419997
  75.1512851   3.9743266  10.7680532  69.5649992   6.6204990  10.2319997
  69.7069992   5.6744990  10.2519997  69.4589992   6.8274990   9.3039997
  69.5701051   6.5189706  10.1092249  62.7199992   4.7224990   7.5049997
  62.7629992   5.5824990   7.0859997  62.2619992   4.1694990   6.8709997
  62.6640163   4.7654174   7.3620604  70.4419992   4.8534990   5.9049997
  71.0879992   4.5244990   6.5299997  70.9519992   5.3704990   5.2829997
  70.5994289   4.8784333   5.9063681  59.3399992   7.1194990   8.2669997
  59.9939992   6.5694990   8.6989997  59.3639992   6.8454990   7.3499997
  59.4327199   7.0072178   8.2021650  64.4959992   8.6694990   7.4819997
  65.1119992   8.1424990   7.9909997  63.9099992   8.0294990   7.0779997
  64.5010652   8.5108919   7.4970277  75.4789992   5.3064990  13.0009997
  74.7899992   5.9644990  12.9059997  75.4939992   5.1084990  13.9379997
  75.3867756   5.3697614  13.1145795  61.5299992   3.6404990  11.5789997
  61.3109992   4.1704990  10.8119997  60.8619992   3.8664990  12.2259997
  61.4096975   3.7435979  11.5615123  65.1349992  27.9804990  92.8429997
  64.8389992  27.8154990  91.9479997  66.0659992  27.7604990  92.8329997
  65.2203909  27.9281274  92.7190110  68.8989992  13.1404990   5.1229997
  68.6029992  12.8174990   4.2709997  68.5749992  14.0404990   5.1639997
  68.8147458  13.2179678   5.0120598  64.0989992  11.3154990  11.8659997
  63.3589992  11.9144990  11.9699997  64.8129992  11.8694990  11.5499997
  64.0943146  11.4722611  11.8375150  72.2059992   4.1444990   7.8859997
  71.9909992   3.3784990   8.4189997  72.8619992   4.6164990   8.3989997
  72.2652673   4.1035739   8.0281972  61.1239992   5.5324990   9.5309997
  61.7369992   6.1654990   9.9039997  61.6359992   5.0604990   8.8749997
  61.2771933   5.5553380   9.4933477  62.5059992  13.2804990  12.6529997
  62.5009992  14.1594990  12.2749997  61.6529992  13.1964990  13.0779997
  62.3899199  13.3895901  12.6586942  58.6279992  12.9514990   3.4349997
  58.3559992  13.1804990   2.5459997  58.6729992  13.7884990   3.8959997
  58.5968360  13.0961034   3.3756186  72.2529992  14.5724990  10.1479997
  71.3109992  14.6314990  10.3099997  72.5289992  15.4784990  10.0109997
  72.1615865  14.7030299  10.1516174  72.5529992   2.8594990  11.5649997
  71.8169992   3.4694990  11.5279997  73.2369992   3.2744990  11.0389997
  72.5445367   2.9992562  11.4888156  65.5559992   0.9454990   9.0309997
  65.4389992  -0.0025010   8.9769997  64.7009992   1.2784990   9.3039997
  65.4243691   0.8605842   9.0605072  70.5049992  16.3534990   6.7729997
  70.9299992  15.6464990   6.2879997  70.8219992  17.1554990   6.3559997
  70.6060266  16.3650201   6.6502461  69.7549992  33.3544990  90.7329997
  68.8539992  33.5374990  90.4649997  69.7889992  33.6134990  91.6539997
  69.6363021  33.4145505  90.8208206  71.6639992  14.2544990   5.2819997
  71.4069992  13.5644990   4.6699997  71.7349992  13.8114990   6.1269997
  71.6384322  14.1001568   5.3125372  73.3499992  12.8214990  13.7589997
  73.4899992  12.2294990  13.0199997  73.5179992  13.6944990  13.4029997
  73.3918734  12.8584041  13.6096937  67.8229992   9.7834990   3.5319997
  67.1109992  10.3184990   3.1799997  68.5139992   9.8384990   2.8719997
  67.8189704   9.8641663   3.3945797  67.8769992   8.2404990   0.5699997
  68.5779992   8.2634990   1.2219997  68.1789992   7.6124990  -0.0860003
  68.0138202   8.1587223   0.5705591  75.1919992   9.1614990  11.8249997
  74.5399992   9.8554990  11.9139997  75.6569992   9.3714990  11.0149997
  75.1655357   9.2849544  11.7277056  71.2289992   9.9924990   4.4829997
  70.4969992  10.2214990   5.0559997  71.6759992   9.2794990   4.9379997
  71.1892753   9.9273984   4.6229698  71.1259992   8.1674990  13.5509997
  71.2059992   8.9304990  14.1229997  70.5249992   8.4464990  12.8609997
  71.0556547   8.3097468  13.5360029  62.8739992  10.6234990   6.3659997
  62.5439992  10.2524990   5.5479997  63.4619992   9.9524990   6.7129997
  62.9083182  10.4820648   6.3009898  64.2409992  14.0514990   9.0469997
  64.1459992  13.4724990   8.2909997  64.9699992  13.6804990   9.5429997
  64.3266011  13.9220572   9.0106011  63.2409992   9.3914990   9.9989997
  63.8059992   9.5134990   9.2369997  63.5589992  10.0294990  10.6379997
  63.3613619   9.4944388   9.9810019  75.4859992  25.5984990  79.0999997
  74.9319992  25.2024990  78.4279997  75.5869992  26.5094990  78.8229997
  75.4237084  25.6673565  78.9704381  69.5499992  14.8954990  10.7329997
  69.3089992  15.5574990  11.3809997  69.3519992  14.0604990  11.1579997
  69.4902662  14.8732704  10.8791008  64.1209992  13.7914990  14.7169997
  63.8089992  14.5734990  15.1719997  63.4709992  13.6384990  14.0309997
  63.9904858  13.8777882  14.6865344  70.0999992   9.1554990   2.1689997
  70.6789992   9.3054990   2.9149997  70.5139992   9.6254990   1.4449997
  70.2353358   9.2395966   2.1733935  61.0409992   9.9894990  13.9449997
  61.1109992  10.6404990  14.6439997  60.1499992  10.0924990  13.6099997
  60.9301690  10.0924261  13.9953026  67.8259992  15.8914990   5.6039997
  68.2999992  16.1874990   6.3809997  67.2629992  16.6304990   5.3709997
  67.8147890  16.0318047   5.6788084  62.3599992  15.8624990  15.4799997
  62.3679992  15.7264990  14.5329997  61.4439992  15.7454990  15.7319997
  62.2372528  15.8280475  15.3843226  73.7979992   0.9054990   1.9809997
  72.8979992   1.0434990   2.2769997  74.0499992   1.7364990   1.5799997
  73.7087727   1.0368705   1.9672935  61.8639992   9.6924990   3.9549997
  61.5719992  10.4604990   3.4639997  61.1899992   9.0334990   3.7919997
  61.7328843   9.7084537   3.8657695  74.9879992  15.2714990   0.3579997
  75.0609992  16.2104990   0.5279997  75.8929992  14.9664990   0.3019997
  75.1204170  15.3588294   0.3737045  57.9569992  12.0554990  12.7699997
  57.4559992  12.0274990  11.9549997  57.9629992  11.1504990  13.0799997
  57.8891690  11.9292234  12.7002770  75.4489992  31.3994990  91.9369997
  74.5979992  31.6374990  91.5699997  76.0399992  31.3824990  91.1839997
  75.4122468  31.4298251  91.7848902  57.7079992  14.8364990   9.6539997
  58.6539992  14.6914990   9.6349997  57.5949992  15.6204990  10.1909997
  57.8223578  14.9226708   9.7240300  75.9049992  15.5024990  15.3369997
  75.8559992  14.5464990  15.2989997  75.0789992  15.7694990  15.7379997
  75.7865096  15.4078416  15.3860698  66.8839992  15.0764990  14.2129997
  66.9709992  15.9024990  14.6879997  66.0199992  14.7464990  14.4619997
  66.7791944  15.1449871  14.3116558  67.2979992  18.8484990   4.0189997
  67.2229992  18.7274990   3.0719997  67.3309992  19.7974990   4.1369997
  67.2922083  18.9602639   3.9054973  60.9519992  17.6374990   5.7999997
  61.1039992  17.2894990   6.6779997  60.1009992  17.2804990   5.5439997
  60.8578344  17.5415891   5.8856851  70.3999992  18.0024990   1.0209997
  70.7749992  17.2584990   0.5499997  70.4039992  17.7324990   1.9389997
  70.4518969  17.8640920   1.0806475  70.0689992  17.9284990   3.7699997
  69.1339992  18.0284990   3.9489997  70.3489992  17.2184990   4.3489997
  69.9789471  17.8462944   3.8726678  73.0569992   6.9954990  15.8169997
  72.6499992   7.4754990  15.0959997  73.0979992   6.0894990  15.5089997
  73.0068403   6.9387989  15.6767253  60.2059992  13.3794990  13.8129997
  60.4219992  13.0174990  14.6729997  59.3509992  13.0044990  13.6039997
  60.1199082  13.2793377  13.9022396  62.8249992   1.8494990   9.8089997
  61.9629992   1.7624990   9.4009997  62.8029992   2.7054990  10.2369997
  62.7040557   1.9533078   9.8110202  73.7809992  34.3844990  79.5649997
  73.4089992  33.5594990  79.8749997  74.0589992  34.2014990  78.6679997
  73.7675997  34.2466160  79.4861551  67.4879992   1.5714990  13.1839997
  67.9079992   1.1564990  13.9369997  66.5549992   1.3924990  13.3009997
  67.4193736   1.4904921  13.3028950  70.8139992   5.3264990  14.0369997
  70.2999992   5.2014990  14.8349997  70.6589992   6.2394990  13.7929997
  70.7227802   5.4327433  14.1131504  71.5769992  10.1874990  -0.2020003
  71.6189992   9.9654990  -1.1320003  72.4259992  10.5864990  -0.0120003
  71.6975253  10.2110510  -0.3036196  67.1499992   4.0634990   0.4689997
  66.8959992   4.0824990   1.3909997  66.8929992   3.1924990   0.1669997
  67.0804508   3.9483292   0.5544786  62.9159992   6.8144990  10.9039997
  62.2739992   6.7744990  11.6129997  62.9529992   7.7414990  10.6659997
  62.8331659   6.9342540  10.9688463  62.9129992   7.0354990   5.8159997
  62.0199992   6.6954990   5.7569997  63.3639992   6.6584990   5.0599997
  62.8517185   6.9380220   5.7057698  68.4489992   7.4514990   4.6329997
  68.0399992   8.2664990   4.3409997  69.1689992   7.3114990   4.0189997
  68.4904439   7.5440383   4.5100098  67.5509992   7.6274990  16.1209997
  66.9879992   6.9224990  16.4419997  68.3769992   7.5064990  16.5889997
  67.5856674   7.5147176  16.2281734  69.4529992   6.8974990   7.4469997
  69.2579992   7.5034990   6.7319997  69.6349992   6.0644990   7.0129997
  69.4509195   6.8677936   7.2904079  60.6659992   7.1354990  12.7709997
  60.6279992   7.5354990  13.6399997  60.1749992   6.3184990  12.8609997
  60.5944374   7.0798228  12.9020980  70.9419992  29.1924990  86.5869997
  70.0139992  28.9614990  86.5599997  71.3929992  28.4154990  86.2569997
  70.8758165  29.0557785  86.5386772  64.0319992   4.5094990  -0.4300003
  63.6009992   4.0644990   0.2989997  63.3139992   4.8804990  -0.9430003
  63.8759176   4.4987063  -0.3995087  57.2739992   4.2514990   6.6219997
  57.9049992   4.2224990   7.3409997  57.7239992   3.8264990   5.8909997
  57.4211082   4.1901269   6.6216307  58.5479992   4.9974990   2.0459997
  59.0229992   5.5884990   1.4609997  57.8309992   5.5274990   2.3929997
  58.5160406   5.1501011   2.0128495  68.7169992   8.5354990  12.1179997
  69.0409992   7.9044990  11.4749997  68.2769992   8.0014990  12.7789997
  68.7018707   8.3768261  12.1193195  65.4949992   4.4634990   6.9019997
  64.5839992   4.5204990   7.1909997  65.9999992   4.4034990   7.7129997
  65.4386873   4.4631838   7.0511190  60.3229992   6.0924990   5.7289997
  59.4339992   6.1914990   5.3889997  60.6189992   5.2504990   5.3829997
  60.2414001   5.9922473   5.6357318  63.9759992   6.0924990   3.3859997
  64.9079992   6.2214990   3.5639997  63.7609992   6.7614990   2.7359997
  64.0744472   6.2005817   3.3224873  69.8999992   3.6984990  10.1659997
  69.2229992   3.8294990  10.8299997  69.4139992   3.5434990   9.3559997
  69.7417265   3.6954665  10.1473380  62.6499992   7.2864990   0.9519997
  62.1079992   6.9074990   0.2609997  63.4839992   7.4814990   0.5239997
  62.6884390   7.2609091   0.7994374  73.1869992  19.3694990  16.4429997
  73.3869992  19.7934990  15.6089997  73.8429992  19.7134990  17.0499997
  73.3029937  19.4739993  16.4108645  63.4849992  33.5214990  82.7199997
  64.0119992  34.2944990  82.5189997  62.6049992  33.7454990  82.4179997
  63.4381793  33.6576652  82.6516304  60.7849992  11.8434990  16.0509997
  61.5169992  12.0984990  16.6129997  60.0049992  12.0484990  16.5669997
  60.7796526  11.9060438  16.1975168  66.8149992   7.2504990   8.7889997
  67.3789992   6.7044990   8.2419997  66.6669992   6.7294990   9.5779997
  66.8723037   7.1051798   8.8207212  61.8169992   3.3874990   5.2079997
  61.4989992   2.4844990   5.1719997  62.5979992   3.3894990   4.6549997
  61.8791079   3.2642240   5.1282908  65.4409992   5.6394990  11.2029997
  64.6059992   6.0934990  11.3139997  65.9649992   5.9154990  11.9549997
  65.3976072   5.7388960  11.3198118  65.9849992  11.8524990   2.8879997
  65.2399992  11.3444990   2.5659997  65.8509992  11.9014990   3.8339997
  65.8649334  11.7896144   2.9718892  73.1349992  10.9854990  11.6749997
  73.7769992  11.4414990  11.1309997  72.3049992  11.0984990  11.2119997
  73.1106536  11.0631813  11.5379579  69.8829992   4.6664990   1.0869997
  68.9439992   4.7774990   0.9359997  70.1799992   5.5224990   1.3939997
  69.7946136   4.7974977   1.1078568  67.5049992  12.0364990  14.1249997
  67.1589992  11.6544990  14.9319997  67.3049992  12.9694990  14.1959997
  67.4305987  12.1104013  14.2450443  70.6009992   6.5334990   2.7479997
  71.4929992   6.3954990   3.0669997  70.6579992   7.3244990   2.2109997
  70.7307380   6.6214777   2.7190981  61.1099992  11.1474990   8.6579997
  61.8549992  11.1444990   8.0559997  61.1879992  10.3234990   9.1389997
  61.2223366  11.0357395   8.6407412  59.2399992  28.3834990  77.3069997
  59.8559992  29.0104990  77.6859997  58.3779992  28.6994990  77.5779997
  59.2078195  28.5120810  77.3955369  68.1109992  13.3104990   1.9129997
  67.8159992  14.1374990   2.2949997  67.4079992  12.6914990   2.1099997
  67.9756379  13.3399182   1.9918636  58.1179992   9.6074990  13.9729997
  58.3409992   9.1894990  14.8039997  57.5159992   8.9954990  13.5499997
  58.0671513   9.4674617  14.0296722  65.1349992   9.1244990  16.1859997
  64.8389992   8.9594990  15.2899997  66.0659992   8.9044990  16.1749997
  65.2204401   9.0721891  16.0620189  69.7549992  14.4984990  14.0749997
  68.8539992  14.6814990  13.8079997  69.7889992  14.7574990  14.9959997
  69.6363861  14.5585245  14.1629517  75.4859992   6.7424990   2.4429997
  74.9319992   6.3464990   1.7699997  75.5869992   7.6534990   2.1649997
  75.4238589   6.8113904   2.3133839  75.4489992  12.5434990  15.2799997
  74.5979992  12.7814990  14.9119997  76.0399992  12.5264990  14.5259997
  75.4123831  12.5737623  15.1278448  73.7809992  15.5284990   2.9079997
  73.4089992  14.7034990   3.2169997  74.0589992  15.3454990   2.0099997
  73.7675807  15.3907031   2.8290063  70.9419992  10.3364990   9.9289997
  70.0139992  10.1054990   9.9019997  71.3929992   9.5594990   9.5989997
  70.8758165  10.1997785   9.8806772  63.4849992  14.6654990   6.0619997
  64.0119992  15.4384990   5.8619997  62.6049992  14.8894990   5.7599997
  63.4382121  14.8017344   5.9937460  59.2399992   9.5274990   0.6489997
  59.8559992  10.1544990   1.0289997  58.3779992   9.8434990   0.9209997
  59.2077678   9.6559423   0.7377192  64.9119992  31.1844990  82.2959997
  64.6709992  32.1094990  82.3379997  64.1719992  30.7254990  82.6919997
  64.7788934  31.2490881  82.3553191  64.9119992  12.3284990   5.6379997
  64.6709992  13.2534990   5.6799997  64.1719992  11.8694990   6.0349997
  64.7789463  12.3930969   5.6974279  65.4269992  16.4774990  11.9529997
  65.7899992  17.3314990  11.7199997  65.9589992  16.1854990  12.6939997
  65.5485141  16.5548907  12.0212079  63.5949992  17.3494990   5.1839997
  62.6459992  17.4554990   5.2349997  63.9469992  18.1704990   5.5279997
  63.5125647  17.4750029   5.2374882  68.9709992  12.5764990  11.6539997
  68.5449992  12.3484990  12.4799997  69.5519992  11.8374990  11.4719997
  68.9912088  12.4454393  11.7424454  71.1739992  13.5054990   0.7279997
  71.5269992  13.1254990   1.5319997  70.2249992  13.4114990   0.8149997
  71.0940956  13.4407867   0.8498005  71.6299992  17.1284990  14.1229997
  71.0279992  16.5724990  13.6279997  71.9109992  17.7954990  13.4969997
  71.5855757  17.1425755  13.9705657  75.6769992  17.9844990   0.9289997
  76.4209992  18.5704990   0.7889997  74.9829992  18.5534990   1.2619997
  75.6849809  18.1415830   0.9548572  59.7519992   4.3614990  13.5309997
  58.8589992   4.6994990  13.4629997  59.6529992   3.5054990  13.9489997
  59.6164752   4.2920986  13.5781644  72.0399992  12.1774990   2.9549997
  71.7629992  11.4494990   3.5109997  72.9669992  12.2964990   3.1599997
  72.1274419  12.0939436   3.0588264  59.4029992  16.1654990  11.9659997
  59.6199992  15.2334990  11.9349997  59.6499992  16.4404990  12.8489997
  59.4660948  16.0750976  12.0811268  65.4269992  35.3334990  88.6109997
  65.7899992  36.1874990  88.3779997  65.9589992  35.0414990  89.3519997
  65.5485141  35.4108907  88.6792079  64.2019992  14.1874990   1.6309997
  64.3489992  13.6674990   2.4209997  64.1989992  15.0944990   1.9379997
  64.2217102  14.2388964   1.7805907  60.6549992  11.4394990   2.1419997
  59.9689992  11.7924990   2.7089997  61.1779992  12.2024990   1.8949997
  60.6318402  11.5908912   2.1861783  68.4859992   4.1024990  12.4209997
  69.1849992   4.1764990  13.0709997  68.1059992   3.2374990  12.5749997
  68.5302662   3.9957050  12.5307412  69.2709992   3.7544990   3.5179997
  69.4909992   4.2254990   2.7139997  69.8289992   4.1484990   4.1879997
  69.3766044   3.8722946   3.4985207  66.9399992  15.8844990   2.3809997
  66.1229992  16.3814990   2.4329997  67.4689992  16.3604990   1.7399997
  66.8998125  16.0167000   2.3015289  66.4709992   5.4824990   4.3529997
  67.2829992   5.9864990   4.3989997  66.2259992   5.3374990   5.2669997
  66.5491091   5.5319366   4.4828552  67.0069992   6.4684990  13.5369997
  67.1259992   7.0424990  14.2939997  67.6619992   5.7804990  13.6519997
  67.1118684   6.4540205  13.6561656  67.3549992   2.5634990   5.2909997
  67.0079992   3.1804990   5.9349997  68.0129992   3.0644990   4.8089997
  67.3964430   2.7156860   5.3140046  64.2779992  16.9284990   2.3619997
  64.4389992  17.7284990   1.8619997  64.0809992  17.2354990   3.2469997
  64.2733906  17.0793690   2.4132316  63.0119992   3.6264990   1.9779997
  62.9289992   4.5144990   2.3249997  63.9019992   3.3614990   2.2099997
  63.1209331   3.7121177   2.0568067  68.9709992  31.4324990  88.3119997
  68.5449992  31.2044990  89.1379997  69.5519992  30.6934990  88.1289997
  68.9911587  31.3014084  88.4004111  73.2109992   4.3754990  14.3719997
  72.2949992   4.6374990  14.2849997  73.5469992   4.3724990  13.4759997
  73.1308499   4.4110174  14.2388748  71.8129992   8.1254990   8.4679997
  71.0159992   7.7104990   8.1399997  72.2579992   7.4354990   8.9589997
  71.7640367   7.9753372   8.4894897  61.2709992  14.0534990   1.0379997
  61.8629992  14.7534990   1.3149997  61.7299992  13.6204990   0.3189997
  61.4141652  14.0907686   0.9786515  59.5869992   6.7184990   0.1539997
  59.5419992   7.6574990   0.3329997  58.6989992   6.4824990  -0.1150003
  59.4608166   6.8151698   0.1421507  72.8999992  17.3814990  10.0899997
  72.7439992  18.0604990   9.4329997  73.8319992  17.4534990  10.2929997
  73.0047328  17.4841586  10.0275529  60.3949992   1.4994990   8.8269997
  60.1659992   1.5584990   7.8999997  59.9519992   0.7084990   9.1339997
  60.3037387   1.4006412   8.7415223  59.3249992  15.4404990   4.9879997
  58.4929992  15.9124990   5.0149997  59.8709992  15.9504990   4.3889997
  59.2848710  15.5740317   4.9107570  58.6139992  18.0524990  16.3179997
  59.1539992  17.8364990  17.0779997  58.1319992  17.2474990  16.1279997
  58.6228485  17.9140463  16.3964870  63.2109992  16.9724990  17.9379997
  63.9789992  16.5134990  18.2789997  63.1899992  16.7464990  17.0079997
  63.3132135  16.8791680  17.8589473  67.3029992  16.4804990  -0.6870003
  66.6589992  15.8494990  -0.3650003  68.0649992  15.9494990  -0.9180003
  67.3178708  16.3223171  -0.6741539  71.6299992  35.9844990  90.7809997
  71.0279992  35.4284990  90.2859997  71.9109992  36.6514990  90.1549997
  71.5855757  35.9985755  90.6285657  69.7879992  15.3524990  16.6669997
  69.4369992  14.4954990  16.9099997  70.5139992  15.4944990  17.2739997
  69.8381590  15.2545189  16.7822889  71.9069992  16.2974990  -0.4530003
  72.1899992  15.5024990  -0.0000003  72.6469992  16.5304990  -1.0140003
  72.0457295  16.2202349  -0.4668531  58.5209992  11.8634990  17.2719997
  58.6649992  10.9614990  16.9859997  57.7479992  12.1494990  16.7849997
  58.4362266  11.7786548  17.1670102  62.8619992  12.2064990  -0.5950003
  62.9259992  11.4124990  -0.0650003  63.5149992  12.0884990  -1.2850003
  62.9590483  12.0817496  -0.6156593  65.1759992  11.8324990  16.7049997
  64.8479992  12.1034990  15.8479997  65.3279992  10.8914990  16.6169997
  65.1516412  11.7424058  16.5757804  70.9109992  11.7484990  14.0879997
  71.6559992  12.3374990  13.9689997  70.1529992  12.3304990  14.1509997
  70.9105289  11.9077067  14.0802292  59.3529992   9.0634990  16.6919997
  59.7609992   8.2064990  16.5709997  59.0929992   9.0774990  17.6129997
  59.3737082   8.9480596  16.7999469  64.0109992  10.1794990   1.7109997
  63.5519992   9.6954990   2.3959997  64.2659992   9.5104990   1.0749997
  63.9825997  10.0228491   1.7188734  63.2999992   8.0724990  14.0669997
  62.6819992   8.7464990  14.3469997  63.6439992   8.3934990  13.2329997
  63.2618078   8.2082298  13.9926609  65.0819992   8.4224990  -0.0270003
  64.9019992   8.2674990  -0.9540003  66.0319992   8.5304990   0.0179997
  65.1857804   8.4158821  -0.1478034  59.7519992  23.2174990  90.1879997
  58.8589992  23.5554990  90.1209997  59.6529992  22.3614990  90.6059997
  59.6165241  23.1480941  90.2352982  68.3199992  10.5434990  17.3439997
  69.2729992  10.6274990  17.3169997  68.1599992   9.8314990  17.9629997
  68.4287320  10.4587292  17.4239933  74.4719992  10.7764990  -0.5810003
  74.1989992  10.3524990  -1.3940003  74.5119992  11.7084990  -0.7980003
  74.4400201  10.8443523  -0.7216452  63.6399992   5.4274990  15.1489997
  63.7899992   4.6984990  14.5469997  63.6419992   6.2044990  14.5899997
  63.6607967   5.4327720  14.9910523  64.0519992   3.7964990  12.6419997
  64.5879992   4.2484990  11.9899997  63.1999992   3.6884990  12.2189997
  64.0101795   3.8437444  12.4956211  65.6339992   9.2364990  12.8809997
  66.3849992   9.0804990  12.3079997  65.2949992  10.0884990  12.6059997
  65.6909587   9.3303149  12.7654060  70.0499992   7.0514990  17.9099997
  70.2419992   6.1204990  17.7979997  70.9069992   7.4764990  17.8989997
  70.1922176   6.9815090  17.8931757  71.3659992   9.8404990  15.9869997
  71.0849992  10.5494990  15.4089997  72.3089992   9.7674990  15.8359997
  71.4549272   9.9276704  15.8874976  62.1179992   6.6254990  17.0599997
  61.3509992   6.0924990  16.8499997  62.7969992   6.3154990  16.4609997
  62.1048292   6.5106360  16.9502693  64.8579992   1.2534990  13.0729997
  64.7599992   2.1994990  12.9679997  64.1149992   0.8804990  12.5969997
  64.7442123   1.3326811  12.9943204  66.1219992   5.5744990  16.6369997
  65.8859992   5.3554990  17.5379997  65.3389992   5.3674990  16.1269997
  65.9838382   5.5165340  16.6913991  72.0399992  31.0334990  79.6119997
  71.7629992  30.3054990  80.1679997  72.9669992  31.1524990  79.8179997
  72.1274181  30.9500068  79.7158972  68.8379992   4.7024990  15.7119997
  67.8899992   4.7344990  15.8439997  69.1499992   4.0764990  16.3659997
  68.7505293   4.6222934  15.8184130  70.4719992   3.3364990  17.7169997
  70.3749992   2.3844990  17.7119997  70.1499992   3.6044990  18.5779997
  70.4152468   3.2425896  17.8326192  60.2989992   4.5454990  16.7649997
  60.5099992   3.8394990  16.1549997  60.1869992   4.1084990  17.6089997
  60.3127668   4.3896619  16.7955445  65.0799992   0.5474990  15.7439997
  65.7909992  -0.0925010  15.7299997  64.9789992   0.8134990  14.8309997
  65.1636858   0.4958591  15.6185501  65.4329992   2.2294990  17.7979997
  65.3019992   1.7544990  16.9779997  64.8339992   2.9744990  17.7429997
  65.3340829   2.2650949  17.6781823  64.9799992  19.1124990   0.9739997
  65.9129992  19.2704990   1.1179997  64.7149992  19.7884990   0.3489997
  65.0719846  19.2254567   0.9092930  58.5479992  13.7494990   0.4569997
  59.4619992  13.8284990   0.7299997  58.5549992  13.0624990  -0.2090003
  58.6740624  13.6674074   0.4043045  57.1969992  19.1424990   5.5339997
  56.5499992  18.6804990   5.0019997  57.5519992  18.4704990   6.1169997
  57.1563741  18.9884785   5.5399157  58.0669992  17.2224990   7.3389997
  57.7329992  16.3424990   7.5109997  58.2889992  17.5684990   8.2039997
  58.0512565  17.1487410   7.4794263  75.6159992  18.0324990  10.3199997
  75.5939992  18.2174990  11.2579997  76.3059992  18.6004990   9.9789997
  75.7063383  18.1347104  10.4024580  59.4029992  35.0214990  88.6229997
  59.6199992  34.0894990  88.5919997  59.6499992  35.2964990  89.5069997
  59.4660543  34.9310877  88.7381412  75.1789992  17.5994990  13.2409997
  74.6919992  16.8634990  12.8699997  75.7279992  17.2054990  13.9189997
  75.1866101  17.4456267  13.2819034  73.6299992  13.3894990  17.8789997
  72.7639992  13.2844990  18.2739997  74.0059992  14.1474990  18.3259997
  73.5624940  13.4776141  17.9933958  74.9309992  11.6454990   3.3939997
  75.7809992  12.0664990   3.5209997  74.9359992  10.9054990   4.0009997
  75.0481143  11.6031106   3.4934732  75.3249992   9.6994990   5.2169997
  74.5989992   9.2194990   5.6149997  75.9059992   9.9044990   5.9489997
  75.3042504   9.6615592   5.3704199  75.0839992  12.4844990  10.1649997
  75.9179992  12.1064990   9.8839997  75.1959992  13.4274990  10.0459997
  75.2131917  12.5602954  10.1104844  73.5699992  15.3624990  12.4719997
  72.9229992  15.6874990  13.0969997  73.0529992  14.9214990  11.7979997
  73.4114112  15.3474133  12.4665272  75.5929992   9.6004990   1.6079997
  75.0719992   9.9564990   0.8899997  75.5599992  10.2754990   2.2869997
  75.5170955   9.7405023   1.6012634  73.9419992   6.8394990   0.1589997
  74.0389992   7.5064990  -0.5210003  73.8019992   6.0244990  -0.3220003
  73.9363407   6.8205670   0.0008312  73.1119992   8.2204990   5.7799997
  72.9619992   7.2754990   5.7599997  72.7579992   8.5014990   6.6239997
  73.0436351   8.1291656   5.8913202  58.1469992  10.2984990   9.7909997
  58.3309992  10.2164990   8.8549997  58.9959992  10.1744990  10.2139997
  58.2870132  10.2705066   9.7201460  64.2019992  33.0434990  78.2889997
  64.3489992  32.5234990  79.0789997  64.1989992  33.9504990  78.5949997
  64.2217300  33.0948975  78.4385877  73.9679992  10.1904990  15.4189997
  74.5509992   9.4554990  15.6109997  74.5319992  10.9624990  15.4659997
  74.1239781  10.1943156  15.4516146  75.4649992   8.0934990  16.1039997
  74.6009992   7.7144990  15.9379997  76.0689992   7.3544990  16.0289997
  75.4285394   7.9418378  16.0711778  72.8219992   5.8024990   4.2429997
  73.1019992   4.8954990   4.3669997  73.5809992   6.2364990   3.8539997
  72.9629258   5.7370935   4.2073691  73.4339992   6.3844990   9.6789997
  74.3669992   6.5964990   9.6439997  73.1989992   6.4854990  10.6009997
  73.5299517   6.4271844   9.7989113  73.4629992   7.1214990  12.4549997
  72.6199992   7.3894990  12.8199997  73.9059992   7.9434990  12.2439997
  73.4074035   7.2693351  12.4764770  57.7439992   5.5684990  15.9309997
  58.6639992   5.4464990  16.1679997  57.2949992   4.8184990  16.3209997
  57.8090500   5.4504576  16.0161016  75.7459992   1.1014990  17.8079997
  76.0959992   0.4474990  17.2019997  75.8929992   1.9384990  17.3679997
  75.8137192   1.1252545  17.6656712  73.4359992   3.0654990   4.2909997
  73.6179992   2.6164990   5.1159997  72.8359992   2.4814990   3.8269997
  73.3798187   2.9250563   4.3412721  58.9659992   3.8814990   8.8229997
  59.4109992   3.0894990   9.1249997  59.4319992   4.5974990   9.2529997
  59.0899718   3.8699546   8.9225247  57.2699992   6.8804990   9.8919997
  57.7619992   6.6594990   9.1009997  57.6319992   7.7204990  10.1729997
  57.3862923   6.9638480   9.8217389  60.6549992  30.2954990  78.7989997
  59.9689992  30.6484990  79.3659997  61.1779992  31.0584990  78.5529997
  60.6319033  30.4468757  78.8432644  75.2659992   3.2104990  16.1569997
  74.3489992   3.4814990  16.1209997  75.3889992   2.6754990  15.3729997
  75.1570828   3.1752711  16.0460767  75.3019992   3.1334990   0.8189997
  75.7149992   2.4124990   0.3439997  75.9839992   3.8024990   0.8769997
  75.4506060   3.1253741   0.7619233  57.5829992   3.1384990   3.9459997
  56.6579992   3.3464990   3.8169997  58.0369992   3.6224990   3.2559997
  57.5176298   3.2324311   3.8350433  72.3539992  18.1224990   5.8919997
  73.0059992  17.7744990   5.2839997  72.8649992  18.6104990   6.5379997
  72.5122872  18.1408248   5.8960964  57.5469992   1.8764990  12.2899997
  56.8819992   1.6304990  12.9329997  57.1039992   2.4984990  11.7129997
  57.3961168   1.9269225  12.2999830  59.7389992  15.0514990  16.4349997
  58.9179992  15.2264990  15.9739997  59.4869992  14.9784990  17.3549997
  59.5925594  15.0655728  16.4963593  62.6929992  16.0254990  12.6929997
  62.2679992  16.8354990  12.4109997  63.5969992  16.1114990  12.3909997
  62.7570706  16.1479557  12.6135836  67.0039992  17.4244990  15.6529997
  67.1889992  17.0914990  16.5309997  67.8509992  17.7344990  15.3309997
  67.1437291  17.4208214  15.7296140  69.3489992  18.7104990  14.8969997
  70.0259992  18.0774990  14.6569997  69.6709992  19.1114990  15.7039997
  69.4851618  18.6781147  14.9732802  74.2669992   1.3004990  13.9759997
  73.4539992   1.6254990  13.5889997  74.4999992   0.5394990  13.4429997
  74.1871347   1.2421891  13.8509824  68.4859992  22.9584990  89.0779997
  69.1849992  23.0324990  89.7279997  68.1059992  22.0934990  89.2329997
  68.5302095  22.8517402  89.1877982  60.0949992  19.2824990  12.7409997
  59.3739992  19.7224990  12.2899997  59.7289992  19.0314990  13.5889997
  59.9469632  19.3087235  12.7939649  62.5619992  18.8824990  11.7699997
  61.6969992  18.9544990  12.1739997  62.5069992  19.4294990  10.9869997
  62.4362289  18.9663242  11.7193749  67.2729992  18.7704990  10.9459997
  66.8159992  19.2994990  10.2919997  67.4349992  19.3734990  11.6709997
  67.2323919  18.9243990  10.9545740  69.5999992  17.6484990  11.8909997
  68.6959992  17.8134990  11.6249997  70.0289992  18.5014990  11.8249997
  69.5342017  17.7864184  11.8456495  72.2039992  19.2184990  12.1859997
  72.0229992  20.1344990  11.9749997  72.3809992  18.8074990  11.3389997
  72.2031377  19.2883365  12.0427178  59.5099992  17.9054990   9.6509997
  59.4909992  17.4794990  10.5079997  60.3139992  17.5864990   9.2419997
  59.6161393  17.8040297   9.7130155  61.6509992  16.6154990   8.3059997
  61.4319992  15.6984990   8.4759997  62.4749992  16.7554990   8.7719997
  61.7324702  16.5090523   8.3922510  64.1879992  17.0854990   9.1549997
  64.4009992  16.1974990   8.8679997  64.2529992  17.0504990  10.1089997
  64.2259149  16.9593338   9.2447351  67.6969992   2.7494990   8.2989997
  67.0219992   2.1194990   8.5549997  68.2609992   2.2654990   7.6959997
  67.6809363   2.5978886   8.2524810  72.8389992   0.8564990   8.4119997
  73.4429992   1.4044990   7.9099997  71.9699992   1.1754990   8.1709997
  72.8040419   0.9745628   8.3107741  69.2709992  22.6104990  80.1749997
  69.4909992  23.0814990  79.3719997  69.8289992  23.0044990  80.8459997
  69.3765851  22.7283272  80.1556134  74.5659992   1.9954990   6.7449997
  75.1779992   1.4814990   6.2179997  74.9489992   2.8724990   6.7679997
  74.7013867   2.0437613   6.6760888  60.0229992   1.3834990   6.1209997
  59.2459992   1.1484990   5.6139997  60.5539992   0.5864990   6.1299997
  59.9883735   1.2436462   6.0528090  58.8599992   1.1814990   1.9249997
  59.2989992   1.7924990   1.3329997  58.2259992   1.7194990   2.3989997
  58.8343859   1.3379076   1.9080287  64.6029992   1.3094990   5.9339997
  65.4769992   1.6984990   5.9049997  64.4669992   1.0944990   6.8569997
  64.7041953   1.3336654   6.0547599  70.1589992   1.3394990   7.5839997
  70.2359992   1.4354990   6.6339997  69.8839992   0.4324990   7.7119997
  70.1323233   1.2299093   7.4713665  71.5129992   1.3654990   3.2759997
  70.8099992   1.9804990   3.0659997  71.0679992   0.5284990   3.4069997
  71.3566550   1.3364679   3.2649819  58.7609992  17.1294990   2.8219997
  58.0759992  17.0914990   2.1549997  58.7639992  18.0414990   3.1099997
  58.6676806  17.2476669   2.7696961  60.7209992   3.0974990   0.3669997
  61.2119992   2.4674990  -0.1600003  61.3439992   3.3934990   1.0299997
  60.8725304   3.0512387   0.3844922  65.7469992   3.3904990   2.8239997
  65.9249992   2.7434990   3.5069997  65.6929992   4.2244990   3.2909997
  65.7640678   3.4146615   2.9806283  67.6249992  18.3384990   1.2199997
  68.4909992  18.7054990   1.0419997  67.3779992  17.8994990   0.4059997
  67.7101853  18.3294021   1.0855813  66.9399992  34.7404990  79.0379997
  66.1229992  35.2374990  79.0909997  67.4689992  35.2164990  78.3979997
  66.8997898  34.8728123  78.9587274  74.3339992  17.9014990   3.8989997
  74.1399992  17.1534990   3.3339997  74.2949992  18.6594990   3.3159997
  74.3021645  17.9015797   3.7428131  59.9809992   1.8974990  15.6389997
  59.6149992   1.1314990  16.0809997  60.8939992   1.9264990  15.9249997
  60.0543172   1.7965335  15.7381872  61.9539992   1.2474990  17.1739997
  62.8529992   0.9734990  16.9899997  61.5679992   0.5054990  17.6389997
  62.0247307   1.1097207  17.2117080  60.5789992  18.0494990  -0.1530003
  60.3109992  18.3354990   0.7209997  61.3499992  17.5034990  -0.0000003
  60.6465926  18.0147790  -0.0128812  70.3749992   0.5804990  17.3569997
  70.4519992   0.1544990  18.2099997  71.2689992   0.5934990  17.0139997
  70.5063263   0.5239345  17.4274366  73.5519992  16.6524990  16.0489997
  72.7699992  16.4664990  15.5289997  73.4799992  17.5824990  16.2659997
  73.4352975  16.7526973  16.0071823  87.9579992  10.5394990   6.0799997
  88.0469992  11.4834990   5.9469997  87.3189992  10.2644990   5.4219997
  87.8838378  10.6313846   5.9729258  86.8909992   9.7944990   9.4989997
  86.8519992   9.1484990  10.2039997  86.5679992   9.3274990   8.7269997
  86.8420469   9.6430005   9.4912803  79.2589992   9.4084990  11.0919997
  79.2999992   8.7834990  11.8149997  79.9619992  10.0324990  11.2739997
  79.3596223   9.4072318  11.2156164  90.5969992  12.7334990   7.7999997
  90.1559992  12.0134990   8.2509997  90.5839992  13.4544990   8.4299997
  90.5349215  12.7324303   7.9468088  66.4709992  24.3384990  81.0099997
  67.2829992  24.8424990  81.0559997  66.2259992  24.1934990  81.9239997
  66.5491091  24.3879366  81.1398552  80.1829992  13.8584990   9.6269997
  79.8129992  13.0564990   9.2569997  81.1239992  13.6904990   9.6729997
  80.2595984  13.7259649   9.5825586  76.7929992   7.5184990   5.0189997
  76.3449992   8.3644990   5.0009997  76.2319992   6.9394990   4.5039997
  76.6558546   7.5559004   4.9468874  77.5029992   9.6804990   7.1449997
  77.7169992   8.9104990   7.6719997  78.2409992   9.7704990   6.5419997
  77.6320073   9.5873546   7.1355786  87.7079992  17.8374990   8.0119997
  88.3279992  17.1614990   7.7389997  87.4999992  17.6194990   8.9209997
  87.7647679  17.7155032   8.0974518  85.2799992  12.2264990   9.9049997
  85.5839992  11.5404990   9.3099997  86.0019992  12.3454990  10.5229997
  85.4191240  12.1487325   9.9070941  93.9429992   3.8284990  10.7649997
  93.9919992   4.4384990  11.5009997  94.3689992   4.2894990  10.0419997
  94.0072851   3.9743266  10.7680532  88.4209992   6.6204990  10.2319997
  88.5629992   5.6744990  10.2519997  88.3149992   6.8274990   9.3039997
  88.4261051   6.5189706  10.1092249  81.5759992   4.7224990   7.5049997
  81.6189992   5.5824990   7.0859997  81.1179992   4.1694990   6.8709997
  81.5200163   4.7654174   7.3620604  89.2979992   4.8534990   5.9049997
  89.9439992   4.5244990   6.5299997  89.8079992   5.3704990   5.2829997
  89.4554289   4.8784333   5.9063681  78.1959992   7.1194990   8.2669997
  78.8499992   6.5694990   8.6989997  78.2199992   6.8454990   7.3499997
  78.2887199   7.0072178   8.2021650  67.0069992  25.3244990  90.1949997
  67.1259992  25.8984990  90.9519997  67.6619992  24.6364990  90.3099997
  67.1118684  25.3100205  90.3141656  83.3519992   8.6694990   7.4819997
  83.9679992   8.1424990   7.9909997  82.7659992   8.0294990   7.0779997
  83.3570652   8.5108919   7.4970277  94.3349992   5.3064990  13.0009997
  93.6459992   5.9644990  12.9059997  94.3499992   5.1084990  13.9379997
  94.2427756   5.3697614  13.1145795  80.3859992   3.6404990  11.5789997
  80.1669992   4.1704990  10.8119997  79.7179992   3.8664990  12.2259997
  80.2656975   3.7435979  11.5615123  87.7549992  13.1404990   5.1229997
  87.4589992  12.8174990   4.2709997  87.4309992  14.0404990   5.1639997
  87.6707458  13.2179678   5.0120598  82.9549992  11.3154990  11.8659997
  82.2149992  11.9144990  11.9699997  83.6689992  11.8694990  11.5499997
  82.9503146  11.4722611  11.8375150  91.0619992   4.1444990   7.8859997
  90.8469992   3.3784990   8.4189997  91.7179992   4.6164990   8.3989997
  91.1212673   4.1035739   8.0281972  79.9799992   5.5324990   9.5309997
  80.5929992   6.1654990   9.9039997  80.4919992   5.0604990   8.8749997
  80.1331933   5.5553380   9.4933477  81.3619992  13.2804990  12.6529997
  81.3569992  14.1594990  12.2749997  80.5089992  13.1964990  13.0779997
  81.2459199  13.3895901  12.6586942  77.4839992  12.9514990   3.4349997
  77.2119992  13.1804990   2.5459997  77.5289992  13.7884990   3.8959997
  77.4528360  13.0961034   3.3756186  91.1089992  14.5724990  10.1479997
  90.1669992  14.6314990  10.3099997  91.3849992  15.4784990  10.0109997
  91.0175865  14.7030299  10.1516174  67.3549992  21.4194990  81.9479997
  67.0079992  22.0364990  82.5929997  68.0129992  21.9204990  81.4669997
  67.3965290  21.5716384  81.9711635  91.4089992   2.8594990  11.5649997
  90.6729992   3.4694990  11.5279997  92.0929992   3.2744990  11.0389997
  91.4005367   2.9992562  11.4888156  84.4119992   0.9454990   9.0309997
  84.2949992  -0.0025010   8.9769997  83.5569992   1.2784990   9.3039997
  84.2803691   0.8605842   9.0605072  89.3609992  16.3534990   6.7729997
  89.7859992  15.6464990   6.2879997  89.6779992  17.1554990   6.3559997
  89.4620266  16.3650201   6.6502461  90.5199992  14.2544990   5.2819997
  90.2629992  13.5644990   4.6699997  90.5909992  13.8114990   6.1269997
  90.4944322  14.1001568   5.3125372  92.2059992  12.8214990  13.7589997
  92.3459992  12.2294990  13.0199997  92.3739992  13.6944990  13.4029997
  92.2478734  12.8584041  13.6096937  86.6789992   9.7834990   3.5319997
  85.9669992  10.3184990   3.1799997  87.3699992   9.8384990   2.8719997
  86.6749704   9.8641663   3.3945797  86.7329992   8.2404990   0.5699997
  87.4339992   8.2634990   1.2219997  87.0349992   7.6124990  -0.0860003
  86.8698202   8.1587223   0.5705591  94.0479992   9.1614990  11.8249997
  93.3959992   9.8554990  11.9139997  94.5129992   9.3714990  11.0149997
  94.0215357   9.2849544  11.7277056  90.0849992   9.9924990   4.4829997
  89.3529992  10.2214990   5.0559997  90.5319992   9.2794990   4.9379997
  90.0452753   9.9273984   4.6229698  89.9819992   8.1674990  13.5509997
  90.0619992   8.9304990  14.1229997  89.3809992   8.4464990  12.8609997
  89.9116547   8.3097468  13.5360029  63.0119992  22.4824990  78.6359997
  62.9289992  23.3704990  78.9819997  63.9019992  22.2174990  78.8669997
  63.1209751  22.5682482  78.7146066  81.7299992  10.6234990   6.3659997
  81.3999992  10.2524990   5.5479997  82.3179992   9.9524990   6.7129997
  81.7643182  10.4820648   6.3009898  83.0969992  14.0514990   9.0469997
  83.0019992  13.4724990   8.2909997  83.8259992  13.6804990   9.5429997
  83.1826011  13.9220572   9.0106011  82.0969992   9.3914990   9.9989997
  82.6619992   9.5134990   9.2369997  82.4149992  10.0294990  10.6379997
  82.2173619   9.4944388   9.9810019  88.4059992  14.8954990  10.7329997
  88.1649992  15.5574990  11.3809997  88.2079992  14.0604990  11.1579997
  88.3462662  14.8732704  10.8791008  82.9769992  13.7914990  14.7169997
  82.6649992  14.5734990  15.1719997  82.3269992  13.6384990  14.0309997
  82.8464858  13.8777882  14.6865344  88.9559992   9.1554990   2.1689997
  89.5349992   9.3054990   2.9149997  89.3699992   9.6254990   1.4449997
  89.0913358   9.2395966   2.1733935  79.8969992   9.9894990  13.9449997
  79.9669992  10.6404990  14.6439997  79.0059992  10.0924990  13.6099997
  79.7861690  10.0924261  13.9953026  86.6819992  15.8914990   5.6039997
  87.1559992  16.1874990   6.3809997  86.1189992  16.6304990   5.3709997
  86.6707890  16.0318047   5.6788084  81.2159992  15.8624990  15.4799997
  81.2239992  15.7264990  14.5329997  80.2999992  15.7454990  15.7319997
  81.0932528  15.8280475  15.3843226  92.6539992   0.9054990   1.9809997
  91.7539992   1.0434990   2.2769997  92.9059992   1.7364990   1.5799997
  92.5647727   1.0368705   1.9672935  73.2109992  23.2314990  91.0299997
  72.2949992  23.4934990  90.9419997  73.5469992  23.2284990  90.1329997
  73.1309789  23.2669637  90.8967829  80.7199992   9.6924990   3.9549997
  80.4279992  10.4604990   3.4639997  80.0459992   9.0334990   3.7919997
  80.5888843   9.7084537   3.8657695  93.8439992  15.2714990   0.3579997
  93.9169992  16.2104990   0.5279997  94.7489992  14.9664990   0.3019997
  93.9764170  15.3588294   0.3737045  76.8129992  12.0554990  12.7699997
  76.3119992  12.0274990  11.9549997  76.8189992  11.1504990  13.0799997
  76.7451690  11.9292234  12.7002770  76.5639992  14.8364990   9.6539997
  77.5099992  14.6914990   9.6349997  76.4509992  15.6204990  10.1909997
  76.6783578  14.9226708   9.7240300  94.7609992  15.5024990  15.3369997
  94.7119992  14.5464990  15.2989997  93.9349992  15.7694990  15.7379997
  94.6425096  15.4078416  15.3860698  85.7399992  15.0764990  14.2129997
  85.8269992  15.9024990  14.6879997  84.8759992  14.7464990  14.4619997
  85.6351944  15.1449871  14.3116558  86.1539992  18.8484990   4.0189997
  86.0789992  18.7274990   3.0719997  86.1869992  19.7974990   4.1369997
  86.1482083  18.9602639   3.9054973  79.8079992  17.6374990   5.7999997
  79.9599992  17.2894990   6.6779997  78.9569992  17.2804990   5.5439997
  79.7138344  17.5415891   5.8856851  89.2559992  18.0024990   1.0209997
  89.6309992  17.2584990   0.5499997  89.2599992  17.7324990   1.9389997
  89.3078969  17.8640920   1.0806475  88.9249992  17.9284990   3.7699997
  87.9899992  18.0284990   3.9489997  89.2049992  17.2184990   4.3489997
  88.8349471  17.8462944   3.8726678  71.8129992  26.9814990  85.1259997
  71.0159992  26.5664990  84.7969997  72.2579992  26.2914990  85.6169997
  71.7640317  26.8313197  85.1473557  91.9129992   6.9954990  15.8169997
  91.5059992   7.4754990  15.0959997  91.9539992   6.0894990  15.5089997
  91.8628403   6.9387989  15.6767253  79.0619992  13.3794990  13.8129997
  79.2779992  13.0174990  14.6729997  78.2069992  13.0044990  13.6039997
  78.9759082  13.2793377  13.9022396  81.6809992   1.8494990   9.8089997
  80.8189992   1.7624990   9.4009997  81.6589992   2.7054990  10.2369997
  81.5600557   1.9533078   9.8110202  86.3439992   1.5714990  13.1839997
  86.7639992   1.1564990  13.9369997  85.4109992   1.3924990  13.3009997
  86.2753736   1.4904921  13.3028950  89.6699992   5.3264990  14.0369997
  89.1559992   5.2014990  14.8349997  89.5149992   6.2394990  13.7929997
  89.5787802   5.4327433  14.1131504  90.4329992  10.1874990  -0.2020003
  90.4749992   9.9654990  -1.1320003  91.2819992  10.5864990  -0.0120003
  90.5535253  10.2110510  -0.3036196  86.0059992   4.0634990   0.4689997
  85.7519992   4.0824990   1.3909997  85.7489992   3.1924990   0.1669997
  85.9364508   3.9483292   0.5544786  81.7719992   6.8144990  10.9039997
  81.1299992   6.7744990  11.6129997  81.8089992   7.7414990  10.6659997
  81.6891659   6.9342540  10.9688463  81.7689992   7.0354990   5.8159997
  80.8759992   6.6954990   5.7569997  82.2199992   6.6584990   5.0599997
  81.7077185   6.9380220   5.7057698  87.3049992   7.4514990   4.6329997
  86.8959992   8.2664990   4.3409997  88.0249992   7.3114990   4.0189997
  87.3464439   7.5440383   4.5100098  72.8999992  36.2374990  86.7479997
  72.7439992  36.9164990  86.0909997  73.8319992  36.3094990  86.9509997
  73.0047328  36.3401586  86.6855529  86.4069992   7.6274990  16.1209997
  85.8439992   6.9224990  16.4419997  87.2329992   7.5064990  16.5889997
  86.4416674   7.5147176  16.2281734  88.3089992   6.8974990   7.4469997
  88.1139992   7.5034990   6.7319997  88.4909992   6.0644990   7.0129997
  88.3069195   6.8677936   7.2904079  79.5219992   7.1354990  12.7709997
  79.4839992   7.5354990  13.6399997  79.0309992   6.3184990  12.8609997
  79.4504374   7.0798228  12.9020980  82.8879992   4.5094990  -0.4300003
  82.4569992   4.0644990   0.2989997  82.1699992   4.8804990  -0.9430003
  82.7319176   4.4987063  -0.3995087  76.1299992   4.2514990   6.6219997
  76.7609992   4.2224990   7.3409997  76.5799992   3.8264990   5.8909997
  76.2771082   4.1901269   6.6216307  77.4039992   4.9974990   2.0459997
  77.8789992   5.5884990   1.4609997  76.6869992   5.5274990   2.3929997
  77.3720406   5.1501011   2.0128495  87.5729992   8.5354990  12.1179997
  87.8969992   7.9044990  11.4749997  87.1329992   8.0014990  12.7789997
  87.5578707   8.3768261  12.1193195  84.3509992   4.4634990   6.9019997
  83.4399992   4.5204990   7.1909997  84.8559992   4.4034990   7.7129997
  84.2946873   4.4631838   7.0511190  79.1789992   6.0924990   5.7289997
  78.2899992   6.1914990   5.3889997  79.4749992   5.2504990   5.3829997
  79.0974001   5.9922473   5.6357318  82.8319992   6.0924990   3.3859997
  83.7639992   6.2214990   3.5639997  82.6169992   6.7614990   2.7359997
  82.9304472   6.2005817   3.3224873  60.3949992  20.3554990  85.4849997
  60.1659992  20.4144990  84.5579997  59.9519992  19.5644990  85.7919997
  60.3037387  20.2566412  85.3995223  88.7559992   3.6984990  10.1659997
  88.0789992   3.8294990  10.8299997  88.2699992   3.5434990   9.3559997
  88.5977265   3.6954665  10.1473380  81.5059992   7.2864990   0.9519997
  80.9639992   6.9074990   0.2609997  82.3399992   7.4814990   0.5239997
  81.5444390   7.2609091   0.7994374  92.0429992  19.3694990  16.4429997
  92.2429992  19.7934990  15.6089997  92.6989992  19.7134990  17.0499997
  92.1589937  19.4739993  16.4108645  79.6409992  11.8434990  16.0509997
  80.3729992  12.0984990  16.6129997  78.8609992  12.0484990  16.5669997
  79.6356526  11.9060438  16.1975168  85.6709992   7.2504990   8.7889997
  86.2349992   6.7044990   8.2419997  85.5229992   6.7294990   9.5779997
  85.7283037   7.1051798   8.8207212  80.6729992   3.3874990   5.2079997
  80.3549992   2.4844990   5.1719997  81.4539992   3.3894990   4.6549997
  80.7351079   3.2642240   5.1282908  84.2969992   5.6394990  11.2029997
  83.4619992   6.0934990  11.3139997  84.8209992   5.9154990  11.9549997
  84.2536072   5.7388960  11.3198118  84.8409992  11.8524990   2.8879997
  84.0959992  11.3444990   2.5659997  84.7069992  11.9014990   3.8339997
  84.7209334  11.7896144   2.9718892  91.9909992  10.9854990  11.6749997
  92.6329992  11.4414990  11.1309997  91.1609992  11.0984990  11.2119997
  91.9666536  11.0631813  11.5379579  88.7389992   4.6664990   1.0869997
  87.7999992   4.7774990   0.9359997  89.0359992   5.5224990   1.3939997
  88.6506136   4.7974977   1.1078568  59.3249992  34.2964990  81.6459997
  58.4929992  34.7684990  81.6729997  59.8709992  34.8064990  81.0469997
  59.2848710  34.4300317  81.5687570  86.3609992  12.0364990  14.1249997
  86.0149992  11.6544990  14.9319997  86.1609992  12.9694990  14.1959997
  86.2865987  12.1104013  14.2450443  89.4569992   6.5334990   2.7479997
  90.3489992   6.3954990   3.0669997  89.5139992   7.3244990   2.2109997
  89.5867380   6.6214777   2.7190981  79.9659992  11.1474990   8.6579997
  80.7109992  11.1444990   8.0559997  80.0439992  10.3234990   9.1389997
  80.0783366  11.0357395   8.6407412  86.9669992  13.3104990   1.9129997
  86.6719992  14.1374990   2.2949997  86.2639992  12.6914990   2.1099997
  86.8316379  13.3399182   1.9918636  76.9739992   9.6074990  13.9729997
  77.1969992   9.1894990  14.8039997  76.3719992   8.9954990  13.5499997
  76.9231513   9.4674617  14.0296722  83.9909992   9.1244990  16.1859997
  83.6949992   8.9594990  15.2899997  84.9219992   8.9044990  16.1749997
  84.0764401   9.0721891  16.0620189  88.6109992  14.4984990  14.0749997
  87.7099992  14.6814990  13.8079997  88.6449992  14.7574990  14.9959997
  88.4923861  14.5585245  14.1629517  94.3419992   6.7424990   2.4429997
  93.7879992   6.3464990   1.7699997  94.4429992   7.6534990   2.1649997
  94.2798589   6.8113904   2.3133839  94.3049992  12.5434990  15.2799997
  93.4539992  12.7814990  14.9119997  94.8959992  12.5264990  14.5259997
  94.2683831  12.5737623  15.1278448  92.6369992  15.5284990   2.9079997
  92.2649992  14.7034990   3.2169997  92.9149992  15.3454990   2.0099997
  92.6235807  15.3907031   2.8290063  58.6139992  36.9084990  92.9759997
  59.1539992  36.6924990  93.7349997  58.1319992  36.1034990  92.7859997
  58.6229101  36.7700216  93.0544364  89.7979992  10.3364990   9.9289997
  88.8699992  10.1054990   9.9019997  90.2489992   9.5594990   9.5989997
  89.7318165  10.1997785   9.8806772  82.3409992  14.6654990   6.0619997
  82.8679992  15.4384990   5.8619997  81.4609992  14.8894990   5.7599997
  82.2942121  14.8017344   5.9937460  78.0959992   9.5274990   0.6489997
  78.7119992  10.1544990   1.0289997  77.2339992   9.8434990   0.9209997
  78.0637678   9.6559423   0.7377192  83.7679992  12.3284990   5.6379997
  83.5269992  13.2534990   5.6799997  83.0279992  11.8694990   6.0349997
  83.6349463  12.3930969   5.6974279  84.2829992  16.4774990  11.9529997
  84.6459992  17.3314990  11.7199997  84.8149992  16.1854990  12.6939997
  84.4045141  16.5548907  12.0212079  82.4509992  17.3494990   5.1839997
  81.5019992  17.4554990   5.2349997  82.8029992  18.1704990   5.5279997
  82.3685647  17.4750029   5.2374882  87.8269992  12.5764990  11.6539997
  87.4009992  12.3484990  12.4799997  88.4079992  11.8374990  11.4719997
  87.8472088  12.4454393  11.7424454  90.0299992  13.5054990   0.7279997
  90.3829992  13.1254990   1.5319997  89.0809992  13.4114990   0.8149997
  89.9500956  13.4407867   0.8498005  90.4859992  17.1284990  14.1229997
  89.8839992  16.5724990  13.6279997  90.7669992  17.7954990  13.4969997
  90.4415757  17.1425755  13.9705657  94.5329992  17.9844990   0.9289997
  95.2769992  18.5704990   0.7889997  93.8389992  18.5534990   1.2619997
  94.5409809  18.1415830   0.9548572  63.2109992  35.8284990  94.5959997
  63.9789992  35.3694990  94.9369997  63.1899992  35.6024990  93.6659997
  63.3132135  35.7351680  94.5169473  78.6079992   4.3614990  13.5309997
  77.7149992   4.6994990  13.4629997  78.5089992   3.5054990  13.9489997
  78.4724752   4.2920986  13.5781644  90.8959992  12.1774990   2.9549997
  90.6189992  11.4494990   3.5109997  91.8229992  12.2964990   3.1599997
  90.9834419  12.0939436   3.0588264  78.2589992  16.1654990  11.9659997
  78.4759992  15.2334990  11.9349997  78.5059992  16.4404990  12.8489997
  78.3220948  16.0750976  12.0811268  83.0579992  14.1874990   1.6309997
  83.2049992  13.6674990   2.4209997  83.0549992  15.0944990   1.9379997
  83.0777102  14.2388964   1.7805907  79.5109992  11.4394990   2.1419997
  78.8249992  11.7924990   2.7089997  80.0339992  12.2024990   1.8949997
  79.4878402  11.5908912   2.1861783  87.3419992   4.1024990  12.4209997
  88.0409992   4.1764990  13.0709997  86.9619992   3.2374990  12.5749997
  87.3862662   3.9957050  12.5307412  88.1269992   3.7544990   3.5179997
  88.3469992   4.2254990   2.7139997  88.6849992   4.1484990   4.1879997
  88.2326044   3.8722946   3.4985207  85.7959992  15.8844990   2.3809997
  84.9789992  16.3814990   2.4329997  86.3249992  16.3604990   1.7399997
  85.7558125  16.0167000   2.3015289  85.3269992   5.4824990   4.3529997
  86.1389992   5.9864990   4.3989997  85.0819992   5.3374990   5.2669997
  85.4051091   5.5319366   4.4828552  85.8629992   6.4684990  13.5369997
  85.9819992   7.0424990  14.2939997  86.5179992   5.7804990  13.6519997
  85.9678684   6.4540205  13.6561656  67.3029992  35.3364990  75.9709997
  66.6589992  34.7054990  76.2929997  68.0649992  34.8054990  75.7389997
  67.3178260  35.1783035  75.9837298  86.2109992   2.5634990   5.2909997
  85.8639992   3.1804990   5.9349997  86.8689992   3.0644990   4.8089997
  86.2524430   2.7156860   5.3140046  83.1339992  16.9284990   2.3619997
  83.2949992  17.7284990   1.8619997  82.9369992  17.2354990   3.2469997
  83.1293906  17.0793690   2.4132316  81.8679992   3.6264990   1.9779997
  81.7849992   4.5144990   2.3249997  82.7579992   3.3614990   2.2099997
  81.9769331   3.7121177   2.0568067  92.0669992   4.3754990  14.3719997
  91.1509992   4.6374990  14.2849997  92.4029992   4.3724990  13.4759997
  91.9868499   4.4110174  14.2388748  90.6689992   8.1254990   8.4679997
  89.8719992   7.7104990   8.1399997  91.1139992   7.4354990   8.9589997
  90.6200367   7.9753372   8.4894897  80.1269992  14.0534990   1.0379997
  80.7189992  14.7534990   1.3149997  80.5859992  13.6204990   0.3189997
  80.2701652  14.0907686   0.9786515  78.4429992   6.7184990   0.1539997
  78.3979992   7.6574990   0.3329997  77.5549992   6.4824990  -0.1150003
  78.3168166   6.8151698   0.1421507  91.7559992  17.3814990  10.0899997
  91.5999992  18.0604990   9.4329997  92.6879992  17.4534990  10.2929997
  91.8607328  17.4841586  10.0275529  79.2509992   1.4994990   8.8269997
  79.0219992   1.5584990   7.8999997  78.8079992   0.7084990   9.1339997
  79.1597387   1.4006412   8.7415223  78.1809992  15.4404990   4.9879997
  77.3489992  15.9124990   5.0149997  78.7269992  15.9504990   4.3889997
  78.1408710  15.5740317   4.9107570  69.7879992  34.2084990  93.3249997
  69.4369992  33.3514990  93.5679997  70.5139992  34.3504990  93.9319997
  69.8381590  34.1105189  93.4402889  77.4699992  18.0524990  16.3179997
  78.0099992  17.8364990  17.0779997  76.9879992  17.2474990  16.1279997
  77.4788485  17.9140463  16.3964870  82.0669992  16.9724990  17.9379997
  82.8349992  16.5134990  18.2789997  82.0459992  16.7464990  17.0079997
  82.1692135  16.8791680  17.8589473  86.1589992  16.4804990  -0.6870003
  85.5149992  15.8494990  -0.3650003  86.9209992  15.9494990  -0.9180003
  86.1738708  16.3223171  -0.6741539  88.6439992  15.3524990  16.6669997
  88.2929992  14.4954990  16.9099997  89.3699992  15.4944990  17.2739997
  88.6941590  15.2545189  16.7822889  90.7629992  16.2974990  -0.4530003
  91.0459992  15.5024990  -0.0000003  91.5029992  16.5304990  -1.0140003
  90.9017295  16.2202349  -0.4668531  77.3769992  11.8634990  17.2719997
  77.5209992  10.9614990  16.9859997  76.6039992  12.1494990  16.7849997
  77.2922266  11.7786548  17.1670102  81.7179992  12.2064990  -0.5950003
  81.7819992  11.4124990  -0.0650003  82.3709992  12.0884990  -1.2850003
  81.8150483  12.0817496  -0.6156593  84.0319992  11.8324990  16.7049997
  83.7039992  12.1034990  15.8479997  84.1839992  10.8914990  16.6169997
  84.0076412  11.7424058  16.5757804  89.7669992  11.7484990  14.0879997
  90.5119992  12.3374990  13.9689997  89.0089992  12.3304990  14.1509997
  89.7665289  11.9077067  14.0802292  78.2089992   9.0634990  16.6919997
  78.6169992   8.2064990  16.5709997  77.9489992   9.0774990  17.6129997
  78.2297082   8.9480596  16.7999469  58.5209992  30.7194990  93.9299997
  58.6649992  29.8174990  93.6439997  57.7479992  31.0054990  93.4419997
  58.4362854  30.6346876  93.8249363  82.8669992  10.1794990   1.7109997
  82.4079992   9.6954990   2.3959997  83.1219992   9.5104990   1.0749997
  82.8385997  10.0228491   1.7188734  82.1559992   8.0724990  14.0669997
  81.5379992   8.7464990  14.3469997  82.4999992   8.3934990  13.2329997
  82.1178078   8.2082298  13.9926609  83.9379992   8.4224990  -0.0270003
  83.7579992   8.2674990  -0.9540003  84.8879992   8.5304990   0.0179997
  84.0417804   8.4158821  -0.1478034  87.1759992  10.5434990  17.3439997
  88.1289992  10.6274990  17.3169997  87.0159992   9.8314990  17.9629997
  87.2847320  10.4587292  17.4239933  93.3279992  10.7764990  -0.5810003
  93.0549992  10.3524990  -1.3940003  93.3679992  11.7084990  -0.7980003
  93.2960201  10.8443523  -0.7216452  82.4959992   5.4274990  15.1489997
  82.6459992   4.6984990  14.5469997  82.4979992   6.2044990  14.5899997
  82.5167967   5.4327720  14.9910523  82.9079992   3.7964990  12.6419997
  83.4439992   4.2484990  11.9899997  82.0559992   3.6884990  12.2189997
  82.8661795   3.8437444  12.4956211  84.4899992   9.2364990  12.8809997
  85.2409992   9.0804990  12.3079997  84.1509992  10.0884990  12.6059997
  84.5469587   9.3303149  12.7654060  88.9059992   7.0514990  17.9099997
  89.0979992   6.1204990  17.7979997  89.7629992   7.4764990  17.8989997
  89.0482176   6.9815090  17.8931757  90.2219992   9.8404990  15.9869997
  89.9409992  10.5494990  15.4089997  91.1649992   9.7674990  15.8359997
  90.3109272   9.9276704  15.8874976  65.1759992  30.6884990  93.3629997
  64.8479992  30.9594990  92.5049997  65.3279992  29.7474990  93.2749997
  65.1516970  30.5983694  93.2337953  80.9739992   6.6254990  17.0599997
  80.2069992   6.0924990  16.8499997  81.6529992   6.3154990  16.4609997
  80.9608292   6.5106360  16.9502693  83.7139992   1.2534990  13.0729997
  83.6159992   2.1994990  12.9679997  82.9709992   0.8804990  12.5969997
  83.6002123   1.3326811  12.9943204  84.9779992   5.5744990  16.6369997
  84.7419992   5.3554990  17.5379997  84.1949992   5.3674990  16.1269997
  84.8398382   5.5165340  16.6913991  87.6939992   4.7024990  15.7119997
  86.7459992   4.7344990  15.8439997  88.0059992   4.0764990  16.3659997
  87.6065293   4.6222934  15.8184130  89.3279992   3.3364990  17.7169997
  89.2309992   2.3844990  17.7119997  89.0059992   3.6044990  18.5779997
  89.2712468   3.2425896  17.8326192  79.1549992   4.5454990  16.7649997
  79.3659992   3.8394990  16.1549997  79.0429992   4.1084990  17.6089997
  79.1687668   4.3896619  16.7955445  83.9359992   0.5474990  15.7439997
  84.6469992  -0.0925010  15.7299997  83.8349992   0.8134990  14.8309997
  84.0196858   0.4958591  15.6185501  84.2889992   2.2294990  17.7979997
  84.1579992   1.7544990  16.9779997  83.6899992   2.9744990  17.7429997
  84.1900829   2.2650949  17.6781823  83.8359992  19.1124990   0.9739997
  84.7689992  19.2704990   1.1179997  83.5709992  19.7884990   0.3489997
  83.9279846  19.2254567   0.9092930  77.4039992  13.7494990   0.4569997
  78.3179992  13.8284990   0.7299997  77.4109992  13.0624990  -0.2090003
  77.5300624  13.6674074   0.4043045  70.9109992  30.6044990  90.7459997
  71.6559992  31.1934990  90.6259997  70.1529992  31.1864990  90.8089997
  70.9105185  30.7637000  90.7380940  76.0529992  19.1424990   5.5339997
  75.4059992  18.6804990   5.0019997  76.4079992  18.4704990   6.1169997
  76.0123741  18.9884785   5.5399157  76.9229992  17.2224990   7.3389997
  76.5889992  16.3424990   7.5109997  77.1449992  17.5684990   8.2039997
  76.9072565  17.1487410   7.4794263  94.4719992  18.0324990  10.3199997
  94.4499992  18.2174990  11.2579997  95.1619992  18.6004990   9.9789997
  94.5623383  18.1347104  10.4024580  94.0349992  17.5994990  13.2409997
  93.5479992  16.8634990  12.8699997  94.5839992  17.2054990  13.9189997
  94.0426101  17.4456267  13.2819034  92.4859992  13.3894990  17.8789997
  91.6199992  13.2844990  18.2739997  92.8619992  14.1474990  18.3259997
  92.4184940  13.4776141  17.9933958  93.7869992  11.6454990   3.3939997
  94.6369992  12.0664990   3.5209997  93.7919992  10.9054990   4.0009997
  93.9041143  11.6031106   3.4934732  94.1809992   9.6994990   5.2169997
  93.4549992   9.2194990   5.6149997  94.7619992   9.9044990   5.9489997
  94.1602504   9.6615592   5.3704199  93.9399992  12.4844990  10.1649997
  94.7739992  12.1064990   9.8839997  94.0519992  13.4274990  10.0459997
  94.0691917  12.5602954  10.1104844  92.4259992  15.3624990  12.4719997
  91.7789992  15.6874990  13.0969997  91.9089992  14.9214990  11.7979997
  92.2674112  15.3474133  12.4665272  94.4489992   9.6004990   1.6079997
  93.9279992   9.9564990   0.8899997  94.4159992  10.2754990   2.2869997
  94.3730955   9.7405023   1.6012634  59.3529992  27.9194990  93.3499997
  59.7609992  27.0624990  93.2289997  59.0929992  27.9334990  94.2709997
  59.3737082  27.8040596  93.4579469  92.7979992   6.8394990   0.1589997
  92.8949992   7.5064990  -0.5210003  92.6579992   6.0244990  -0.3220003
  92.7923407   6.8205670   0.0008312  91.9679992   8.2204990   5.7799997
  91.8179992   7.2754990   5.7599997  91.6139992   8.5014990   6.6239997
  91.8996351   8.1291656   5.8913202  77.0029992  10.2984990   9.7909997
  77.1869992  10.2164990   8.8549997  77.8519992  10.1744990  10.2139997
  77.1430132  10.2705066   9.7201460  92.8239992  10.1904990  15.4189997
  93.4069992   9.4554990  15.6109997  93.3879992  10.9624990  15.4659997
  92.9799781  10.1943156  15.4516146  94.3209992   8.0934990  16.1039997
  93.4569992   7.7144990  15.9379997  94.9249992   7.3544990  16.0289997
  94.2845394   7.9418378  16.0711778  91.6779992   5.8024990   4.2429997
  91.9579992   4.8954990   4.3669997  92.4369992   6.2364990   3.8539997
  91.8189258   5.7370935   4.2073691  92.2899992   6.3844990   9.6789997
  93.2229992   6.5964990   9.6439997  92.0549992   6.4854990  10.6009997
  92.3859517   6.4271844   9.7989113  92.3189992   7.1214990  12.4549997
  91.4759992   7.3894990  12.8199997  92.7619992   7.9434990  12.2439997
  92.2634035   7.2693351  12.4764770  76.5999992   5.5684990  15.9309997
  77.5199992   5.4464990  16.1679997  76.1509992   4.8184990  16.3209997
  76.6650500   5.4504576  16.0161016  94.6019992   1.1014990  17.8079997
  94.9519992   0.4474990  17.2019997  94.7489992   1.9384990  17.3679997
  94.6697192   1.1252545  17.6656712  64.0109992  29.0354990  78.3679997
  63.5519992  28.5514990  79.0539997  64.2659992  28.3664990  77.7319997
  63.9826178  28.8788511  78.3759785  92.2919992   3.0654990   4.2909997
  92.4739992   2.6164990   5.1159997  91.6919992   2.4814990   3.8269997
  92.2358187   2.9250563   4.3412721  77.8219992   3.8814990   8.8229997
  78.2669992   3.0894990   9.1249997  78.2879992   4.5974990   9.2529997
  77.9459718   3.8699546   8.9225247  76.1259992   6.8804990   9.8919997
  76.6179992   6.6594990   9.1009997  76.4879992   7.7204990  10.1729997
  76.2422923   6.9638480   9.8217389  94.1219992   3.2104990  16.1569997
  93.2049992   3.4814990  16.1209997  94.2449992   2.6754990  15.3729997
  94.0130828   3.1752711  16.0460767  94.1579992   3.1334990   0.8189997
  94.5709992   2.4124990   0.3439997  94.8399992   3.8024990   0.8769997
  94.3066060   3.1253741   0.7619233  76.4389992   3.1384990   3.9459997
  75.5139992   3.3464990   3.8169997  76.8929992   3.6224990   3.2559997
  76.3736298   3.2324311   3.8350433  91.2099992  18.1224990   5.8919997
  91.8619992  17.7744990   5.2839997  91.7209992  18.6104990   6.5379997
  91.3682872  18.1408248   5.8960964  76.4029992   1.8764990  12.2899997
  75.7379992   1.6304990  12.9329997  75.9599992   2.4984990  11.7129997
  76.2521168   1.9269225  12.2999830  78.5949992  15.0514990  16.4349997
  77.7739992  15.2264990  15.9739997  78.3429992  14.9784990  17.3549997
  78.4485594  15.0655728  16.4963593  81.5489992  16.0254990  12.6929997
  81.1239992  16.8354990  12.4109997  82.4529992  16.1114990  12.3909997
  81.6130706  16.1479557  12.6135836  63.2999992  26.9284990  90.7239997
  62.6819992  27.6024990  91.0049997  63.6439992  27.2494990  89.8909997
  63.2618181  27.0643233  90.6498266  85.8599992  17.4244990  15.6529997
  86.0449992  17.0914990  16.5309997  86.7069992  17.7344990  15.3309997
  85.9997291  17.4208214  15.7296140  88.2049992  18.7104990  14.8969997
  88.8819992  18.0774990  14.6569997  88.5269992  19.1114990  15.7039997
  88.3411618  18.6781147  14.9732802  93.1229992   1.3004990  13.9759997
  92.3099992   1.6254990  13.5889997  93.3559992   0.5394990  13.4429997
  93.0431347   1.2421891  13.8509824  78.9509992  19.2824990  12.7409997
  78.2299992  19.7224990  12.2899997  78.5849992  19.0314990  13.5889997
  78.8029632  19.3087235  12.7939649  81.4179992  18.8824990  11.7699997
  80.5529992  18.9544990  12.1739997  81.3629992  19.4294990  10.9869997
  81.2922289  18.9663242  11.7193749  86.1289992  18.7704990  10.9459997
  85.6719992  19.2994990  10.2919997  86.2909992  19.3734990  11.6709997
  86.0883919  18.9243990  10.9545740  88.4559992  17.6484990  11.8909997
  87.5519992  17.8134990  11.6249997  88.8849992  18.5014990  11.8249997
  88.3902017  17.7864184  11.8456495  91.0599992  19.2184990  12.1859997
  90.8789992  20.1344990  11.9749997  91.2369992  18.8074990  11.3389997
  91.0591377  19.2883365  12.0427178  78.3659992  17.9054990   9.6509997
  78.3469992  17.4794990  10.5079997  79.1699992  17.5864990   9.2419997
  78.4721393  17.8040297   9.7130155  80.5069992  16.6154990   8.3059997
  80.2879992  15.6984990   8.4759997  81.3309992  16.7554990   8.7719997
  80.5884702  16.5090523   8.3922510  68.3199992  29.3994990  94.0019997
  69.2729992  29.4834990  93.9739997  68.1599992  28.6874990  94.6209997
  68.4288161  29.3147198  94.0818689  83.0439992  17.0854990   9.1549997
  83.2569992  16.1974990   8.8679997  83.1089992  17.0504990  10.1089997
  83.0819149  16.9593338   9.2447351  86.5529992   2.7494990   8.2989997
  85.8779992   2.1194990   8.5549997  87.1169992   2.2654990   7.6959997
  86.5369363   2.5978886   8.2524810  91.6949992   0.8564990   8.4119997
  92.2989992   1.4044990   7.9099997  90.8259992   1.1754990   8.1709997
  91.6600419   0.9745628   8.3107741  93.4219992   1.9954990   6.7449997
  94.0339992   1.4814990   6.2179997  93.8049992   2.8724990   6.7679997
  93.5573867   2.0437613   6.6760888  78.8789992   1.3834990   6.1209997
  78.1019992   1.1484990   5.6139997  79.4099992   0.5864990   6.1299997
  78.8443735   1.2436462   6.0528090  77.7159992   1.1814990   1.9249997
  78.1549992   1.7924990   1.3329997  77.0819992   1.7194990   2.3989997
  77.6903859   1.3379076   1.9080287  83.4589992   1.3094990   5.9339997
  84.3329992   1.6984990   5.9049997  83.3229992   1.0944990   6.8569997
  83.5601953   1.3336654   6.0547599  89.0149992   1.3394990   7.5839997
  89.0919992   1.4354990   6.6339997  88.7399992   0.4324990   7.7119997
  88.9883233   1.2299093   7.4713665  90.3689992   1.3654990   3.2759997
  89.6659992   1.9804990   3.0659997  89.9239992   0.5284990   3.4069997
  90.2126550   1.3364679   3.2649819  77.6169992  17.1294990   2.8219997
  76.9319992  17.0914990   2.1549997  77.6199992  18.0414990   3.1099997
  77.5236806  17.2476669   2.7696961  74.4719992  29.6324990  76.0759997
  74.1989992  29.2084990  75.2629997  74.5119992  30.5644990  75.8589997
  74.4400201  29.7003523  75.9353548  79.5769992   3.0974990   0.3669997
  80.0679992   2.4674990  -0.1600003  80.1999992   3.3934990   1.0299997
  79.7285304   3.0512387   0.3844922  84.6029992   3.3904990   2.8239997
  84.7809992   2.7434990   3.5069997  84.5489992   4.2244990   3.2909997
  84.6200678   3.4146615   2.9806283  86.4809992  18.3384990   1.2199997
  87.3469992  18.7054990   1.0419997  86.2339992  17.8994990   0.4059997
  86.5661853  18.3294021   1.0855813  93.1899992  17.9014990   3.8989997
  92.9959992  17.1534990   3.3339997  93.1509992  18.6594990   3.3159997
  93.1581645  17.9015797   3.7428131  78.8369992   1.8974990  15.6389997
  78.4709992   1.1314990  16.0809997  79.7499992   1.9264990  15.9249997
  78.9103172   1.7965335  15.7381872  80.8099992   1.2474990  17.1739997
  81.7089992   0.9734990  16.9899997  80.4239992   0.5054990  17.6389997
  80.8807307   1.1097207  17.2117080  79.4349992  18.0494990  -0.1530003
  79.1669992  18.3354990   0.7209997  80.2059992  17.5034990  -0.0000003
  79.5025926  18.0147790  -0.0128812  89.2309992   0.5804990  17.3569997
  89.3079992   0.1544990  18.2099997  90.1249992   0.5934990  17.0139997
  89.3623263   0.5239345  17.4274366  92.4079992  16.6524990  16.0489997
  91.6259992  16.4664990  15.5289997  92.3359992  17.5824990  16.2659997
  92.2912975  16.7526973  16.0071822 106.8139992  10.5394990   6.0799997
 106.9029992  11.4834990   5.9469997 106.1749992  10.2644990   5.4219997
 106.7398378  10.6313846   5.9729258  63.6399992  24.2834990  91.8069997
  63.7899992  23.5544990  91.2039997  63.6419992  25.0604990  91.2479997
  63.6607664  24.2888971  91.6490525 105.7469992   9.7944990   9.4989997
 105.7079992   9.1484990  10.2039997 105.4239992   9.3274990   8.7269997
 105.6980469   9.6430005   9.4912803  98.1149992   9.4084990  11.0919997
  98.1559992   8.7834990  11.8149997  98.8179992  10.0324990  11.2739997
  98.2156223   9.4072318  11.2156164 109.4529992  12.7334990   7.7999997
 109.0119992  12.0134990   8.2509997 109.4399992  13.4544990   8.4299997
 109.3909215  12.7324303   7.9468088  99.0389992  13.8584990   9.6269997
  98.6689992  13.0564990   9.2569997  99.9799992  13.6904990   9.6729997
  99.1155984  13.7259649   9.5825586  95.6489992   7.5184990   5.0189997
  95.2009992   8.3644990   5.0009997  95.0879992   6.9394990   4.5039997
  95.5118546   7.5559004   4.9468874  96.3589992   9.6804990   7.1449997
  96.5729992   8.9104990   7.6719997  97.0969992   9.7704990   6.5419997
  96.4880073   9.5873546   7.1355786 106.5639992  17.8374990   8.0119997
 107.1839992  17.1614990   7.7389997 106.3559992  17.6194990   8.9209997
 106.6207679  17.7155032   8.0974518 104.1359992  12.2264990   9.9049997
 104.4399992  11.5404990   9.3099997 104.8579992  12.3454990  10.5229997
 104.2751240  12.1487325   9.9070941 112.7989992   3.8284990  10.7649997
 112.8479992   4.4384990  11.5009997 113.2249992   4.2894990  10.0419997
 112.8632851   3.9743266  10.7680532 107.2769992   6.6204990  10.2319997
 107.4189992   5.6744990  10.2519997 107.1709992   6.8274990   9.3039997
 107.2821051   6.5189706  10.1092249  64.0519992  22.6524990  89.2989997
  64.5879992  23.1044990  88.6469997  63.1999992  22.5444990  88.8769997
  64.0101648  22.6997883  89.1526395 100.4319992   4.7224990   7.5049997
 100.4749992   5.5824990   7.0859997  99.9739992   4.1694990   6.8709997
 100.3760163   4.7654174   7.3620604 108.1539992   4.8534990   5.9049997
 108.7999992   4.5244990   6.5299997 108.6639992   5.3704990   5.2829997
 108.3114289   4.8784333   5.9063681  97.0519992   7.1194990   8.2669997
  97.7059992   6.5694990   8.6989997  97.0759992   6.8454990   7.3499997
  97.1447199   7.0072178   8.2021650 102.2079992   8.6694990   7.4819997
 102.8239992   8.1424990   7.9909997 101.6219992   8.0294990   7.0779997
 102.2130652   8.5108919   7.4970277 113.1909992   5.3064990  13.0009997
 112.5019992   5.9644990  12.9059997 113.2059992   5.1084990  13.9379997
 113.0987756   5.3697614  13.1145795  99.2419992   3.6404990  11.5789997
  99.0229992   4.1704990  10.8119997  98.5739992   3.8664990  12.2259997
  99.1216975   3.7435979  11.5615123 106.6109992  13.1404990   5.1229997
 106.3149992  12.8174990   4.2709997 106.2869992  14.0404990   5.1639997
 106.5267458  13.2179678   5.0120598 101.8109992  11.3154990  11.8659997
 101.0709992  11.9144990  11.9699997 102.5249992  11.8694990  11.5499997
 101.8063146  11.4722611  11.8375150 109.9179992   4.1444990   7.8859997
 109.7029992   3.3784990   8.4189997 110.5739992   4.6164990   8.3989997
 109.9772673   4.1035739   8.0281972  98.8359992   5.5324990   9.5309997
  99.4489992   6.1654990   9.9039997  99.3479992   5.0604990   8.8749997
  98.9891933   5.5553380   9.4933477  65.6339992  28.0924990  89.5389997
  66.3849992  27.9364990  88.9659997  65.2949992  28.9444990  89.2629997
  65.6909052  28.1862745  89.4233469 100.2179992  13.2804990  12.6529997
 100.2129992  14.1594990  12.2749997  99.3649992  13.1964990  13.0779997
 100.1019199  13.3895901  12.6586942  96.3399992  12.9514990   3.4349997
  96.0679992  13.1804990   2.5459997  96.3849992  13.7884990   3.8959997
  96.3088360  13.0961034   3.3756186 109.9649992  14.5724990  10.1479997
 109.0229992  14.6314990  10.3099997 110.2409992  15.4784990  10.0109997
 109.8735865  14.7030299  10.1516174 110.2649992   2.8594990  11.5649997
 109.5289992   3.4694990  11.5279997 110.9489992   3.2744990  11.0389997
 110.2565367   2.9992562  11.4888156 103.2679992   0.9454990   9.0309997
 103.1509992  -0.0025010   8.9769997 102.4129992   1.2784990   9.3039997
 103.1363691   0.8605842   9.0605072 108.2169992  16.3534990   6.7729997
 108.6419992  15.6464990   6.2879997 108.5339992  17.1554990   6.3559997
 108.3180266  16.3650201   6.6502461 109.3759992  14.2544990   5.2819997
 109.1189992  13.5644990   4.6699997 109.4469992  13.8114990   6.1269997
 109.3504322  14.1001568   5.3125372 111.0619992  12.8214990  13.7589997
 111.2019992  12.2294990  13.0199997 111.2299992  13.6944990  13.4029997
 111.1038734  12.8584041  13.6096937 105.5349992   9.7834990   3.5319997
 104.8229992  10.3184990   3.1799997 106.2259992   9.8384990   2.8719997
 105.5309704   9.8641663   3.3945797 105.5889992   8.2404990   0.5699997
 106.2899992   8.2634990   1.2219997 105.8909992   7.6124990  -0.0860003
 105.7258202   8.1587223   0.5705591  70.0499992  25.9074990  94.5669997
  70.2419992  24.9764990  94.4559997  70.9069992  26.3324990  94.5569997
  70.1922320  25.8374743  94.5504433 112.9039992   9.1614990  11.8249997
 112.2519992   9.8554990  11.9139997 113.3689992   9.3714990  11.0149997
 112.8775357   9.2849544  11.7277056 108.9409992   9.9924990   4.4829997
 108.2089992  10.2214990   5.0559997 109.3879992   9.2794990   4.9379997
 108.9012753   9.9273984   4.6229698 108.8379992   8.1674990  13.5509997
 108.9179992   8.9304990  14.1229997 108.2369992   8.4464990  12.8609997
 108.7676547   8.3097468  13.5360029 100.5859992  10.6234990   6.3659997
 100.2559992  10.2524990   5.5479997 101.1739992   9.9524990   6.7129997
 100.6203182  10.4820648   6.3009898 101.9529992  14.0514990   9.0469997
 101.8579992  13.4724990   8.2909997 102.6819992  13.6804990   9.5429997
 102.0386011  13.9220572   9.0106011 100.9529992   9.3914990   9.9989997
 101.5179992   9.5134990   9.2369997 101.2709992  10.0294990  10.6379997
 101.0733619   9.4944388   9.9810019 107.2619992  14.8954990  10.7329997
 107.0209992  15.5574990  11.3809997 107.0639992  14.0604990  11.1579997
 107.2022662  14.8732704  10.8791008 101.8329992  13.7914990  14.7169997
 101.5209992  14.5734990  15.1719997 101.1829992  13.6384990  14.0309997
 101.7024858  13.8777882  14.6865344 107.8119992   9.1554990   2.1689997
 108.3909992   9.3054990   2.9149997 108.2259992   9.6254990   1.4449997
 107.9473358   9.2395966   2.1733935  98.7529992   9.9894990  13.9449997
  98.8229992  10.6404990  14.6439997  97.8619992  10.0924990  13.6099997
  98.6421690  10.0924261  13.9953026  71.3659992  28.6964990  92.6449997
  71.0849992  29.4054990  92.0669997  72.3089992  28.6234990  92.4939997
  71.4549272  28.7836704  92.5454976 105.5379992  15.8914990   5.6039997
 106.0119992  16.1874990   6.3809997 104.9749992  16.6304990   5.3709997
 105.5267890  16.0318047   5.6788084 100.0719992  15.8624990  15.4799997
 100.0799992  15.7264990  14.5329997  99.1559992  15.7454990  15.7319997
  99.9492528  15.8280475  15.3843226 111.5099992   0.9054990   1.9809997
 110.6099992   1.0434990   2.2769997 111.7619992   1.7364990   1.5799997
 111.4207727   1.0368705   1.9672935  99.5759992   9.6924990   3.9549997
  99.2839992  10.4604990   3.4639997  98.9019992   9.0334990   3.7919997
  99.4448843   9.7084537   3.8657695 112.6999992  15.2714990   0.3579997
 112.7729992  16.2104990   0.5279997 113.6049992  14.9664990   0.3019997
 112.8324170  15.3588294   0.3737045  95.6689992  12.0554990  12.7699997
  95.1679992  12.0274990  11.9549997  95.6749992  11.1504990  13.0799997
  95.6011690  11.9292234  12.7002770  95.4199992  14.8364990   9.6539997
  96.3659992  14.6914990   9.6349997  95.3069992  15.6204990  10.1909997
  95.5343578  14.9226708   9.7240300 113.6169992  15.5024990  15.3369997
 113.5679992  14.5464990  15.2989997 112.7909992  15.7694990  15.7379997
 113.4985096  15.4078416  15.3860698 104.5959992  15.0764990  14.2129997
 104.6829992  15.9024990  14.6879997 103.7319992  14.7464990  14.4619997
 104.4911944  15.1449871  14.3116558 105.0099992  18.8484990   4.0189997
 104.9349992  18.7274990   3.0719997 105.0429992  19.7974990   4.1369997
 105.0042083  18.9602639   3.9054973  62.1179992  25.4814990  93.7179997
  61.3509992  24.9484990  93.5079997  62.7969992  25.1714990  93.1189997
  62.1048292  25.3666360  93.6082693  98.6639992  17.6374990   5.7999997
  98.8159992  17.2894990   6.6779997  97.8129992  17.2804990   5.5439997
  98.5698344  17.5415891   5.8856851 108.1119992  18.0024990   1.0209997
 108.4869992  17.2584990   0.5499997 108.1159992  17.7324990   1.9389997
 108.1638969  17.8640920   1.0806475 107.7809992  17.9284990   3.7699997
 106.8459992  18.0284990   3.9489997 108.0609992  17.2184990   4.3489997
 107.6909471  17.8462944   3.8726678 110.7689992   6.9954990  15.8169997
 110.3619992   7.4754990  15.0959997 110.8099992   6.0894990  15.5089997
 110.7188403   6.9387989  15.6767253  97.9179992  13.3794990  13.8129997
  98.1339992  13.0174990  14.6729997  97.0629992  13.0044990  13.6039997
  97.8319082  13.2793377  13.9022396 100.5369992   1.8494990   9.8089997
  99.6749992   1.7624990   9.4009997 100.5149992   2.7054990  10.2369997
 100.4160557   1.9533078   9.8110202 105.1999992   1.5714990  13.1839997
 105.6199992   1.1564990  13.9369997 104.2669992   1.3924990  13.3009997
 105.1313736   1.4904921  13.3028950 108.5259992   5.3264990  14.0369997
 108.0119992   5.2014990  14.8349997 108.3709992   6.2394990  13.7929997
 108.4347802   5.4327433  14.1131504 109.2889992  10.1874990  -0.2020003
 109.3309992   9.9654990  -1.1320003 110.1379992  10.5864990  -0.0120003
 109.4095253  10.2110510  -0.3036196 104.8619992   4.0634990   0.4689997
 104.6079992   4.0824990   1.3909997 104.6049992   3.1924990   0.1669997
 104.7924508   3.9483292   0.5544786  64.8579992  20.1094990  89.7309997
  64.7599992  21.0554990  89.6249997  64.1149992  19.7364990  89.2549997
  64.7442363  20.1885987  89.6522029 100.6279992   6.8144990  10.9039997
  99.9859992   6.7744990  11.6129997 100.6649992   7.7414990  10.6659997
 100.5451659   6.9342540  10.9688463 100.6249992   7.0354990   5.8159997
  99.7319992   6.6954990   5.7569997 101.0759992   6.6584990   5.0599997
 100.5637185   6.9380220   5.7057698 106.1609992   7.4514990   4.6329997
 105.7519992   8.2664990   4.3409997 106.8809992   7.3114990   4.0189997
 106.2024439   7.5440383   4.5100098 105.2629992   7.6274990  16.1209997
 104.6999992   6.9224990  16.4419997 106.0889992   7.5064990  16.5889997
 105.2976674   7.5147176  16.2281734 107.1649992   6.8974990   7.4469997
 106.9699992   7.5034990   6.7319997 107.3469992   6.0644990   7.0129997
 107.1629195   6.8677936   7.2904079  98.3779992   7.1354990  12.7709997
  98.3399992   7.5354990  13.6399997  97.8869992   6.3184990  12.8609997
  98.3064374   7.0798228  12.9020980 101.7439992   4.5094990  -0.4300003
 101.3129992   4.0644990   0.2989997 101.0259992   4.8804990  -0.9430003
 101.5879176   4.4987063  -0.3995087  94.9859992   4.2514990   6.6219997
  95.6169992   4.2224990   7.3409997  95.4359992   3.8264990   5.8909997
  95.1331082   4.1901269   6.6216307  96.2599992   4.9974990   2.0459997
  96.7349992   5.5884990   1.4609997  95.5429992   5.5274990   2.3929997
  96.2280406   5.1501011   2.0128495 106.4289992   8.5354990  12.1179997
 106.7529992   7.9044990  11.4749997 105.9889992   8.0014990  12.7789997
 106.4138707   8.3768261  12.1193195  66.1219992  24.4304990  93.2939997
  65.8859992  24.2114990  94.1959997  65.3389992  24.2234990  92.7849997
  65.9838444  24.3725688  93.3484518 103.2069992   4.4634990   6.9019997
 102.2959992   4.5204990   7.1909997 103.7119992   4.4034990   7.7129997
 103.1506873   4.4631838   7.0511190  98.0349992   6.0924990   5.7289997
  97.1459992   6.1914990   5.3889997  98.3309992   5.2504990   5.3829997
  97.9534001   5.9922473   5.6357318 101.6879992   6.0924990   3.3859997
 102.6199992   6.2214990   3.5639997 101.4729992   6.7614990   2.7359997
 101.7864472   6.2005817   3.3224873 107.6119992   3.6984990  10.1659997
 106.9349992   3.8294990  10.8299997 107.1259992   3.5434990   9.3559997
 107.4537265   3.6954665  10.1473380 100.3619992   7.2864990   0.9519997
  99.8199992   6.9074990   0.2609997 101.1959992   7.4814990   0.5239997
 100.4004390   7.2609091   0.7994374 110.8989992  19.3694990  16.4429997
 111.0989992  19.7934990  15.6089997 111.5549992  19.7134990  17.0499997
 111.0149937  19.4739993  16.4108645  98.4969992  11.8434990  16.0509997
  99.2289992  12.0984990  16.6129997  97.7169992  12.0484990  16.5669997
  98.4916526  11.9060438  16.1975168 104.5269992   7.2504990   8.7889997
 105.0909992   6.7044990   8.2419997 104.3789992   6.7294990   9.5779997
 104.5843037   7.1051798   8.8207212  99.5289992   3.3874990   5.2079997
  99.2109992   2.4844990   5.1719997 100.3099992   3.3894990   4.6549997
  99.5911079   3.2642240   5.1282908 103.1529992   5.6394990  11.2029997
 102.3179992   6.0934990  11.3139997 103.6769992   5.9154990  11.9549997
 103.1096072   5.7388960  11.3198118  68.8379992  23.5584990  92.3699997
  67.8899992  23.5904990  92.5019997  69.1499992  22.9324990  93.0239997
  68.7505293  23.4782934  92.4764130 103.6969992  11.8524990   2.8879997
 102.9519992  11.3444990   2.5659997 103.5629992  11.9014990   3.8339997
 103.5769334  11.7896144   2.9718892 110.8469992  10.9854990  11.6749997
 111.4889992  11.4414990  11.1309997 110.0169992  11.0984990  11.2119997
 110.8226536  11.0631813  11.5379579 107.5949992   4.6664990   1.0869997
 106.6559992   4.7774990   0.9359997 107.8919992   5.5224990   1.3939997
 107.5066136   4.7974977   1.1078568 105.2169992  12.0364990  14.1249997
 104.8709992  11.6544990  14.9319997 105.0169992  12.9694990  14.1959997
 105.1425987  12.1104013  14.2450443 108.3129992   6.5334990   2.7479997
 109.2049992   6.3954990   3.0669997 108.3699992   7.3244990   2.2109997
 108.4427380   6.6214777   2.7190981  98.8219992  11.1474990   8.6579997
  99.5669992  11.1444990   8.0559997  98.8999992  10.3234990   9.1389997
  98.9343365  11.0357395   8.6407412 105.8229992  13.3104990   1.9129997
 105.5279992  14.1374990   2.2949997 105.1199992  12.6914990   2.1099997
 105.6876379  13.3399182   1.9918636  95.8299992   9.6074990  13.9729997
  96.0529992   9.1894990  14.8039997  95.2279992   8.9954990  13.5499997
  95.7791513   9.4674617  14.0296722 102.8469992   9.1244990  16.1859997
 102.5509992   8.9594990  15.2899997 103.7779992   8.9044990  16.1749997
 102.9324401   9.0721891  16.0620189 107.4669992  14.4984990  14.0749997
 106.5659992  14.6814990  13.8079997 107.5009992  14.7574990  14.9959997
 107.3483861  14.5585245  14.1629517  70.4719992  22.1924990  94.3749997
  70.3749992  21.2404990  94.3689997  70.1499992  22.4604990  95.2359997
  70.4152229  22.0984706  94.4905108 113.1979992   6.7424990   2.4429997
 112.6439992   6.3464990   1.7699997 113.2989992   7.6534990   2.1649997
 113.1358589   6.8113904   2.3133839 113.1609992  12.5434990  15.2799997
 112.3099992  12.7814990  14.9119997 113.7519992  12.5264990  14.5259997
 113.1243831  12.5737623  15.1278448 111.4929992  15.5284990   2.9079997
 111.1209992  14.7034990   3.2169997 111.7709992  15.3454990   2.0099997
 111.4795807  15.3907031   2.8290063 108.6539992  10.3364990   9.9289997
 107.7259992  10.1054990   9.9019997 109.1049992   9.5594990   9.5989997
 108.5878165  10.1997785   9.8806772 101.1969992  14.6654990   6.0619997
 101.7239992  15.4384990   5.8619997 100.3169992  14.8894990   5.7599997
 101.1502121  14.8017344   5.9937460  96.9519992   9.5274990   0.6489997
  97.5679992  10.1544990   1.0289997  96.0899992   9.8434990   0.9209997
  96.9197678   9.6559423   0.7377192 102.6239992  12.3284990   5.6379997
 102.3829992  13.2534990   5.6799997 101.8839992  11.8694990   6.0349997
 102.4909463  12.3930969   5.6974279 103.1389992  16.4774990  11.9529997
 103.5019992  17.3314990  11.7199997 103.6709992  16.1854990  12.6939997
 103.2605141  16.5548907  12.0212079 101.3069992  17.3494990   5.1839997
 100.3579992  17.4554990   5.2349997 101.6589992  18.1704990   5.5279997
 101.2245647  17.4750029   5.2374882 106.6829992  12.5764990  11.6539997
 106.2569992  12.3484990  12.4799997 107.2639992  11.8374990  11.4719997
 106.7032088  12.4454393  11.7424454  60.2989992  23.4014990  93.4229997
  60.5099992  22.6954990  92.8119997  60.1869992  22.9644990  94.2669997
  60.3127674  23.2456376  93.4534199 108.8859992  13.5054990   0.7279997
 109.2389992  13.1254990   1.5319997 107.9369992  13.4114990   0.8149997
 108.8060956  13.4407867   0.8498005 109.3419992  17.1284990  14.1229997
 108.7399992  16.5724990  13.6279997 109.6229992  17.7954990  13.4969997
 109.2975757  17.1425755  13.9705657 113.3889992  17.9844990   0.9289997
 114.1329992  18.5704990   0.7889997 112.6949992  18.5534990   1.2619997
 113.3969809  18.1415830   0.9548572  97.4639992   4.3614990  13.5309997
  96.5709992   4.6994990  13.4629997  97.3649992   3.5054990  13.9489997
  97.3284752   4.2920986  13.5781644 109.7519992  12.1774990   2.9549997
 109.4749992  11.4494990   3.5109997 110.6789992  12.2964990   3.1599997
 109.8394419  12.0939436   3.0588264  97.1149992  16.1654990  11.9659997
  97.3319992  15.2334990  11.9349997  97.3619992  16.4404990  12.8489997
  97.1780948  16.0750976  12.0811268 101.9139992  14.1874990   1.6309997
 102.0609992  13.6674990   2.4209997 101.9109992  15.0944990   1.9379997
 101.9337102  14.2388964   1.7805907  98.3669992  11.4394990   2.1419997
  97.6809992  11.7924990   2.7089997  98.8899992  12.2024990   1.8949997
  98.3438402  11.5908912   2.1861783 106.1979992   4.1024990  12.4209997
 106.8969992   4.1764990  13.0709997 105.8179992   3.2374990  12.5749997
 106.2422662   3.9957050  12.5307412 106.9829992   3.7544990   3.5179997
 107.2029992   4.2254990   2.7139997 107.5409992   4.1484990   4.1879997
 107.0886044   3.8722946   3.4985207  65.0799992  19.4034990  92.4019997
  65.7909992  18.7634990  92.3879997  64.9789992  19.6694990  91.4879997
  65.1636732  19.3518451  92.2765475 104.6519992  15.8844990   2.3809997
 103.8349992  16.3814990   2.4329997 105.1809992  16.3604990   1.7399997
 104.6118125  16.0167000   2.3015289 104.1829992   5.4824990   4.3529997
 104.9949992   5.9864990   4.3989997 103.9379992   5.3374990   5.2669997
 104.2611091   5.5319366   4.4828552 104.7189992   6.4684990  13.5369997
 104.8379992   7.0424990  14.2939997 105.3739992   5.7804990  13.6519997
 104.8238684   6.4540205  13.6561656 105.0669992   2.5634990   5.2909997
 104.7199992   3.1804990   5.9349997 105.7249992   3.0644990   4.8089997
 105.1084430   2.7156860   5.3140045 101.9899992  16.9284990   2.3619997
 102.1509992  17.7284990   1.8619997 101.7929992  17.2354990   3.2469997
 101.9853906  17.0793690   2.4132316 100.7239992   3.6264990   1.9779997
 100.6409992   4.5144990   2.3249997 101.6139992   3.3614990   2.2099997
 100.8329331   3.7121177   2.0568067 110.9229992   4.3754990  14.3719997
 110.0069992   4.6374990  14.2849997 111.2589992   4.3724990  13.4759997
 110.8428499   4.4110174  14.2388748 109.5249992   8.1254990   8.4679997
 108.7279992   7.7104990   8.1399997 109.9699992   7.4354990   8.9589997
 109.4760367   7.9753372   8.4894897  98.9829992  14.0534990   1.0379997
  99.5749992  14.7534990   1.3149997  99.4419992  13.6204990   0.3189997
  99.1261652  14.0907686   0.9786515  97.2989992   6.7184990   0.1539997
  97.2539992   7.6574990   0.3329997  96.4109992   6.4824990  -0.1150003
  97.1728166   6.8151698   0.1421507  65.4329992  21.0854990  94.4559997
  65.3019992  20.6104990  93.6349997  64.8339992  21.8304990  94.3999997
  65.3341524  21.1211968  94.3361553 110.6119992  17.3814990  10.0899997
 110.4559992  18.0604990   9.4329997 111.5439992  17.4534990  10.2929997
 110.7167328  17.4841586  10.0275529  98.1069992   1.4994990   8.8269997
  97.8779992   1.5584990   7.8999997  97.6639992   0.7084990   9.1339997
  98.0157387   1.4006412   8.7415223  97.0369992  15.4404990   4.9879997
  96.2049992  15.9124990   5.0149997  97.5829992  15.9504990   4.3889997
  96.9968710  15.5740317   4.9107570  96.3259992  18.0524990  16.3179997
  96.8659992  17.8364990  17.0779997  95.8439992  17.2474990  16.1279997
  96.3348485  17.9140463  16.3964870 100.9229992  16.9724990  17.9379997
 101.6909992  16.5134990  18.2789997 100.9019992  16.7464990  17.0079997
 101.0252135  16.8791680  17.8589473 105.0149992  16.4804990  -0.6870003
 104.3709992  15.8494990  -0.3650003 105.7769992  15.9494990  -0.9180003
 105.0298708  16.3223171  -0.6741539 107.4999992  15.3524990  16.6669997
 107.1489992  14.4954990  16.9099997 108.2259992  15.4944990  17.2739997
 107.5501590  15.2545189  16.7822889 109.6189992  16.2974990  -0.4530003
 109.9019992  15.5024990  -0.0000003 110.3589992  16.5304990  -1.0140003
 109.7577295  16.2202349  -0.4668531  96.2329992  11.8634990  17.2719997
  96.3769992  10.9614990  16.9859997  95.4599992  12.1494990  16.7849997
  96.1482266  11.7786548  17.1670102 100.5739992  12.2064990  -0.5950003
 100.6379992  11.4124990  -0.0650003 101.2269992  12.0884990  -1.2850003
 100.6710483  12.0817496  -0.6156593  58.0669992  36.0784990  83.9969997
  57.7329992  35.1984990  84.1689997  58.2889992  36.4244990  84.8609997
  58.0512677  36.0047365  84.1374252 102.8879992  11.8324990  16.7049997
 102.5599992  12.1034990  15.8479997 103.0399992  10.8914990  16.6169997
 102.8636412  11.7424058  16.5757804 108.6229992  11.7484990  14.0879997
 109.3679992  12.3374990  13.9689997 107.8649992  12.3304990  14.1509997
 108.6225289  11.9077067  14.0802292  97.0649992   9.0634990  16.6919997
  97.4729992   8.2064990  16.5709997  96.8049992   9.0774990  17.6129997
  97.0857082   8.9480596  16.7999469 101.7229992  10.1794990   1.7109997
 101.2639992   9.6954990   2.3959997 101.9779992   9.5104990   1.0749997
 101.6945997  10.0228491   1.7188734 101.0119992   8.0724990  14.0669997
 100.3939992   8.7464990  14.3469997 101.3559992   8.3934990  13.2329997
 100.9738078   8.2082298  13.9926609 102.7939992   8.4224990  -0.0270003
 102.6139992   8.2674990  -0.9540003 103.7439992   8.5304990   0.0179997
 102.8977804   8.4158821  -0.1478034 106.0319992  10.5434990  17.3439997
 106.9849992  10.6274990  17.3169997 105.8719992   9.8314990  17.9629997
 106.1407320  10.4587292  17.4239933 112.1839992  10.7764990  -0.5810003
 111.9109992  10.3524990  -1.3940003 112.2239992  11.7084990  -0.7980003
 112.1520201  10.8443523  -0.7216452 101.3519992   5.4274990  15.1489997
 101.5019992   4.6984990  14.5469997 101.3539992   6.2044990  14.5899997
 101.3727967   5.4327720  14.9910523 101.7639992   3.7964990  12.6419997
 102.2999992   4.2484990  11.9899997 100.9119992   3.6884990  12.2189997
 101.7221795   3.8437444  12.4956211  75.6159992  36.8884990  86.9769997
  75.5939992  37.0734990  87.9159997  76.3059992  37.4564990  86.6359997
  75.7063439  36.9906898  87.0594774 103.3459992   9.2364990  12.8809997
 104.0969992   9.0804990  12.3079997 103.0069992  10.0884990  12.6059997
 103.4029587   9.3303149  12.7654060 107.7619992   7.0514990  17.9099997
 107.9539992   6.1204990  17.7979997 108.6189992   7.4764990  17.8989997
 107.9042176   6.9815090  17.8931757 109.0779992   9.8404990  15.9869997
 108.7969992  10.5494990  15.4089997 110.0209992   9.7674990  15.8359997
 109.1669272   9.9276704  15.8874976  99.8299992   6.6254990  17.0599997
  99.0629992   6.0924990  16.8499997 100.5089992   6.3154990  16.4609997
  99.8168292   6.5106360  16.9502693 102.5699992   1.2534990  13.0729997
 102.4719992   2.1994990  12.9679997 101.8269992   0.8804990  12.5969997
 102.4562123   1.3326811  12.9943204 103.8339992   5.5744990  16.6369997
 103.5979992   5.3554990  17.5379997 103.0509992   5.3674990  16.1269997
 103.6958382   5.5165340  16.6913991 106.5499992   4.7024990  15.7119997
 105.6019992   4.7344990  15.8439997 106.8619992   4.0764990  16.3659997
 106.4625293   4.6222934  15.8184130 108.1839992   3.3364990  17.7169997
 108.0869992   2.3844990  17.7119997 107.8619992   3.6044990  18.5779997
 108.1272468   3.2425896  17.8326192  98.0109992   4.5454990  16.7649997
  98.2219992   3.8394990  16.1549997  97.8989992   4.1084990  17.6089997
  98.0247668   4.3896619  16.7955445 102.7919992   0.5474990  15.7439997
 103.5029992  -0.0925010  15.7299997 102.6909992   0.8134990  14.8309997
 102.8756858   0.4958591  15.6185501  75.1789992  36.4554990  89.8989997
  74.6919992  35.7194990  89.5279997  75.7279992  36.0614990  90.5769997
  75.1866101  36.3016267  89.9399034 103.1449992   2.2294990  17.7979997
 103.0139992   1.7544990  16.9779997 102.5459992   2.9744990  17.7429997
 103.0460829   2.2650949  17.6781823 102.6919992  19.1124990   0.9739997
 103.6249992  19.2704990   1.1179997 102.4269992  19.7884990   0.3489997
 102.7839846  19.2254567   0.9092930  96.2599992  13.7494990   0.4569997
  97.1739992  13.8284990   0.7299997  96.2669992  13.0624990  -0.2090003
  96.3860624  13.6674074   0.4043045  94.9089992  19.1424990   5.5339997
  94.2619992  18.6804990   5.0019997  95.2639992  18.4704990   6.1169997
  94.8683741  18.9884785   5.5399157  95.7789992  17.2224990   7.3389997
  95.4449992  16.3424990   7.5109997  96.0009992  17.5684990   8.2039997
  95.7632565  17.1487410   7.4794263 113.3279992  18.0324990  10.3199997
 113.3059992  18.2174990  11.2579997 114.0179992  18.6004990   9.9789997
 113.4183383  18.1347104  10.4024580 112.8909992  17.5994990  13.2409997
 112.4039992  16.8634990  12.8699997 113.4399992  17.2054990  13.9189997
 112.8986101  17.4456267  13.2819034 111.3419992  13.3894990  17.8789997
 110.4759992  13.2844990  18.2739997 111.7179992  14.1474990  18.3259997
 111.2744940  13.4776141  17.9933958 112.6429992  11.6454990   3.3939997
 113.4929992  12.0664990   3.5209997 112.6479992  10.9054990   4.0009997
 112.7601143  11.6031106   3.4934732 113.0369992   9.6994990   5.2169997
 112.3109992   9.2194990   5.6149997 113.6179992   9.9044990   5.9489997
 113.0162504   9.6615592   5.3704199  73.6299992  32.2454990  94.5369997
  72.7639992  32.1404990  94.9309997  74.0059992  33.0034990  94.9839997
  73.5623768  32.3336151  94.6513258 112.7959992  12.4844990  10.1649997
 113.6299992  12.1064990   9.8839997 112.9079992  13.4274990  10.0459997
 112.9251917  12.5602954  10.1104844 111.2819992  15.3624990  12.4719997
 110.6349992  15.6874990  13.0969997 110.7649992  14.9214990  11.7979997
 111.1234112  15.3474133  12.4665272 113.3049992   9.6004990   1.6079997
 112.7839992   9.9564990   0.8899997 113.2719992  10.2754990   2.2869997
 113.2290955   9.7405023   1.6012634 111.6539992   6.8394990   0.1589997
 111.7509992   7.5064990  -0.5210003 111.5139992   6.0244990  -0.3220003
 111.6483407   6.8205670   0.0008312 110.8239992   8.2204990   5.7799997
 110.6739992   7.2754990   5.7599997 110.4699992   8.5014990   6.6239997
 110.7556351   8.1291656   5.8913202  95.8589992  10.2984990   9.7909997
  96.0429992  10.2164990   8.8549997  96.7079992  10.1744990  10.2139997
  95.9990132  10.2705066   9.7201460 111.6799992  10.1904990  15.4189997
 112.2629992   9.4554990  15.6109997 112.2439992  10.9624990  15.4659997
 111.8359781  10.1943156  15.4516146 113.1769992   8.0934990  16.1039997
 112.3129992   7.7144990  15.9379997 113.7809992   7.3544990  16.0289997
 113.1405394   7.9418378  16.0711778 110.5339992   5.8024990   4.2429997
 110.8139992   4.8954990   4.3669997 111.2929992   6.2364990   3.8539997
 110.6749258   5.7370935   4.2073691 111.1459992   6.3844990   9.6789997
 112.0789992   6.5964990   9.6439997 110.9109992   6.4854990  10.6009997
 111.2419517   6.4271844   9.7989113  74.9309992  30.5014990  80.0509997
  75.7809992  30.9224990  80.1789997  74.9359992  29.7614990  80.6589997
  75.0479745  30.4591347  80.1506479 111.1749992   7.1214990  12.4549997
 110.3319992   7.3894990  12.8199997 111.6179992   7.9434990  12.2439997
 111.1194035   7.2693351  12.4764770  95.4559992   5.5684990  15.9309997
  96.3759992   5.4464990  16.1679997  95.0069992   4.8184990  16.3209997
  95.5210500   5.4504576  16.0161016 113.4579992   1.1014990  17.8079997
 113.8079992   0.4474990  17.2019997 113.6049992   1.9384990  17.3679997
 113.5257192   1.1252545  17.6656712 111.1479992   3.0654990   4.2909997
 111.3299992   2.6164990   5.1159997 110.5479992   2.4814990   3.8269997
 111.0918187   2.9250563   4.3412721  96.6779992   3.8814990   8.8229997
  97.1229992   3.0894990   9.1249997  97.1439992   4.5974990   9.2529997
  96.8019718   3.8699546   8.9225247  94.9819992   6.8804990   9.8919997
  95.4739992   6.6594990   9.1009997  95.3439992   7.7204990  10.1729997
  95.0982923   6.9638480   9.8217389 112.9779992   3.2104990  16.1569997
 112.0609992   3.4814990  16.1209997 113.1009992   2.6754990  15.3729997
 112.8690828   3.1752711  16.0460767 113.0139992   3.1334990   0.8189997
 113.4269992   2.4124990   0.3439997 113.6959992   3.8024990   0.8769997
 113.1626060   3.1253741   0.7619233  95.2949992   3.1384990   3.9459997
  94.3699992   3.3464990   3.8169997  95.7489992   3.6224990   3.2559997
  95.2296298   3.2324311   3.8350433 110.0659992  18.1224990   5.8919997
 110.7179992  17.7744990   5.2839997 110.5769992  18.6104990   6.5379997
 110.2242872  18.1408248   5.8960964  75.3249992  28.5554990  81.8749997
  74.5989992  28.0754990  82.2729997  75.9059992  28.7604990  82.6069997
  75.3042504  28.5175592  82.0284199  95.2589992   1.8764990  12.2899997
  94.5939992   1.6304990  12.9329997  94.8159992   2.4984990  11.7129997
  95.1081168   1.9269225  12.2999830  97.4509992  15.0514990  16.4349997
  96.6299992  15.2264990  15.9739997  97.1989992  14.9784990  17.3549997
  97.3045594  15.0655728  16.4963593 100.4049992  16.0254990  12.6929997
  99.9799992  16.8354990  12.4109997 101.3089992  16.1114990  12.3909997
 100.4690706  16.1479557  12.6135836 104.7159992  17.4244990  15.6529997
 104.9009992  17.0914990  16.5309997 105.5629992  17.7344990  15.3309997
 104.8557291  17.4208214  15.7296140 107.0609992  18.7104990  14.8969997
 107.7379992  18.0774990  14.6569997 107.3829992  19.1114990  15.7039997
 107.1971618  18.6781147  14.9732802 111.9789992   1.3004990  13.9759997
 111.1659992   1.6254990  13.5889997 112.2119992   0.5394990  13.4429997
 111.8991347   1.2421891  13.8509824  97.8069992  19.2824990  12.7409997
  97.0859992  19.7224990  12.2899997  97.4409992  19.0314990  13.5889997
  97.6589632  19.3087235  12.7939649 100.2739992  18.8824990  11.7699997
  99.4089992  18.9544990  12.1739997 100.2189992  19.4294990  10.9869997
 100.1482289  18.9663242  11.7193749 104.9849992  18.7704990  10.9459997
 104.5279992  19.2994990  10.2919997 105.1469992  19.3734990  11.6709997
 104.9443919  18.9243990  10.9545740 107.3119992  17.6484990  11.8909997
 106.4079992  17.8134990  11.6249997 107.7409992  18.5014990  11.8249997
 107.2462017  17.7864184  11.8456495  75.0839992  31.3404990  86.8229997
  75.9179992  30.9624990  86.5419997  75.1959992  32.2834990  86.7039997
  75.2131917  31.4162954  86.7684844 109.9159992  19.2184990  12.1859997
 109.7349992  20.1344990  11.9749997 110.0929992  18.8074990  11.3389997
 109.9151377  19.2883365  12.0427178  97.2219992  17.9054990   9.6509997
  97.2029992  17.4794990  10.5079997  98.0259992  17.5864990   9.2419997
  97.3281393  17.8040297   9.7130155  99.3629992  16.6154990   8.3059997
  99.1439992  15.6984990   8.4759997 100.1869992  16.7554990   8.7719997
  99.4444702  16.5090523   8.3922510 101.8999992  17.0854990   9.1549997
 102.1129992  16.1974990   8.8679997 101.9649992  17.0504990  10.1089997
 101.9379149  16.9593338   9.2447351 105.4089992   2.7494990   8.2989997
 104.7339992   2.1194990   8.5549997 105.9729992   2.2654990   7.6959997
 105.3929363   2.5978886   8.2524810 110.5509992   0.8564990   8.4119997
 111.1549992   1.4044990   7.9099997 109.6819992   1.1754990   8.1709997
 110.5160419   0.9745628   8.3107741 112.2779992   1.9954990   6.7449997
 112.8899992   1.4814990   6.2179997 112.6609992   2.8724990   6.7679997
 112.4133867   2.0437613   6.6760888  97.7349992   1.3834990   6.1209997
  96.9579992   1.1484990   5.6139997  98.2659992   0.5864990   6.1299997
  97.7003735   1.2436462   6.0528090  96.5719992   1.1814990   1.9249997
  97.0109992   1.7924990   1.3329997  95.9379992   1.7194990   2.3989997
  96.5463859   1.3379076   1.9080287 102.3149992   1.3094990   5.9339997
 103.1889992   1.6984990   5.9049997 102.1789992   1.0944990   6.8569997
 102.4161953   1.3336654   6.0547599  73.5699992  34.2184990  89.1299997
  72.9229992  34.5434990  89.7549997  73.0529992  33.7774990  88.4549997
  73.4114067  34.2034726  89.1244918 107.8709992   1.3394990   7.5839997
 107.9479992   1.4354990   6.6339997 107.5959992   0.4324990   7.7119997
 107.8443233   1.2299093   7.4713665 109.2249992   1.3654990   3.2759997
 108.5219992   1.9804990   3.0659997 108.7799992   0.5284990   3.4069997
 109.0686550   1.3364679   3.2649819  96.4729992  17.1294990   2.8219997
  95.7879992  17.0914990   2.1549997  96.4759992  18.0414990   3.1099997
  96.3796806  17.2476669   2.7696961  98.4329992   3.0974990   0.3669997
  98.9239992   2.4674990  -0.1600003  99.0559992   3.3934990   1.0299997
  98.5845304   3.0512387   0.3844922 103.4589992   3.3904990   2.8239997
 103.6369992   2.7434990   3.5069997 103.4049992   4.2244990   3.2909997
 103.4760678   3.4146615   2.9806283 105.3369992  18.3384990   1.2199997
 106.2029992  18.7054990   1.0419997 105.0899992  17.8994990   0.4059997
 105.4221853  18.3294021   1.0855813 112.0459992  17.9014990   3.8989997
 111.8519992  17.1534990   3.3339997 112.0069992  18.6594990   3.3159997
 112.0141645  17.9015797   3.7428131  97.6929992   1.8974990  15.6389997
  97.3269992   1.1314990  16.0809997  98.6059992   1.9264990  15.9249997
  97.7663172   1.7965335  15.7381872  99.6659992   1.2474990  17.1739997
 100.5649992   0.9734990  16.9899997  99.2799992   0.5054990  17.6389997
  99.7367307   1.1097207  17.2117080  98.2909992  18.0494990  -0.1530003
  98.0229992  18.3354990   0.7209997  99.0619992  17.5034990  -0.0000003
  98.3585926  18.0147790  -0.0128812  75.5929992  28.4564990  78.2659997
  75.0719992  28.8124990  77.5469997  75.5599992  29.1314990  78.9439997
  75.5171525  28.5965273  78.2591408 108.0869992   0.5804990  17.3569997
 108.1639992   0.1544990  18.2099997 108.9809992   0.5934990  17.0139997
 108.2183263   0.5239345  17.4274366 111.2639992  16.6524990  16.0489997
 110.4819992  16.4664990  15.5289997 111.1919992  17.5824990  16.2659997
 111.1472975  16.7526973  16.0071822 125.6699992  10.5394990   6.0799997
 125.7589992  11.4834990   5.9469997 125.0309992  10.2644990   5.4219997
 125.5958378  10.6313846   5.9729258 124.6029992   9.7944990   9.4989997
 124.5639992   9.1484990  10.2039997 124.2799992   9.3274990   8.7269997
 124.5540469   9.6430005   9.4912803 116.9709992   9.4084990  11.0919997
 117.0119992   8.7834990  11.8149997 117.6739992  10.0324990  11.2739997
 117.0716223   9.4072318  11.2156164 128.3089992  12.7334990   7.7999997
 127.8679992  12.0134990   8.2509997 128.2959992  13.4544990   8.4299997
 128.2469215  12.7324303   7.9468088 117.8949992  13.8584990   9.6269997
 117.5249992  13.0564990   9.2569997 118.8359992  13.6904990   9.6729997
 117.9715984  13.7259649   9.5825586 114.5049992   7.5184990   5.0189997
 114.0569992   8.3644990   5.0009997 113.9439992   6.9394990   4.5039997
 114.3678546   7.5559004   4.9468874 115.2149992   9.6804990   7.1449997
 115.4289992   8.9104990   7.6719997 115.9529992   9.7704990   6.5419997
 115.3440073   9.5873546   7.1355786 125.4199992  17.8374990   8.0119997
 126.0399992  17.1614990   7.7389997 125.2119992  17.6194990   8.9209997
 125.4767679  17.7155032   8.0974518  73.9419992  25.6954990  76.8169997
  74.0389992  26.3624990  76.1369997  73.8019992  24.8804990  76.3349997
  73.9363428  25.6765667  76.6588311 122.9919992  12.2264990   9.9049997
 123.2959992  11.5404990   9.3099997 123.7139992  12.3454990  10.5229997
 123.1311240  12.1487325   9.9070941 131.6549992   3.8284990  10.7649997
 131.7039992   4.4384990  11.5009997 132.0809992   4.2894990  10.0419997
 131.7192851   3.9743266  10.7680532 126.1329992   6.6204990  10.2319997
 126.2749992   5.6744990  10.2519997 126.0269992   6.8274990   9.3039997
 126.1381051   6.5189706  10.1092249 119.2879992   4.7224990   7.5049997
 119.3309992   5.5824990   7.0859997 118.8299992   4.1694990   6.8709997
 119.2320163   4.7654174   7.3620604 127.0099992   4.8534990   5.9049997
 127.6559992   4.5244990   6.5299997 127.5199992   5.3704990   5.2829997
 127.1674289   4.8784333   5.9063681 115.9079992   7.1194990   8.2669997
 116.5619992   6.5694990   8.6989997 115.9319992   6.8454990   7.3499997
 116.0007199   7.0072178   8.2021650 121.0639992   8.6694990   7.4819997
 121.6799992   8.1424990   7.9909997 120.4779992   8.0294990   7.0779997
 121.0690652   8.5108919   7.4970277 132.0469992   5.3064990  13.0009997
 131.3579992   5.9644990  12.9059997 132.0619992   5.1084990  13.9379997
 131.9547756   5.3697614  13.1145795 118.0979992   3.6404990  11.5789997
 117.8789992   4.1704990  10.8119997 117.4299992   3.8664990  12.2259997
 117.9776975   3.7435979  11.5615123 125.4669992  13.1404990   5.1229997
 125.1709992  12.8174990   4.2709997 125.1429992  14.0404990   5.1639997
 125.3827458  13.2179678   5.0120598  73.1119992  27.0764990  82.4379997
  72.9619992  26.1314990  82.4179997  72.7579992  27.3574990  83.2819997
  73.0436351  26.9851656  82.5493202 120.6669992  11.3154990  11.8659997
 119.9269992  11.9144990  11.9699997 121.3809992  11.8694990  11.5499997
 120.6623146  11.4722611  11.8375150 128.7739992   4.1444990   7.8859997
 128.5589992   3.3784990   8.4189997 129.4299992   4.6164990   8.3989997
 128.8332673   4.1035739   8.0281972 117.6919992   5.5324990   9.5309997
 118.3049992   6.1654990   9.9039997 118.2039992   5.0604990   8.8749997
 117.8451933   5.5553380   9.4933477 119.0739992  13.2804990  12.6529997
 119.0689992  14.1594990  12.2749997 118.2209992  13.1964990  13.0779997
 118.9579199  13.3895901  12.6586942 115.1959992  12.9514990   3.4349997
 114.9239992  13.1804990   2.5459997 115.2409992  13.7884990   3.8959997
 115.1648360  13.0961034   3.3756186 128.8209992  14.5724990  10.1479997
 127.8789992  14.6314990  10.3099997 129.0969992  15.4784990  10.0109997
 128.7295865  14.7030299  10.1516174 129.1209992   2.8594990  11.5649997
 128.3849992   3.4694990  11.5279997 129.8049992   3.2744990  11.0389997
 129.1125367   2.9992562  11.4888156 122.1239992   0.9454990   9.0309997
 122.0069992  -0.0025010   8.9769997 121.2689992   1.2784990   9.3039997
 121.9923691   0.8605842   9.0605072 127.0729992  16.3534990   6.7729997
 127.4979992  15.6464990   6.2879997 127.3899992  17.1554990   6.3559997
 127.1740266  16.3650201   6.6502461 128.2319992  14.2544990   5.2819997
 127.9749992  13.5644990   4.6699997 128.3029992  13.8114990   6.1269997
 128.2064322  14.1001568   5.3125372  58.1469992  29.1544990  86.4479997
  58.3309992  29.0724990  85.5129997  58.9959992  29.0304990  86.8719997
  58.2870259  29.1264915  86.3771771 129.9179992  12.8214990  13.7589997
 130.0579992  12.2294990  13.0199997 130.0859992  13.6944990  13.4029997
 129.9598734  12.8584041  13.6096937 124.3909992   9.7834990   3.5319997
 123.6789992  10.3184990   3.1799997 125.0819992   9.8384990   2.8719997
 124.3869704   9.8641663   3.3945797 124.4449992   8.2404990   0.5699997
 125.1459992   8.2634990   1.2219997 124.7469992   7.6124990  -0.0860003
 124.5818202   8.1587223   0.5705591 131.7599992   9.1614990  11.8249997
 131.1079992   9.8554990  11.9139997 132.2249992   9.3714990  11.0149997
 131.7335357   9.2849544  11.7277056 127.7969992   9.9924990   4.4829997
 127.0649992  10.2214990   5.0559997 128.2439992   9.2794990   4.9379997
 127.7572753   9.9273984   4.6229698 127.6939992   8.1674990  13.5509997
 127.7739992   8.9304990  14.1229997 127.0929992   8.4464990  12.8609997
 127.6236547   8.3097468  13.5360029 119.4419992  10.6234990   6.3659997
 119.1119992  10.2524990   5.5479997 120.0299992   9.9524990   6.7129997
 119.4763182  10.4820648   6.3009898 120.8089992  14.0514990   9.0469997
 120.7139992  13.4724990   8.2909997 121.5379992  13.6804990   9.5429997
 120.8946011  13.9220572   9.0106011 119.8089992   9.3914990   9.9989997
 120.3739992   9.5134990   9.2369997 120.1269992  10.0294990  10.6379997
 119.9293619   9.4944388   9.9810019 126.1179992  14.8954990  10.7329997
 125.8769992  15.5574990  11.3809997 125.9199992  14.0604990  11.1579997
 126.0582662  14.8732704  10.8791008  73.9679992  29.0464990  92.0769997
  74.5509992  28.3114990  92.2679997  74.5319992  29.8184990  92.1229997
  74.1240326  29.0502746  92.1093579 120.6889992  13.7914990  14.7169997
 120.3769992  14.5734990  15.1719997 120.0389992  13.6384990  14.0309997
 120.5584858  13.8777882  14.6865344 126.6679992   9.1554990   2.1689997
 127.2469992   9.3054990   2.9149997 127.0819992   9.6254990   1.4449997
 126.8033358   9.2395966   2.1733935 117.6089992   9.9894990  13.9449997
 117.6789992  10.6404990  14.6439997 116.7179992  10.0924990  13.6099997
 117.4981690  10.0924261  13.9953026 124.3939992  15.8914990   5.6039997
 124.8679992  16.1874990   6.3809997 123.8309992  16.6304990   5.3709997
 124.3827890  16.0318047   5.6788084 118.9279992  15.8624990  15.4799997
 118.9359992  15.7264990  14.5329997 118.0119992  15.7454990  15.7319997
 118.8052528  15.8280475  15.3843226 130.3659992   0.9054990   1.9809997
 129.4659992   1.0434990   2.2769997 130.6179992   1.7364990   1.5799997
 130.2767727   1.0368705   1.9672935 118.4319992   9.6924990   3.9549997
 118.1399992  10.4604990   3.4639997 117.7579992   9.0334990   3.7919997
 118.3008843   9.7084537   3.8657695 131.5559992  15.2714990   0.3579997
 131.6289992  16.2104990   0.5279997 132.4609992  14.9664990   0.3019997
 131.6884170  15.3588294   0.3737045 114.5249992  12.0554990  12.7699997
 114.0239992  12.0274990  11.9549997 114.5309992  11.1504990  13.0799997
 114.4571690  11.9292234  12.7002770 114.2759992  14.8364990   9.6539997
 115.2219992  14.6914990   9.6349997 114.1629992  15.6204990  10.1909997
 114.3903578  14.9226708   9.7240300  75.4649992  26.9494990  92.7609997
  74.6009992  26.5704990  92.5959997  76.0689992  26.2104990  92.6869997
  75.4284912  26.7977937  92.7284360 132.4729992  15.5024990  15.3369997
 132.4239992  14.5464990  15.2989997 131.6469992  15.7694990  15.7379997
 132.3545096  15.4078416  15.3860698 123.4519992  15.0764990  14.2129997
 123.5389992  15.9024990  14.6879997 122.5879992  14.7464990  14.4619997
 123.3471944  15.1449871  14.3116558 123.8659992  18.8484990   4.0189997
 123.7909992  18.7274990   3.0719997 123.8989992  19.7974990   4.1369997
 123.8602083  18.9602639   3.9054973 117.5199992  17.6374990   5.7999997
 117.6719992  17.2894990   6.6779997 116.6689992  17.2804990   5.5439997
 117.4258344  17.5415891   5.8856851 126.9679992  18.0024990   1.0209997
 127.3429992  17.2584990   0.5499997 126.9719992  17.7324990   1.9389997
 127.0198969  17.8640920   1.0806475 126.6369992  17.9284990   3.7699997
 125.7019992  18.0284990   3.9489997 126.9169992  17.2184990   4.3489997
 126.5469471  17.8462944   3.8726678 129.6249992   6.9954990  15.8169997
 129.2179992   7.4754990  15.0959997 129.6659992   6.0894990  15.5089997
 129.5748403   6.9387989  15.6767253 116.7739992  13.3794990  13.8129997
 116.9899992  13.0174990  14.6729997 115.9189992  13.0044990  13.6039997
 116.6879082  13.2793377  13.9022396 119.3929992   1.8494990   9.8089997
 118.5309992   1.7624990   9.4009997 119.3709992   2.7054990  10.2369997
 119.2720557   1.9533078   9.8110202 124.0559992   1.5714990  13.1839997
 124.4759992   1.1564990  13.9369997 123.1229992   1.3924990  13.3009997
 123.9873736   1.4904921  13.3028950  72.8219992  24.6584990  80.8999997
  73.1019992  23.7514990  81.0249997  73.5809992  25.0924990  80.5109997
  72.9629471  24.5930654  80.8645052 127.3819992   5.3264990  14.0369997
 126.8679992   5.2014990  14.8349997 127.2269992   6.2394990  13.7929997
 127.2907802   5.4327433  14.1131504 128.1449992  10.1874990  -0.2020003
 128.1869992   9.9654990  -1.1320003 128.9939992  10.5864990  -0.0120003
 128.2655253  10.2110510  -0.3036196 123.7179992   4.0634990   0.4689997
 123.4639992   4.0824990   1.3909997 123.4609992   3.1924990   0.1669997
 123.6484508   3.9483292   0.5544786 119.4839992   6.8144990  10.9039997
 118.8419992   6.7744990  11.6129997 119.5209992   7.7414990  10.6659997
 119.4011659   6.9342540  10.9688463 119.4809992   7.0354990   5.8159997
 118.5879992   6.6954990   5.7569997 119.9319992   6.6584990   5.0599997
 119.4197185   6.9380220   5.7057698 125.0169992   7.4514990   4.6329997
 124.6079992   8.2664990   4.3409997 125.7369992   7.3114990   4.0189997
 125.0584439   7.5440383   4.5100098 124.1189992   7.6274990  16.1209997
 123.5559992   6.9224990  16.4419997 124.9449992   7.5064990  16.5889997
 124.1536674   7.5147176  16.2281734 126.0209992   6.8974990   7.4469997
 125.8259992   7.5034990   6.7319997 126.2029992   6.0644990   7.0129997
 126.0189195   6.8677936   7.2904079 117.2339992   7.1354990  12.7709997
 117.1959992   7.5354990  13.6399997 116.7429992   6.3184990  12.8609997
 117.1624374   7.0798228  12.9020980 120.5999992   4.5094990  -0.4300003
 120.1689992   4.0644990   0.2989997 119.8819992   4.8804990  -0.9430003
 120.4439176   4.4987063  -0.3995087  73.4339992  25.2404990  86.3359997
  74.3669992  25.4524990  86.3019997  73.1989992  25.3414990  87.2589997
  73.5298357  25.2831303  86.4560232 113.8419992   4.2514990   6.6219997
 114.4729992   4.2224990   7.3409997 114.2919992   3.8264990   5.8909997
 113.9891082   4.1901269   6.6216307 115.1159992   4.9974990   2.0459997
 115.5909992   5.5884990   1.4609997 114.3989992   5.5274990   2.3929997
 115.0840406   5.1501011   2.0128495 125.2849992   8.5354990  12.1179997
 125.6089992   7.9044990  11.4749997 124.8449992   8.0014990  12.7789997
 125.2698707   8.3768261  12.1193195 122.0629992   4.4634990   6.9019997
 121.1519992   4.5204990   7.1909997 122.5679992   4.4034990   7.7129997
 122.0066873   4.4631838   7.0511190 116.8909992   6.0924990   5.7289997
 116.0019992   6.1914990   5.3889997 117.1869992   5.2504990   5.3829997
 116.8094001   5.9922473   5.6357318 120.5439992   6.0924990   3.3859997
 121.4759992   6.2214990   3.5639997 120.3289992   6.7614990   2.7359997
 120.6424472   6.2005817   3.3224873 126.4679992   3.6984990  10.1659997
 125.7909992   3.8294990  10.8299997 125.9819992   3.5434990   9.3559997
 126.3097265   3.6954665  10.1473380 119.2179992   7.2864990   0.9519997
 118.6759992   6.9074990   0.2609997 120.0519992   7.4814990   0.5239997
 119.2564390   7.2609091   0.7994374 129.7549992  19.3694990  16.4429997
 129.9549992  19.7934990  15.6089997 130.4109992  19.7134990  17.0499997
 129.8709937  19.4739993  16.4108645 117.3529992  11.8434990  16.0509997
 118.0849992  12.0984990  16.6129997 116.5729992  12.0484990  16.5669997
 117.3476526  11.9060438  16.1975168  73.4629992  25.9774990  89.1119997
  72.6199992  26.2454990  89.4779997  73.9059992  26.7994990  88.9009997
  73.4074358  26.1253294  89.1335999 123.3829992   7.2504990   8.7889997
 123.9469992   6.7044990   8.2419997 123.2349992   6.7294990   9.5779997
 123.4403037   7.1051798   8.8207212 118.3849992   3.3874990   5.2079997
 118.0669992   2.4844990   5.1719997 119.1659992   3.3894990   4.6549997
 118.4471079   3.2642240   5.1282908 122.0089992   5.6394990  11.2029997
 121.1739992   6.0934990  11.3139997 122.5329992   5.9154990  11.9549997
 121.9656072   5.7388960  11.3198118 122.5529992  11.8524990   2.8879997
 121.8079992  11.3444990   2.5659997 122.4189992  11.9014990   3.8339997
 122.4329334  11.7896144   2.9718892 129.7029992  10.9854990  11.6749997
 130.3449992  11.4414990  11.1309997 128.8729992  11.0984990  11.2119997
 129.6786536  11.0631813  11.5379579 126.4509992   4.6664990   1.0869997
 125.5119992   4.7774990   0.9359997 126.7479992   5.5224990   1.3939997
 126.3626136   4.7974977   1.1078568 124.0729992  12.0364990  14.1249997
 123.7269992  11.6544990  14.9319997 123.8729992  12.9694990  14.1959997
 123.9985987  12.1104013  14.2450443 127.1689992   6.5334990   2.7479997
 128.0609992   6.3954990   3.0669997 127.2259992   7.3244990   2.2109997
 127.2987380   6.6214777   2.7190981 117.6779992  11.1474990   8.6579997
 118.4229992  11.1444990   8.0559997 117.7559992  10.3234990   9.1389997
 117.7903365  11.0357395   8.6407412 124.6789992  13.3104990   1.9129997
 124.3839992  14.1374990   2.2949997 123.9759992  12.6914990   2.1099997
 124.5436379  13.3399182   1.9918636  57.7439992  24.4244990  92.5889997
  58.6639992  24.3024990  92.8249997  57.2949992  23.6744990  92.9779997
  57.8091561  24.3063720  92.6739015 114.6859992   9.6074990  13.9729997
 114.9089992   9.1894990  14.8039997 114.0839992   8.9954990  13.5499997
 114.6351513   9.4674617  14.0296722 121.7029992   9.1244990  16.1859997
 121.4069992   8.9594990  15.2899997 122.6339992   8.9044990  16.1749997
 121.7884401   9.0721891  16.0620189 126.3229992  14.4984990  14.0749997
 125.4219992  14.6814990  13.8079997 126.3569992  14.7574990  14.9959997
 126.2043861  14.5585245  14.1629517 132.0539992   6.7424990   2.4429997
 131.4999992   6.3464990   1.7699997 132.1549992   7.6534990   2.1649997
 131.9918589   6.8113904   2.3133839 132.0169992  12.5434990  15.2799997
 131.1659992  12.7814990  14.9119997 132.6079992  12.5264990  14.5259997
 131.9803831  12.5737623  15.1278448 130.3489992  15.5284990   2.9079997
 129.9769992  14.7034990   3.2169997 130.6269992  15.3454990   2.0099997
 130.3355807  15.3907031   2.8290063 127.5099992  10.3364990   9.9289997
 126.5819992  10.1054990   9.9019997 127.9609992   9.5594990   9.5989997
 127.4438165  10.1997785   9.8806772 120.0529992  14.6654990   6.0619997
 120.5799992  15.4384990   5.8619997 119.1729992  14.8894990   5.7599997
 120.0062121  14.8017344   5.9937460 115.8079992   9.5274990   0.6489997
 116.4239992  10.1544990   1.0289997 114.9459992   9.8434990   0.9209997
 115.7757678   9.6559423   0.7377192 121.4799992  12.3284990   5.6379997
 121.2389992  13.2534990   5.6799997 120.7399992  11.8694990   6.0349997
 121.3469463  12.3930969   5.6974279  75.7459992  19.9574990  94.4659997
  76.0959992  19.3034990  93.8599997  75.8929992  20.7944990  94.0259997
  75.8137192  19.9812545  94.3236712 121.9949992  16.4774990  11.9529997
 122.3579992  17.3314990  11.7199997 122.5269992  16.1854990  12.6939997
 122.1165141  16.5548907  12.0212079 120.1629992  17.3494990   5.1839997
 119.2139992  17.4554990   5.2349997 120.5149992  18.1704990   5.5279997
 120.0805647  17.4750029   5.2374882 125.5389992  12.5764990  11.6539997
 125.1129992  12.3484990  12.4799997 126.1199992  11.8374990  11.4719997
 125.5592088  12.4454393  11.7424454 127.7419992  13.5054990   0.7279997
 128.0949992  13.1254990   1.5319997 126.7929992  13.4114990   0.8149997
 127.6620956  13.4407867   0.8498005 128.1979992  17.1284990  14.1229997
 127.5959992  16.5724990  13.6279997 128.4789992  17.7954990  13.4969997
 128.1535757  17.1425755  13.9705657 132.2449992  17.9844990   0.9289997
 132.9889992  18.5704990   0.7889997 131.5509992  18.5534990   1.2619997
 132.2529809  18.1415830   0.9548572 116.3199992   4.3614990  13.5309997
 115.4269992   4.6994990  13.4629997 116.2209992   3.5054990  13.9489997
 116.1844752   4.2920986  13.5781644 128.6079992  12.1774990   2.9549997
 128.3309992  11.4494990   3.5109997 129.5349992  12.2964990   3.1599997
 128.6954419  12.0939436   3.0588264 115.9709992  16.1654990  11.9659997
 116.1879992  15.2334990  11.9349997 116.2179992  16.4404990  12.8489997
 116.0340948  16.0750976  12.0811268 120.7699992  14.1874990   1.6309997
 120.9169992  13.6674990   2.4209997 120.7669992  15.0944990   1.9379997
 120.7897102  14.2388964   1.7805907  73.4359992  21.9214990  80.9489997
  73.6179992  21.4724990  81.7739997  72.8359992  21.3374990  80.4849997
  73.3798187  21.7810563  80.9992721 117.2229992  11.4394990   2.1419997
 116.5369992  11.7924990   2.7089997 117.7459992  12.2024990   1.8949997
 117.1998402  11.5908912   2.1861783 125.0539992   4.1024990  12.4209997
 125.7529992   4.1764990  13.0709997 124.6739992   3.2374990  12.5749997
 125.0982662   3.9957050  12.5307412 125.8389992   3.7544990   3.5179997
 126.0589992   4.2254990   2.7139997 126.3969992   4.1484990   4.1879997
 125.9446044   3.8722946   3.4985207 123.5079992  15.8844990   2.3809997
 122.6909992  16.3814990   2.4329997 124.0369992  16.3604990   1.7399997
 123.4678125  16.0167000   2.3015289 123.0389992   5.4824990   4.3529997
 123.8509992   5.9864990   4.3989997 122.7939992   5.3374990   5.2669997
 123.1171091   5.5319366   4.4828552 123.5749992   6.4684990  13.5369997
 123.6939992   7.0424990  14.2939997 124.2299992   5.7804990  13.6519997
 123.6798684   6.4540205  13.6561656 123.9229992   2.5634990   5.2909997
 123.5759992   3.1804990   5.9349997 124.5809992   3.0644990   4.8089997
 123.9644430   2.7156860   5.3140046 120.8459992  16.9284990   2.3619997
 121.0069992  17.7284990   1.8619997 120.6489992  17.2354990   3.2469997
 120.8413906  17.0793690   2.4132316 119.5799992   3.6264990   1.9779997
 119.4969992   4.5144990   2.3249997 120.4699992   3.3614990   2.2099997
 119.6889331   3.7121177   2.0568067 129.7789992   4.3754990  14.3719997
 128.8629992   4.6374990  14.2849997 130.1149992   4.3724990  13.4759997
 129.6988499   4.4110174  14.2388748  58.9659992  22.7374990  85.4799997
  59.4109992  21.9454990  85.7819997  59.4319992  23.4534990  85.9109997
  59.0899059  22.7259485  85.5796061 128.3809992   8.1254990   8.4679997
 127.5839992   7.7104990   8.1399997 128.8259992   7.4354990   8.9589997
 128.3320367   7.9753372   8.4894897 117.8389992  14.0534990   1.0379997
 118.4309992  14.7534990   1.3149997 118.2979992  13.6204990   0.3189997
 117.9821652  14.0907686   0.9786515 116.1549992   6.7184990   0.1539997
 116.1099992   7.6574990   0.3329997 115.2669992   6.4824990  -0.1150003
 116.0288166   6.8151698   0.1421507 129.4679992  17.3814990  10.0899997
 129.3119992  18.0604990   9.4329997 130.3999992  17.4534990  10.2929997
 129.5727328  17.4841586  10.0275529 116.9629992   1.4994990   8.8269997
 116.7339992   1.5584990   7.8999997 116.5199992   0.7084990   9.1339997
 116.8717387   1.4006412   8.7415223 115.8929992  15.4404990   4.9879997
 115.0609992  15.9124990   5.0149997 116.4389992  15.9504990   4.3889997
 115.8528710  15.5740317   4.9107570 115.1819992  18.0524990  16.3179997
 115.7219992  17.8364990  17.0779997 114.6999992  17.2474990  16.1279997
 115.1908485  17.9140463  16.3964870 119.7789992  16.9724990  17.9379997
 120.5469992  16.5134990  18.2789997 119.7579992  16.7464990  17.0079997
 119.8812135  16.8791680  17.8589473 123.8709992  16.4804990  -0.6870003
 123.2269992  15.8494990  -0.3650003 124.6329992  15.9494990  -0.9180003
 123.8858708  16.3223171  -0.6741539 126.3559992  15.3524990  16.6669997
 126.0049992  14.4954990  16.9099997 127.0819992  15.4944990  17.2739997
 126.4061590  15.2545189  16.7822889  57.2699992  25.7364990  86.5489997
  57.7619992  25.5154990  85.7589997  57.6319992  26.5764990  86.8299997
  57.3863429  25.8198220  86.4787918 128.4749992  16.2974990  -0.4530003
 128.7579992  15.5024990  -0.0000003 129.2149992  16.5304990  -1.0140003
 128.6137295  16.2202349  -0.4668531 115.0889992  11.8634990  17.2719997
 115.2329992  10.9614990  16.9859997 114.3159992  12.1494990  16.7849997
 115.0042266  11.7786548  17.1670102 119.4299992  12.2064990  -0.5950003
 119.4939992  11.4124990  -0.0650003 120.0829992  12.0884990  -1.2850003
 119.5270483  12.0817496  -0.6156593 121.7439992  11.8324990  16.7049997
 121.4159992  12.1034990  15.8479997 121.8959992  10.8914990  16.6169997
 121.7196412  11.7424058  16.5757804 127.4789992  11.7484990  14.0879997
 128.2239992  12.3374990  13.9689997 126.7209992  12.3304990  14.1509997
 127.4785289  11.9077067  14.0802292 115.9209992   9.0634990  16.6919997
 116.3289992   8.2064990  16.5709997 115.6609992   9.0774990  17.6129997
 115.9417082   8.9480596  16.7999469 120.5789992  10.1794990   1.7109997
 120.1199992   9.6954990   2.3959997 120.8339992   9.5104990   1.0749997
 120.5505997  10.0228491   1.7188734 119.8679992   8.0724990  14.0669997
 119.2499992   8.7464990  14.3469997 120.2119992   8.3934990  13.2329997
 119.8298078   8.2082298  13.9926609 121.6499992   8.4224990  -0.0270003
 121.4699992   8.2674990  -0.9540003 122.5999992   8.5304990   0.0179997
 121.7537804   8.4158821  -0.1478034 124.8879992  10.5434990  17.3439997
 125.8409992  10.6274990  17.3169997 124.7279992   9.8314990  17.9629997
 124.9967320  10.4587292  17.4239933  75.2659992  22.0664990  92.8149997
  74.3489992  22.3374990  92.7789997  75.3889992  21.5314990  92.0309997
  75.1570828  22.0312711  92.7040767 131.0399992  10.7764990  -0.5810003
 130.7669992  10.3524990  -1.3940003 131.0799992  11.7084990  -0.7980003
 131.0080201  10.8443523  -0.7216452 120.2079992   5.4274990  15.1489997
 120.3579992   4.6984990  14.5469997 120.2099992   6.2044990  14.5899997
 120.2287967   5.4327720  14.9910523 120.6199992   3.7964990  12.6419997
 121.1559992   4.2484990  11.9899997 119.7679992   3.6884990  12.2189997
 120.5781795   3.8437444  12.4956211 122.2019992   9.2364990  12.8809997
 122.9529992   9.0804990  12.3079997 121.8629992  10.0884990  12.6059997
 122.2589587   9.3303149  12.7654060 126.6179992   7.0514990  17.9099997
 126.8099992   6.1204990  17.7979997 127.4749992   7.4764990  17.8989997
 126.7602176   6.9815090  17.8931757 127.9339992   9.8404990  15.9869997
 127.6529992  10.5494990  15.4089997 128.8769992   9.7674990  15.8359997
 128.0229272   9.9276704  15.8874976 118.6859992   6.6254990  17.0599997
 117.9189992   6.0924990  16.8499997 119.3649992   6.3154990  16.4609997
 118.6728292   6.5106360  16.9502693 121.4259992   1.2534990  13.0729997
 121.3279992   2.1994990  12.9679997 120.6829992   0.8804990  12.5969997
 121.3122123   1.3326811  12.9943204 122.6899992   5.5744990  16.6369997
 122.4539992   5.3554990  17.5379997 121.9069992   5.3674990  16.1269997
 122.5518382   5.5165340  16.6913991 125.4059992   4.7024990  15.7119997
 124.4579992   4.7344990  15.8439997 125.7179992   4.0764990  16.3659997
 125.3185293   4.6222934  15.8184130  75.3019992  21.9894990  77.4769997
  75.7149992  21.2684990  77.0009997  75.9839992  22.6584990  77.5349997
  75.4505712  21.9814304  77.4198247 127.0399992   3.3364990  17.7169997
 126.9429992   2.3844990  17.7119997 126.7179992   3.6044990  18.5779997
 126.9832468   3.2425896  17.8326192 116.8669992   4.5454990  16.7649997
 117.0779992   3.8394990  16.1549997 116.7549992   4.1084990  17.6089997
 116.8807668   4.3896619  16.7955445 121.6479992   0.5474990  15.7439997
 122.3589992  -0.0925010  15.7299997 121.5469992   0.8134990  14.8309997
 121.7316858   0.4958591  15.6185501 122.0009992   2.2294990  17.7979997
 121.8699992   1.7544990  16.9779997 121.4019992   2.9744990  17.7429997
 121.9020829   2.2650949  17.6781823 121.5479992  19.1124990   0.9739997
 122.4809992  19.2704990   1.1179997 121.2829992  19.7884990   0.3489997
 121.6399846  19.2254567   0.9092930 115.1159992  13.7494990   0.4569997
 116.0299992  13.8284990   0.7299997 115.1229992  13.0624990  -0.2090003
 115.2420624  13.6674074   0.4043045 113.7649992  19.1424990   5.5339997
 113.1179992  18.6804990   5.0019997 114.1199992  18.4704990   6.1169997
 113.7243741  18.9884785   5.5399157 114.6349992  17.2224990   7.3389997
 114.3009992  16.3424990   7.5109997 114.8569992  17.5684990   8.2039997
 114.6192565  17.1487410   7.4794263 132.1839992  18.0324990  10.3199997
 132.1619992  18.2174990  11.2579997 132.8739992  18.6004990   9.9789997
 132.2743383  18.1347104  10.4024580 131.7469992  17.5994990  13.2409997
 131.2599992  16.8634990  12.8699997 132.2959992  17.2054990  13.9189997
 131.7546101  17.4456267  13.2819034  57.5829992  21.9944990  80.6039997
  56.6579992  22.2024990  80.4739997  58.0369992  22.4784990  79.9139997
  57.5177401  22.0883895  80.4929433 130.1979992  13.3894990  17.8789997
 129.3319992  13.2844990  18.2739997 130.5739992  14.1474990  18.3259997
 130.1304940  13.4776141  17.9933958 131.4989992  11.6454990   3.3939997
 132.3489992  12.0664990   3.5209997 131.5039992  10.9054990   4.0009997
 131.6161143  11.6031106   3.4934732 131.8929992   9.6994990   5.2169997
 131.1669992   9.2194990   5.6149997 132.4739992   9.9044990   5.9489997
 131.8722504   9.6615592   5.3704199 131.6519992  12.4844990  10.1649997
 132.4859992  12.1064990   9.8839997 131.7639992  13.4274990  10.0459997
 131.7811917  12.5602954  10.1104844 130.1379992  15.3624990  12.4719997
 129.4909992  15.6874990  13.0969997 129.6209992  14.9214990  11.7979997
 129.9794112  15.3474133  12.4665272 132.1609992   9.6004990   1.6079997
 131.6399992   9.9564990   0.8899997 132.1279992  10.2754990   2.2869997
 132.0850955   9.7405023   1.6012634 130.5099992   6.8394990   0.1589997
 130.6069992   7.5064990  -0.5210003 130.3699992   6.0244990  -0.3220003
 130.5043407   6.8205670   0.0008312 129.6799992   8.2204990   5.7799997
 129.5299992   7.2754990   5.7599997 129.3259992   8.5014990   6.6239997
 129.6116351   8.1291656   5.8913202 114.7149992  10.2984990   9.7909997
 114.8989992  10.2164990   8.8549997 115.5639992  10.1744990  10.2139997
 114.8550132  10.2705066   9.7201460 130.5359992  10.1904990  15.4189997
 131.1189992   9.4554990  15.6109997 131.0999992  10.9624990  15.4659997
 130.6919781  10.1943156  15.4516146  72.3539992  36.9784990  82.5489997
  73.0059992  36.6304990  81.9409997  72.8649992  37.4664990  83.1949997
  72.5122872  36.9968248  82.5530964 132.0329992   8.0934990  16.1039997
 131.1689992   7.7144990  15.9379997 132.6369992   7.3544990  16.0289997
 131.9965394   7.9418378  16.0711778 129.3899992   5.8024990   4.2429997
 129.6699992   4.8954990   4.3669997 130.1489992   6.2364990   3.8539997
 129.5309258   5.7370935   4.2073691 130.0019992   6.3844990   9.6789997
 130.9349992   6.5964990   9.6439997 129.7669992   6.4854990  10.6009997
 130.0979517   6.4271844   9.7989113 130.0309992   7.1214990  12.4549997
 129.1879992   7.3894990  12.8199997 130.4739992   7.9434990  12.2439997
 129.9754035   7.2693351  12.4764770 114.3119992   5.5684990  15.9309997
 115.2319992   5.4464990  16.1679997 113.8629992   4.8184990  16.3209997
 114.3770500   5.4504576  16.0161016 132.3139992   1.1014990  17.8079997
 132.6639992   0.4474990  17.2019997 132.4609992   1.9384990  17.3679997
 132.3817192   1.1252545  17.6656712 130.0039992   3.0654990   4.2909997
 130.1859992   2.6164990   5.1159997 129.4039992   2.4814990   3.8269997
 129.9478187   2.9250563   4.3412721 115.5339992   3.8814990   8.8229997
 115.9789992   3.0894990   9.1249997 115.9999992   4.5974990   9.2529997
 115.6579718   3.8699546   8.9225247 113.8379992   6.8804990   9.8919997
 114.3299992   6.6594990   9.1009997 114.1999992   7.7204990  10.1729997
 113.9542923   6.9638480   9.8217389 131.8339992   3.2104990  16.1569997
 130.9169992   3.4814990  16.1209997 131.9569992   2.6754990  15.3729997
 131.7250828   3.1752711  16.0460767  57.5469992  20.7324990  88.9479997
  56.8819992  20.4864990  89.5909997  57.1039992  21.3544990  88.3709997
  57.3961168  20.7829225  88.9579830 131.8699992   3.1334990   0.8189997
 132.2829992   2.4124990   0.3439997 132.5519992   3.8024990   0.8769997
 132.0186060   3.1253741   0.7619233 114.1509992   3.1384990   3.9459997
 113.2259992   3.3464990   3.8169997 114.6049992   3.6224990   3.2559997
 114.0856298   3.2324311   3.8350433 128.9219992  18.1224990   5.8919997
 129.5739992  17.7744990   5.2839997 129.4329992  18.6104990   6.5379997
 129.0802872  18.1408248   5.8960964 114.1149992   1.8764990  12.2899997
 113.4499992   1.6304990  12.9329997 113.6719992   2.4984990  11.7129997
 113.9641168   1.9269225  12.2999830 116.3069992  15.0514990  16.4349997
 115.4859992  15.2264990  15.9739997 116.0549992  14.9784990  17.3549997
 116.1605594  15.0655728  16.4963593 119.2609992  16.0254990  12.6929997
 118.8359992  16.8354990  12.4109997 120.1649992  16.1114990  12.3909997
 119.3250706  16.1479557  12.6135836 123.5719992  17.4244990  15.6529997
 123.7569992  17.0914990  16.5309997 124.4189992  17.7344990  15.3309997
 123.7117291  17.4208214  15.7296140 125.9169992  18.7104990  14.8969997
 126.5939992  18.0774990  14.6569997 126.2389992  19.1114990  15.7039997
 126.0531618  18.6781147  14.9732802 130.8349992   1.3004990  13.9759997
 130.0219992   1.6254990  13.5889997 131.0679992   0.5394990  13.4429997
 130.7551347   1.2421891  13.8509824 116.6629992  19.2824990  12.7409997
 115.9419992  19.7224990  12.2899997 116.2969992  19.0314990  13.5889997
 116.5149632  19.3087235  12.7939649  59.7389992  33.9074990  93.0919997
  58.9179992  34.0824990  92.6319997  59.4869992  33.8344990  94.0129997
  59.5926173  33.9215806  93.1534954 119.1299992  18.8824990  11.7699997
 118.2649992  18.9544990  12.1739997 119.0749992  19.4294990  10.9869997
 119.0042289  18.9663242  11.7193749 123.8409992  18.7704990  10.9459997
 123.3839992  19.2994990  10.2919997 124.0029992  19.3734990  11.6709997
 123.8003919  18.9243990  10.9545740 126.1679992  17.6484990  11.8909997
 125.2639992  17.8134990  11.6249997 126.5969992  18.5014990  11.8249997
 126.1022017  17.7864184  11.8456495 128.7719992  19.2184990  12.1859997
 128.5909992  20.1344990  11.9749997 128.9489992  18.8074990  11.3389997
 128.7711377  19.2883365  12.0427178 116.0779992  17.9054990   9.6509997
 116.0589992  17.4794990  10.5079997 116.8819992  17.5864990   9.2419997
 116.1841393  17.8040297   9.7130155 118.2189992  16.6154990   8.3059997
 117.9999992  15.6984990   8.4759997 119.0429992  16.7554990   8.7719997
 118.3004702  16.5090523   8.3922510 120.7559992  17.0854990   9.1549997
 120.9689992  16.1974990   8.8679997 120.8209992  17.0504990  10.1089997
 120.7939149  16.9593338   9.2447351 124.2649992   2.7494990   8.2989997
 123.5899992   2.1194990   8.5549997 124.8289992   2.2654990   7.6959997
 124.2489363   2.5978886   8.2524810 129.4069992   0.8564990   8.4119997
 130.0109992   1.4044990   7.9099997 128.5379992   1.1754990   8.1709997
 129.3720419   0.9745628   8.3107741 131.1339992   1.9954990   6.7449997
 131.7459992   1.4814990   6.2179997 131.5169992   2.8724990   6.7679997
 131.2693867   2.0437613   6.6760888  62.6929992  34.8814990  89.3509997
  62.2679992  35.6914990  89.0679997  63.5969992  34.9674990  89.0489997
  62.7571002  35.0038728  89.2714798 116.5909992   1.3834990   6.1209997
 115.8139992   1.1484990   5.6139997 117.1219992   0.5864990   6.1299997
 116.5563735   1.2436462   6.0528090 115.4279992   1.1814990   1.9249997
 115.8669992   1.7924990   1.3329997 114.7939992   1.7194990   2.3989997
 115.4023859   1.3379076   1.9080287 121.1709992   1.3094990   5.9339997
 122.0449992   1.6984990   5.9049997 121.0349992   1.0944990   6.8569997
 121.2721953   1.3336654   6.0547599 126.7269992   1.3394990   7.5839997
 126.8039992   1.4354990   6.6339997 126.4519992   0.4324990   7.7119997
 126.7003233   1.2299093   7.4713665 128.0809992   1.3654990   3.2759997
 127.3779992   1.9804990   3.0659997 127.6359992   0.5284990   3.4069997
 127.9246550   1.3364679   3.2649819 115.3289992  17.1294990   2.8219997
 114.6439992  17.0914990   2.1549997 115.3319992  18.0414990   3.1099997
 115.2356806  17.2476669   2.7696961 117.2889992   3.0974990   0.3669997
 117.7799992   2.4674990  -0.1600003 117.9119992   3.3934990   1.0299997
 117.4405304   3.0512387   0.3844922 122.3149992   3.3904990   2.8239997
 122.4929992   2.7434990   3.5069997 122.2609992   4.2244990   3.2909997
 122.3320678   3.4146615   2.9806283 124.1929992  18.3384990   1.2199997
 125.0589992  18.7054990   1.0419997 123.9459992  17.8994990   0.4059997
 124.2781853  18.3294021   1.0855813 130.9019992  17.9014990   3.8989997
 130.7079992  17.1534990   3.3339997 130.8629992  18.6594990   3.3159997
 130.8701645  17.9015797   3.7428131  67.0039992  36.2804990  92.3099997
  67.1889992  35.9474990  93.1879997  67.8509992  36.5904990  91.9879997
  67.1437291  36.2768214  92.3866140 116.5489992   1.8974990  15.6389997
 116.1829992   1.1314990  16.0809997 117.4619992   1.9264990  15.9249997
 116.6223172   1.7965335  15.7381872 118.5219992   1.2474990  17.1739997
 119.4209992   0.9734990  16.9899997 118.1359992   0.5054990  17.6389997
 118.5927307   1.1097207  17.2117080 117.1469992  18.0494990  -0.1530003
 116.8789992  18.3354990   0.7209997 117.9179992  17.5034990  -0.0000003
 117.2145926  18.0147790  -0.0128812 126.9429992   0.5804990  17.3569997
 127.0199992   0.1544990  18.2099997 127.8369992   0.5934990  17.0139997
 127.0743263   0.5239345  17.4274366 130.1199992  16.6524990  16.0489997
 129.3379992  16.4664990  15.5289997 130.0479992  17.5824990  16.2659997
 130.0032975  16.7526973  16.0071822 135.8269992   9.4084990  11.0919997
 135.8679992   8.7834990  11.8149997 136.5299992  10.0324990  11.2739997
 135.9276223   9.4072318  11.2156164 136.7509992  13.8584990   9.6269997
 136.3809992  13.0564990   9.2569997 137.6919992  13.6904990   9.6729997
 136.8275984  13.7259649   9.5825586 133.3609992   7.5184990   5.0189997
 132.9129992   8.3644990   5.0009997 132.7999992   6.9394990   4.5039997
 133.2238546   7.5559004   4.9468874 134.0709992   9.6804990   7.1449997
 134.2849992   8.9104990   7.6719997 134.8089992   9.7704990   6.5419997
 134.2000073   9.5873546   7.1355786 138.1439992   4.7224990   7.5049997
 138.1869992   5.5824990   7.0859997 137.6859992   4.1694990   6.8709997
 138.0880163   4.7654174   7.3620604  69.3489992  37.5664990  91.5539997
  70.0259992  36.9334990  91.3139997  69.6709992  37.9674990  92.3619997
  69.4851280  37.5340638  91.6303190 134.7639992   7.1194990   8.2669997
 135.4179992   6.5694990   8.6989997 134.7879992   6.8454990   7.3499997
 134.8567199   7.0072179   8.2021650 136.9539992   3.6404990  11.5789997
 136.7349992   4.1704990  10.8119997 136.2859992   3.8664990  12.2259997
 136.8336975   3.7435979  11.5615123 139.5229992  11.3154990  11.8659997
 138.7829992  11.9144990  11.9699997 140.2369992  11.8694990  11.5499997
 139.5183146  11.4722611  11.8375150 136.5479992   5.5324990   9.5309997
 137.1609992   6.1654990   9.9039997 137.0599992   5.0604990   8.8749997
 136.7011933   5.5553380   9.4933477 137.9299992  13.2804990  12.6529997
 137.9249992  14.1594990  12.2749997 137.0769992  13.1964990  13.0779997
 137.8139199  13.3895901  12.6586942 134.0519992  12.9514990   3.4349997
 133.7799992  13.1804990   2.5459997 134.0969992  13.7884990   3.8959997
 134.0208360  13.0961034   3.3756186 138.2979992  10.6234990   6.3659997
 137.9679992  10.2524990   5.5479997 138.8859992   9.9524990   6.7129997
 138.3323182  10.4820648   6.3009898 138.6649992   9.3914990   9.9989997
 139.2299992   9.5134990   9.2369997 138.9829992  10.0294990  10.6379997
 138.7853619   9.4944388   9.9810019 139.5449992  13.7914990  14.7169997
 139.2329992  14.5734990  15.1719997 138.8949992  13.6384990  14.0309997
 139.4144858  13.8777882  14.6865344 136.4649992   9.9894990  13.9449997
 136.5349992  10.6404990  14.6439997 135.5739992  10.0924990  13.6099997
 136.3541690  10.0924261  13.9953026  74.2669992  20.1564990  90.6339997
  73.4539992  20.4814990  90.2459997  74.4999992  19.3954990  90.1009997
  74.1872566  20.0981570  90.5089196 137.7839992  15.8624990  15.4799997
 137.7919992  15.7264990  14.5329997 136.8679992  15.7454990  15.7319997
 137.6612528  15.8280475  15.3843226 137.2879992   9.6924990   3.9549997
 136.9959992  10.4604990   3.4639997 136.6139992   9.0334990   3.7919997
 137.1568843   9.7084537   3.8657695 133.3809992  12.0554990  12.7699997
 132.8799992  12.0274990  11.9549997 133.3869992  11.1504990  13.0799997
 133.3131690  11.9292234  12.7002770 133.1319992  14.8364990   9.6539997
 134.0779992  14.6914990   9.6349997 133.0189992  15.6204990  10.1909997
 133.2463578  14.9226708   9.7240300 136.3759992  17.6374990   5.7999997
 136.5279992  17.2894990   6.6779997 135.5249992  17.2804990   5.5439997
 136.2818344  17.5415891   5.8856851 135.6299992  13.3794990  13.8129997
 135.8459992  13.0174990  14.6729997 134.7749992  13.0044990  13.6039997
 135.5439082  13.2793377  13.9022396 138.2489992   1.8494990   9.8089997
 137.3869992   1.7624990   9.4009997 138.2269992   2.7054990  10.2369997
 138.1280557   1.9533078   9.8110202 138.3399992   6.8144990  10.9039997
 137.6979992   6.7744990  11.6129997 138.3769992   7.7414990  10.6659997
 138.2571659   6.9342540  10.9688463 138.3369992   7.0354990   5.8159997
 137.4439992   6.6954990   5.7569997 138.7879992   6.6584990   5.0599997
 138.2757185   6.9380220   5.7057698 136.0899992   7.1354990  12.7709997
 136.0519992   7.5354990  13.6399997 135.5989992   6.3184990  12.8609997
 136.0184374   7.0798228  12.9020980  60.0949992  38.1384990  89.3979997
  59.3739992  38.5784990  88.9469997  59.7289992  37.8874990  90.2469997
  59.9469785  38.1647691  89.4509849 139.4559992   4.5094990  -0.4300003
 139.0249992   4.0644990   0.2989997 138.7379992   4.8804990  -0.9430003
 139.2999176   4.4987063  -0.3995087 132.6979992   4.2514990   6.6219997
 133.3289992   4.2224990   7.3409997 133.1479992   3.8264990   5.8909997
 132.8451082   4.1901269   6.6216307 133.9719992   4.9974990   2.0459997
 134.4469992   5.5884990   1.4609997 133.2549992   5.5274990   2.3929997
 133.9400406   5.1501011   2.0128495 135.7469992   6.0924990   5.7289997
 134.8579992   6.1914990   5.3889997 136.0429992   5.2504990   5.3829997
 135.6654001   5.9922473   5.6357318 139.3999992   6.0924990   3.3859997
 140.3319992   6.2214990   3.5639997 139.1849992   6.7614990   2.7359997
 139.4984472   6.2005817   3.3224873 138.0739992   7.2864990   0.9519997
 137.5319992   6.9074990   0.2609997 138.9079992   7.4814990   0.5239997
 138.1124390   7.2609091   0.7994374 136.2089992  11.8434990  16.0509997
 136.9409992  12.0984990  16.6129997 135.4289992  12.0484990  16.5669997
 136.2036526  11.9060438  16.1975168 137.2409992   3.3874990   5.2079997
 136.9229992   2.4844990   5.1719997 138.0219992   3.3894990   4.6549997
 137.3031079   3.2642240   5.1282908 136.5339992  11.1474990   8.6579997
 137.2789992  11.1444990   8.0559997 136.6119992  10.3234990   9.1389997
 136.6463365  11.0357395   8.6407412 133.5419992   9.6074990  13.9729997
 133.7649992   9.1894990  14.8039997 132.9399992   8.9954990  13.5499997
 133.4911513   9.4674617  14.0296722  62.5619992  37.7384990  88.4279997
  61.6969992  37.8104990  88.8319997  62.5069992  38.2854990  87.6439997
  62.4362066  37.8222678  88.3773371 138.9089992  14.6654990   6.0619997
 139.4359992  15.4384990   5.8619997 138.0289992  14.8894990   5.7599997
 138.8622121  14.8017344   5.9937460 134.6639992   9.5274990   0.6489997
 135.2799992  10.1544990   1.0289997 133.8019992   9.8434990   0.9209997
 134.6317678   9.6559423   0.7377192 139.0189992  17.3494990   5.1839997
 138.0699992  17.4554990   5.2349997 139.3709992  18.1704990   5.5279997
 138.9365647  17.4750029   5.2374882 135.1759992   4.3614990  13.5309997
 134.2829992   4.6994990  13.4629997 135.0769992   3.5054990  13.9489997
 135.0404752   4.2920986  13.5781644 134.8269992  16.1654990  11.9659997
 135.0439992  15.2334990  11.9349997 135.0739992  16.4404990  12.8489997
 134.8900948  16.0750976  12.0811268 136.0789992  11.4394990   2.1419997
 135.3929992  11.7924990   2.7089997 136.6019992  12.2024990   1.8949997
 136.0558402  11.5908912   2.1861783 138.4359992   3.6264990   1.9779997
 138.3529992   4.5144990   2.3249997 139.3259992   3.3614990   2.2099997
 138.5449331   3.7121177   2.0568067 136.6949992  14.0534990   1.0379997
 137.2869992  14.7534990   1.3149997 137.1539992  13.6204990   0.3189997
 136.8381652  14.0907686   0.9786515 135.0109992   6.7184990   0.1539997
 134.9659992   7.6574990   0.3329997 134.1229992   6.4824990  -0.1150003
 134.8848166   6.8151698   0.1421507 135.8189992   1.4994990   8.8269997
 135.5899992   1.5584990   7.8999997 135.3759992   0.7084990   9.1339997
 135.7277387   1.4006412   8.7415223  67.2729992  37.6264990  87.6039997
  66.8159992  38.1554990  86.9499997  67.4349992  38.2294990  88.3289997
  67.2323919  37.7803990  87.6125740 134.7489992  15.4404990   4.9879997
 133.9169992  15.9124990   5.0149997 135.2949992  15.9504990   4.3889997
 134.7088710  15.5740317   4.9107570 134.0379992  18.0524990  16.3179997
 134.5779992  17.8364990  17.0779997 133.5559992  17.2474990  16.1279997
 134.0468485  17.9140463  16.3964870 138.6349992  16.9724990  17.9379997
 139.4029992  16.5134990  18.2789997 138.6139992  16.7464990  17.0079997
 138.7372135  16.8791680  17.8589473 133.9449992  11.8634990  17.2719997
 134.0889992  10.9614990  16.9859997 133.1719992  12.1494990  16.7849997
 133.8602266  11.7786548  17.1670102 138.2859992  12.2064990  -0.5950003
 138.3499992  11.4124990  -0.0650003 138.9389992  12.0884990  -1.2850003
 138.3830482  12.0817496  -0.6156593 134.7769992   9.0634990  16.6919997
 135.1849992   8.2064990  16.5709997 134.5169992   9.0774990  17.6129997
 134.7977082   8.9480596  16.7999469 139.4349992  10.1794990   1.7109997
 138.9759992   9.6954990   2.3959997 139.6899992   9.5104990   1.0749997
 139.4065997  10.0228491   1.7188734 138.7239992   8.0724990  14.0669997
 138.1059992   8.7464990  14.3469997 139.0679992   8.3934990  13.2329997
 138.6858078   8.2082298  13.9926609 139.0639992   5.4274990  15.1489997
 139.2139992   4.6984990  14.5469997 139.0659992   6.2044990  14.5899997
 139.0847967   5.4327720  14.9910523 139.4759992   3.7964990  12.6419997
 140.0119992   4.2484990  11.9899997 138.6239992   3.6884990  12.2189997
 139.4341795   3.8437444  12.4956211  69.5999992  36.5044990  88.5489997
  68.6959992  36.6694990  88.2829997  70.0289992  37.3574990  88.4829997
  69.5342017  36.6424184  88.5036495 137.5419992   6.6254990  17.0599997
 136.7749992   6.0924990  16.8499997 138.2209992   6.3154990  16.4609997
 137.5288292   6.5106360  16.9502693 135.7229992   4.5454990  16.7649997
 135.9339992   3.8394990  16.1549997 135.6109992   4.1084990  17.6089997
 135.7367668   4.3896619  16.7955445 133.9719992  13.7494990   0.4569997
 134.8859992  13.8284990   0.7299997 133.9789992  13.0624990  -0.2090003
 134.0980624  13.6674074   0.4043045 132.6209992  19.1424990   5.5339997
 131.9739992  18.6804990   5.0019997 132.9759992  18.4704990   6.1169997
 132.5803741  18.9884785   5.5399157 133.4909992  17.2224990   7.3389997
 133.1569992  16.3424990   7.5109997 133.7129992  17.5684990   8.2039997
 133.4752565  17.1487410   7.4794263 133.5709992  10.2984990   9.7909997
 133.7549992  10.2164990   8.8549997 134.4199992  10.1744990  10.2139997
 133.7110132  10.2705066   9.7201460 133.1679992   5.5684990  15.9309997
 134.0879992   5.4464990  16.1679997 132.7189992   4.8184990  16.3209997
 133.2330500   5.4504576  16.0161016 134.3899992   3.8814990   8.8229997
 134.8349992   3.0894990   9.1249997 134.8559992   4.5974990   9.2529997
 134.5139718   3.8699546   8.9225247 132.6939992   6.8804990   9.8919997
 133.1859992   6.6594990   9.1009997 133.0559992   7.7204990  10.1729997
 132.8102923   6.9638480   9.8217389 133.0069992   3.1384990   3.9459997
 132.0819992   3.3464990   3.8169997 133.4609992   3.6224990   3.2559997
 132.9416298   3.2324311   3.8350433  72.2039992  38.0744990  88.8439997
  72.0229992  38.9904990  88.6329997  72.3809992  37.6634990  87.9969997
  72.2031377  38.1443365  88.7007178 132.9709992   1.8764990  12.2899997
 132.3059992   1.6304990  12.9329997 132.5279992   2.4984990  11.7129997
 132.8201168   1.9269225  12.2999830 135.1629992  15.0514990  16.4349997
 134.3419992  15.2264990  15.9739997 134.9109992  14.9784990  17.3549997
 135.0165594  15.0655728  16.4963593 138.1169992  16.0254990  12.6929997
 137.6919992  16.8354990  12.4109997 139.0209992  16.1114990  12.3909997
 138.1810706  16.1479557  12.6135836 135.5189992  19.2824990  12.7409997
 134.7979992  19.7224990  12.2899997 135.1529992  19.0314990  13.5889997
 135.3709632  19.3087235  12.7939649 137.9859992  18.8824990  11.7699997
 137.1209992  18.9544990  12.1739997 137.9309992  19.4294990  10.9869997
 137.8602289  18.9663242  11.7193749 134.9339992  17.9054990   9.6509997
 134.9149992  17.4794990  10.5079997 135.7379992  17.5864990   9.2419997
 135.0401393  17.8040297   9.7130155 137.0749992  16.6154990   8.3059997
 136.8559992  15.6984990   8.4759997 137.8989992  16.7554990   8.7719997
 137.1564702  16.5090523   8.3922510 135.4469992   1.3834990   6.1209997
 134.6699992   1.1484990   5.6139997 135.9779992   0.5864990   6.1299997
 135.4123735   1.2436462   6.0528090 134.2839992   1.1814990   1.9249997
 134.7229992   1.7924990   1.3329997 133.6499992   1.7194990   2.3989997
 134.2583859   1.3379076   1.9080287 134.1849992  17.1294990   2.8219997
 133.4999992  17.0914990   2.1549997 134.1879992  18.0414990   3.1099997
 134.0916806  17.2476669   2.7696961  59.5099992  36.7614990  86.3089997
  59.4909992  36.3354990  87.1659997  60.3139992  36.4424990  85.8999997
  59.6161393  36.6600297  86.3710155 136.1449992   3.0974990   0.3669997
 136.6359992   2.4674990  -0.1600003 136.7679992   3.3934990   1.0299997
 136.2965304   3.0512387   0.3844922 135.4049992   1.8974990  15.6389997
 135.0389992   1.1314990  16.0809997 136.3179992   1.9264990  15.9249997
 135.4783172   1.7965335  15.7381872 137.3779992   1.2474990  17.1739997
 138.2769992   0.9734990  16.9899997 136.9919992   0.5054990  17.6389997
 137.4487307   1.1097207  17.2117080 136.0029992  18.0494990  -0.1530003
 135.7349992  18.3354990   0.7209997 136.7739992  17.5034990  -0.0000003
 136.0705926  18.0147790  -0.0128812  12.5339992  29.3954990   6.0799997
  12.6229992  30.3394990   5.9469997  11.8949992  29.1204990   5.4219997
  12.4598378  29.4873846   5.9729258  11.4669992  28.6504990   9.4989997
  11.4279992  28.0044990  10.2039997  11.1439992  28.1834990   8.7269997
  11.4180469  28.4990005   9.4912803   3.8349992  28.2644990  11.0919997
   3.8759992  27.6394990  11.8149997   4.5379992  28.8884990  11.2739997
   3.9356223  28.2632318  11.2156164  15.1729992  31.5894990   7.7999997
  14.7319992  30.8694990   8.2509997  15.1599992  32.3104990   8.4299997
  15.1109215  31.5884303   7.9468088   4.7589992  32.7144990   9.6269997
   4.3889992  31.9124990   9.2569997   5.6999992  32.5464990   9.6729997
   4.8355984  32.5819649   9.5825586   1.3689992  26.3744990   5.0189997
   0.9209992  27.2204990   5.0009997   0.8079992  25.7954990   4.5039997
   1.2318546  26.4119004   4.9468874  61.6509992  35.4714990  84.9639997
  61.4319992  34.5544990  85.1329997  62.4749992  35.6114990  85.4299997
  61.7324637  35.3649586  85.0501414   2.0789992  28.5364990   7.1449997
   2.2929992  27.7664990   7.6719997   2.8169992  28.6264990   6.5419997
   2.2080073  28.4433546   7.1355786  12.2839992  36.6934990   8.0119997
  12.9039992  36.0174990   7.7389997  12.0759992  36.4754990   8.9209997
  12.3407679  36.5715032   8.0974518   9.8559992  31.0824990   9.9049997
  10.1599992  30.3964990   9.3099997  10.5779992  31.2014990  10.5229997
   9.9951240  31.0047325   9.9070941  18.5189992  22.6844990  10.7649997
  18.5679992  23.2944990  11.5009997  18.9449992  23.1454990  10.0419997
  18.5832851  22.8303266  10.7680532  12.9969992  25.4764990  10.2319997
  13.1389992  24.5304990  10.2519997  12.8909992  25.6834990   9.3039997
  13.0021051  25.3749706  10.1092249   6.1519992  23.5784990   7.5049997
   6.1949992  24.4384990   7.0859997   5.6939992  23.0254990   6.8709997
   6.0960163  23.6214174   7.3620604  13.8739992  23.7094990   5.9049997
  14.5199992  23.3804990   6.5299997  14.3839992  24.2264990   5.2829997
  14.0314289  23.7344333   5.9063681   2.7719992  25.9754990   8.2669997
   3.4259992  25.4254990   8.6989997   2.7959992  25.7014990   7.3499997
   2.8647199  25.8632178   8.2021650   7.9279992  27.5254990   7.4819997
   8.5439992  26.9984990   7.9909997   7.3419992  26.8854990   7.0779997
   7.9330652  27.3668919   7.4970277  18.9109992  24.1624990  13.0009997
  18.2219992  24.8204990  12.9059997  18.9259992  23.9644990  13.9379997
  18.8187756  24.2257614  13.1145795  64.1879992  35.9414990  85.8119997
  64.4009992  35.0534990  85.5249997  64.2529992  35.9064990  86.7669997
  64.2259075  35.8153318  85.9017355   4.9619992  22.4964990  11.5789997
   4.7429992  23.0264990  10.8119997   4.2939992  22.7224990  12.2259997
   4.8416975  22.5995979  11.5615123  12.3309992  31.9964990   5.1229997
  12.0349992  31.6734990   4.2709997  12.0069992  32.8964990   5.1639997
  12.2467458  32.0739678   5.0120598   7.5309992  30.1714990  11.8659997
   6.7909992  30.7704990  11.9699997   8.2449992  30.7254990  11.5499997
   7.5263146  30.3282611  11.8375150  15.6379992  23.0004990   7.8859997
  15.4229992  22.2344990   8.4189997  16.2939992  23.4724990   8.3989997
  15.6972673  22.9595739   8.0281972   4.5559992  24.3884990   9.5309997
   5.1689992  25.0214990   9.9039997   5.0679992  23.9164990   8.8749997
   4.7091933  24.4113380   9.4933477   5.9379992  32.1364990  12.6529997
   5.9329992  33.0154990  12.2749997   5.0849992  32.0524990  13.0779997
   5.8219199  32.2455901  12.6586942   2.0599992  31.8074990   3.4349997
   1.7879992  32.0364990   2.5459997   2.1049992  32.6444990   3.8959997
   2.0288360  31.9521034   3.3756186  15.6849992  33.4284990  10.1479997
  14.7429992  33.4874990  10.3099997  15.9609992  34.3344990  10.0109997
  15.5935865  33.5590299  10.1516174  15.9849992  21.7154990  11.5649997
  15.2489992  22.3254990  11.5279997  16.6689992  22.1304990  11.0389997
  15.9765367  21.8552562  11.4888156   8.9879992  19.8014990   9.0309997
   8.8709992  18.8534990   8.9769997   8.1329992  20.1344990   9.3039997
   8.8563691  19.7165842   9.0605072  67.6969992  21.6054990  84.9569997
  67.0219992  20.9754990  85.2119997  68.2609992  21.1214990  84.3539997
  67.6809558  21.4539283  84.9103451  13.9369992  35.2094990   6.7729997
  14.3619992  34.5024990   6.2879997  14.2539992  36.0114990   6.3559997
  14.0380266  35.2210201   6.6502461  15.0959992  33.1104990   5.2819997
  14.8389992  32.4204990   4.6699997  15.1669992  32.6674990   6.1269997
  15.0704322  32.9561568   5.3125372  16.7819992  31.6774990  13.7589997
  16.9219992  31.0854990  13.0199997  16.9499992  32.5504990  13.4029997
  16.8238734  31.7144041  13.6096937  11.2549992  28.6394990   3.5319997
  10.5429992  29.1744990   3.1799997  11.9459992  28.6944990   2.8719997
  11.2509704  28.7201663   3.3945797  11.3089992  27.0964990   0.5699997
  12.0099992  27.1194990   1.2219997  11.6109992  26.4684990  -0.0860003
  11.4458202  27.0147223   0.5705591  18.6239992  28.0174990  11.8249997
  17.9719992  28.7114990  11.9139997  19.0889992  28.2274990  11.0149997
  18.5975357  28.1409544  11.7277056  14.6609992  28.8484990   4.4829997
  13.9289992  29.0774990   5.0559997  15.1079992  28.1354990   4.9379997
  14.6212753  28.7833984   4.6229698  14.5579992  27.0234990  13.5509997
  14.6379992  27.7864990  14.1229997  13.9569992  27.3024990  12.8609997
  14.4876547  27.1657468  13.5360029   6.3059992  29.4794990   6.3659997
   5.9759992  29.1084990   5.5479997   6.8939992  28.8084990   6.7129997
   6.3403182  29.3380648   6.3009898   7.6729992  32.9074990   9.0469997
   7.5779992  32.3284990   8.2909997   8.4019992  32.5364990   9.5429997
   7.7586011  32.7780572   9.0106011  72.8389992  19.7124990  85.0689997
  73.4429992  20.2604990  84.5679997  71.9699992  20.0314990  84.8289997
  72.8041126  19.8307070  84.9679180   6.6729992  28.2474990   9.9989997
   7.2379992  28.3694990   9.2369997   6.9909992  28.8854990  10.6379997
   6.7933619  28.3504388   9.9810019  12.9819992  33.7514990  10.7329997
  12.7409992  34.4134990  11.3809997  12.7839992  32.9164990  11.1579997
  12.9222662  33.7292704  10.8791008   7.5529992  32.6474990  14.7169997
   7.2409992  33.4294990  15.1719997   6.9029992  32.4944990  14.0309997
   7.4224858  32.7337882  14.6865344  13.5319992  28.0114990   2.1689997
  14.1109992  28.1614990   2.9149997  13.9459992  28.4814990   1.4449997
  13.6673358  28.0955966   2.1733935   4.4729992  28.8454990  13.9449997
   4.5429992  29.4964990  14.6439997   3.5819992  28.9484990  13.6099997
   4.3621690  28.9484261  13.9953026  11.2579992  34.7474990   5.6039997
  11.7319992  35.0434990   6.3809997  10.6949992  35.4864990   5.3709997
  11.2467890  34.8878047   5.6788084   5.7919992  34.7184990  15.4799997
   5.7999992  34.5824990  14.5329997   4.8759992  34.6014990  15.7319997
   5.6692528  34.6840475  15.3843226  17.2299992  19.7614990   1.9809997
  16.3299992  19.8994990   2.2769997  17.4819992  20.5924990   1.5799997
  17.1407727  19.8928705   1.9672935   5.2959992  28.5484990   3.9549997
   5.0039992  29.3164990   3.4639997   4.6219992  27.8894990   3.7919997
   5.1648843  28.5644537   3.8657695  18.4199992  34.1274990   0.3579997
  18.4929992  35.0664990   0.5279997  19.3249992  33.8224990   0.3019997
  18.5524170  34.2148294   0.3737045  74.5659992  20.8514990  83.4029997
  75.1779992  20.3374990  82.8759997  74.9489992  21.7284990  83.4259997
  74.7013867  20.8997613  83.3340888   1.3889992  30.9114990  12.7699997
   0.8879992  30.8834990  11.9549997   1.3949992  30.0064990  13.0799997
   1.3211690  30.7852234  12.7002770   1.1399992  33.6924990   9.6539997
   2.0859992  33.5474990   9.6349997   1.0269992  34.4764990  10.1909997
   1.2543578  33.7786708   9.7240300  19.3369992  34.3584990  15.3369997
  19.2879992  33.4024990  15.2989997  18.5109992  34.6254990  15.7379997
  19.2185096  34.2638416  15.3860698  10.3159992  33.9324990  14.2129997
  10.4029992  34.7584990  14.6879997   9.4519992  33.6024990  14.4619997
  10.2111944  34.0009871  14.3116558  10.7299992  37.7044990   4.0189997
  10.6549992  37.5834990   3.0719997  10.7629992  38.6534990   4.1369997
  10.7242083  37.8162639   3.9054973   4.3839992  36.4934990   5.7999997
   4.5359992  36.1454990   6.6779997   3.5329992  36.1364990   5.5439997
   4.2898344  36.3975891   5.8856851  13.8319992  36.8584990   1.0209997
  14.2069992  36.1144990   0.5499997  13.8359992  36.5884990   1.9389997
  13.8838969  36.7200920   1.0806475  13.5009992  36.7844990   3.7699997
  12.5659992  36.8844990   3.9489997  13.7809992  36.0744990   4.3489997
  13.4109471  36.7022944   3.8726678  16.4889992  25.8514990  15.8169997
  16.0819992  26.3314990  15.0959997  16.5299992  24.9454990  15.5089997
  16.4388403  25.7947989  15.6767253   3.6379992  32.2354990  13.8129997
   3.8539992  31.8734990  14.6729997   2.7829992  31.8604990  13.6039997
   3.5519082  32.1353377  13.9022396  60.0229992  20.2394990  82.7789997
  59.2459992  20.0044990  82.2709997  60.5539992  19.4424990  82.7879997
  59.9884443  20.0996721  82.7107200   6.2569992  20.7054990   9.8089997
   5.3949992  20.6184990   9.4009997   6.2349992  21.5614990  10.2369997
   6.1360557  20.8093078   9.8110202  10.9199992  20.4274990  13.1839997
  11.3399992  20.0124990  13.9369997   9.9869992  20.2484990  13.3009997
  10.8513736  20.3464921  13.3028950  14.2459992  24.1824990  14.0369997
  13.7319992  24.0574990  14.8349997  14.0909992  25.0954990  13.7929997
  14.1547802  24.2887433  14.1131504  15.0089992  29.0434990  -0.2020003
  15.0509992  28.8214990  -1.1320003  15.8579992  29.4424990  -0.0120003
  15.1295253  29.0670510  -0.3036196  10.5819992  22.9194990   0.4689997
  10.3279992  22.9384990   1.3909997  10.3249992  22.0484990   0.1669997
  10.5124508  22.8043292   0.5544786   6.3479992  25.6704990  10.9039997
   5.7059992  25.6304990  11.6129997   6.3849992  26.5974990  10.6659997
   6.2651659  25.7902540  10.9688463   6.3449992  25.8914990   5.8159997
   5.4519992  25.5514990   5.7569997   6.7959992  25.5144990   5.0599997
   6.2837185  25.7940220   5.7057698  11.8809992  26.3074990   4.6329997
  11.4719992  27.1224990   4.3409997  12.6009992  26.1674990   4.0189997
  11.9224439  26.4000383   4.5100098  10.9829992  26.4834990  16.1209997
  10.4199992  25.7784990  16.4419997  11.8089992  26.3624990  16.5889997
  11.0176674  26.3707176  16.2281734  12.8849992  25.7534990   7.4469997
  12.6899992  26.3594990   6.7319997  13.0669992  24.9204990   7.0129997
  12.8829195  25.7237936   7.2904079  64.6029992  20.1654990  82.5919997
  65.4769992  20.5544990  82.5619997  64.4669992  19.9504990  83.5149997
  64.7043125  20.1897120  82.7126523   4.0979992  25.9914990  12.7709997
   4.0599992  26.3914990  13.6399997   3.6069992  25.1744990  12.8609997
   4.0264374  25.9358228  12.9020980   7.4639992  23.3654990  -0.4300003
   7.0329992  22.9204990   0.2989997   6.7459992  23.7364990  -0.9430003
   7.3079176  23.3547063  -0.3995087   0.7059992  23.1074990   6.6219997
   1.3369992  23.0784990   7.3409997   1.1559992  22.6824990   5.8909997
   0.8531082  23.0461269   6.6216307   1.9799992  23.8534990   2.0459997
   2.4549992  24.4444990   1.4609997   1.2629992  24.3834990   2.3929997
   1.9480406  24.0061011   2.0128495  12.1489992  27.3914990  12.1179997
  12.4729992  26.7604990  11.4749997  11.7089992  26.8574990  12.7789997
  12.1338707  27.2328261  12.1193195   8.9269992  23.3194990   6.9019997
   8.0159992  23.3764990   7.1909997   9.4319992  23.2594990   7.7129997
   8.8706873  23.3191838   7.0511190   3.7549992  24.9484990   5.7289997
   2.8659992  25.0474990   5.3889997   4.0509992  24.1064990   5.3829997
   3.6734001  24.8482473   5.6357318   7.4079992  24.9484990   3.3859997
   8.3399992  25.0774990   3.5639997   7.1929992  25.6174990   2.7359997
   7.5064472  25.0565817   3.3224873  13.3319992  22.5544990  10.1659997
  12.6549992  22.6854990  10.8299997  12.8459992  22.3994990   9.3559997
  13.1737265  22.5514665  10.1473380   6.0819992  26.1424990   0.9519997
   5.5399992  25.7634990   0.2609997   6.9159992  26.3374990   0.5239997
   6.1204390  26.1169091   0.7994374  70.1589992  20.1954990  84.2409997
  70.2359992  20.2914990  83.2919997  69.8839992  19.2884990  84.3699997
  70.1323407  20.0859188  84.1283532  16.6189992  38.2254990  16.4429997
  16.8189992  38.6494990  15.6089997  17.2749992  38.5694990  17.0499997
  16.7349937  38.3299993  16.4108645   4.2169992  30.6994990  16.0509997
   4.9489992  30.9544990  16.6129997   3.4369992  30.9044990  16.5669997
   4.2116526  30.7620438  16.1975168  10.2469992  26.1064990   8.7889997
  10.8109992  25.5604990   8.2419997  10.0989992  25.5854990   9.5779997
  10.3043037  25.9611798   8.8207212   5.2489992  22.2434990   5.2079997
   4.9309992  21.3404990   5.1719997   6.0299992  22.2454990   4.6549997
   5.3111079  22.1202240   5.1282908   8.8729992  24.4954990  11.2029997
   8.0379992  24.9494990  11.3139997   9.3969992  24.7714990  11.9549997
   8.8296072  24.5948960  11.3198118   9.4169992  30.7084990   2.8879997
   8.6719992  30.2004990   2.5659997   9.2829992  30.7574990   3.8339997
   9.2969334  30.6456144   2.9718892  16.5669992  29.8414990  11.6749997
  17.2089992  30.2974990  11.1309997  15.7369992  29.9544990  11.2119997
  16.5426536  29.9191813  11.5379579  13.3149992  23.5224990   1.0869997
  12.3759992  23.6334990   0.9359997  13.6119992  24.3784990   1.3939997
  13.2266136  23.6534977   1.1078568  10.9369992  30.8924990  14.1249997
  10.5909992  30.5104990  14.9319997  10.7369992  31.8254990  14.1959997
  10.8625987  30.9664013  14.2450443  14.0329992  25.3894990   2.7479997
  14.9249992  25.2514990   3.0669997  14.0899992  26.1804990   2.2109997
  14.1627380  25.4774777   2.7190981  71.5129992  20.2214990  79.9339997
  70.8099992  20.8364990  79.7239997  71.0679992  19.3844990  80.0649997
  71.3566550  20.1924679  79.9229819   4.5419992  30.0034990   8.6579997
   5.2869992  30.0004990   8.0559997   4.6199992  29.1794990   9.1389997
   4.6543365  29.8917395   8.6407412  11.5429992  32.1664990   1.9129997
  11.2479992  32.9934990   2.2949997  10.8399992  31.5474990   2.1099997
  11.4076379  32.1959182   1.9918636   1.5499992  28.4634990  13.9729997
   1.7729992  28.0454990  14.8039997   0.9479992  27.8514990  13.5499997
   1.4991513  28.3234617  14.0296722   8.5669992  27.9804990  16.1859997
   8.2709992  27.8154990  15.2899997   9.4979992  27.7604990  16.1749997
   8.6524401  27.9281891  16.0620189  13.1869992  33.3544990  14.0749997
  12.2859992  33.5374990  13.8079997  13.2209992  33.6134990  14.9959997
  13.0683861  33.4145245  14.1629517  18.9179992  25.5984990   2.4429997
  18.3639992  25.2024990   1.7699997  19.0189992  26.5094990   2.1649997
  18.8558589  25.6673904   2.3133839  18.8809992  31.3994990  15.2799997
  18.0299992  31.6374990  14.9119997  19.4719992  31.3824990  14.5259997
  18.8443831  31.4297623  15.1278448  17.2129992  34.3844990   2.9079997
  16.8409992  33.5594990   3.2169997  17.4909992  34.2014990   2.0099997
  17.1995807  34.2467031   2.8290063  14.3739992  29.1924990   9.9289997
  13.4459992  28.9614990   9.9019997  14.8249992  28.4154990   9.5989997
  14.3078165  29.0557785   9.8806772   6.9169992  33.5214990   6.0619997
   7.4439992  34.2944990   5.8619997   6.0369992  33.7454990   5.7599997
   6.8702121  33.6577344   5.9937460  60.7209992  21.9534990  77.0249997
  61.2119992  21.3234990  76.4969997  61.3439992  22.2494990  77.6879997
  60.8725459  21.9072419  77.0423667   2.6719992  28.3834990   0.6489997
   3.2879992  29.0104990   1.0289997   1.8099992  28.6994990   0.9209997
   2.6397678  28.5119423   0.7377192   8.3439992  31.1844990   5.6379997
   8.1029992  32.1094990   5.6799997   7.6039992  30.7254990   6.0349997
   8.2109463  31.2490969   5.6974279   8.8589992  35.3334990  11.9529997
   9.2219992  36.1874990  11.7199997   9.3909992  35.0414990  12.6939997
   8.9805141  35.4108907  12.0212079   7.0269992  36.2054990   5.1839997
   6.0779992  36.3114990   5.2349997   7.3789992  37.0264990   5.5279997
   6.9445647  36.3310029   5.2374882  12.4029992  31.4324990  11.6539997
  11.9769992  31.2044990  12.4799997  12.9839992  30.6934990  11.4719997
  12.4232088  31.3014393  11.7424454  14.6059992  32.3614990   0.7279997
  14.9589992  31.9814990   1.5319997  13.6569992  32.2674990   0.8149997
  14.5260956  32.2967867   0.8498005  15.0619992  35.9844990  14.1229997
  14.4599992  35.4284990  13.6279997  15.3429992  36.6514990  13.4969997
  15.0175757  35.9985755  13.9705657  19.1089992  36.8404990   0.9289997
  19.8529992  37.4264990   0.7889997  18.4149992  37.4094990   1.2619997
  19.1169809  36.9975830   0.9548572   3.1839992  23.2174990  13.5309997
   2.2909992  23.5554990  13.4629997   3.0849992  22.3614990  13.9489997
   3.0484752  23.1480986  13.5781644  15.4719992  31.0334990   2.9549997
  15.1949992  30.3054990   3.5109997  16.3989992  31.1524990   3.1599997
  15.5594419  30.9499436   3.0588264  65.7469992  22.2464990  79.4819997
  65.9249992  21.5994990  80.1649997  65.6929992  23.0804990  79.9489997
  65.7640678  22.2706615  79.6386283   2.8349992  35.0214990  11.9659997
   3.0519992  34.0894990  11.9349997   3.0819992  35.2964990  12.8489997
   2.8980948  34.9310976  12.0811268   7.6339992  33.0434990   1.6309997
   7.7809992  32.5234990   2.4209997   7.6309992  33.9504990   1.9379997
   7.6537102  33.0948964   1.7805907   4.0869992  30.2954990   2.1419997
   3.4009992  30.6484990   2.7089997   4.6099992  31.0584990   1.8949997
   4.0638402  30.4468912   2.1861784  11.9179992  22.9584990  12.4209997
  12.6169992  23.0324990  13.0709997  11.5379992  22.0934990  12.5749997
  11.9622662  22.8517050  12.5307412  12.7029992  22.6104990   3.5179997
  12.9229992  23.0814990   2.7139997  13.2609992  23.0044990   4.1879997
  12.8086044  22.7282946   3.4985207  10.3719992  34.7404990   2.3809997
   9.5549992  35.2374990   2.4329997  10.9009992  35.2164990   1.7399997
  10.3318125  34.8727000   2.3015289   9.9029992  24.3384990   4.3529997
  10.7149992  24.8424990   4.3989997   9.6579992  24.1934990   5.2669997
   9.9811091  24.3879366   4.4828552  10.4389992  25.3244990  13.5369997
  10.5579992  25.8984990  14.2939997  11.0939992  24.6364990  13.6519997
  10.5438684  25.3100205  13.6561656  10.7869992  21.4194990   5.2909997
  10.4399992  22.0364990   5.9349997  11.4449992  21.9204990   4.8089997
  10.8284430  21.5716860   5.3140046   7.7099992  35.7844990   2.3619997
   7.8709992  36.5844990   1.8619997   7.5129992  36.0914990   3.2469997
   7.7053906  35.9353690   2.4132316  67.6249992  37.1944990  77.8769997
  68.4909992  37.5614990  77.6989997  67.3779992  36.7554990  77.0639997
  67.7102041  37.1853648  77.7425958   6.4439992  22.4824990   1.9779997
   6.3609992  23.3704990   2.3249997   7.3339992  22.2174990   2.2099997
   6.5529331  22.5681177   2.0568067  16.6429992  23.2314990  14.3719997
  15.7269992  23.4934990  14.2849997  16.9789992  23.2284990  13.4759997
  16.5628499  23.2670174  14.2388748  15.2449992  26.9814990   8.4679997
  14.4479992  26.5664990   8.1399997  15.6899992  26.2914990   8.9589997
  15.1960367  26.8313372   8.4894897   4.7029992  32.9094990   1.0379997
   5.2949992  33.6094990   1.3149997   5.1619992  32.4764990   0.3189997
   4.8461652  32.9467686   0.9786515   3.0189992  25.5744990   0.1539997
   2.9739992  26.5134990   0.3329997   2.1309992  25.3384990  -0.1150003
   2.8928166  25.6711698   0.1421507  16.3319992  36.2374990  10.0899997
  16.1759992  36.9164990   9.4329997  17.2639992  36.3094990  10.2929997
  16.4367328  36.3401586  10.0275529   3.8269992  20.3554990   8.8269997
   3.5979992  20.4144990   7.8999997   3.3839992  19.5644990   9.1339997
   3.7357387  20.2566412   8.7415223   2.7569992  34.2964990   4.9879997
   1.9249992  34.7684990   5.0149997   3.3029992  34.8064990   4.3889997
   2.7168710  34.4300317   4.9107570   2.0459992  36.9084990  16.3179997
   2.5859992  36.6924990  17.0779997   1.5639992  36.1034990  16.1279997
   2.0548485  36.7700463  16.3964870   6.6429992  35.8284990  17.9379997
   7.4109992  35.3694990  18.2789997   6.6219992  35.6024990  17.0079997
   6.7452135  35.7351680  17.8589473  74.3339992  36.7574990  80.5569997
  74.1399992  36.0094990  79.9919997  74.2949992  37.5154990  79.9729997
  74.3021907  36.7575770  80.4008077  10.7349992  35.3364990  -0.6870003
  10.0909992  34.7054990  -0.3650003  11.4969992  34.8054990  -0.9180003
  10.7498708  35.1783171  -0.6741539  13.2199992  34.2084990  16.6669997
  12.8689992  33.3514990  16.9099997  13.9459992  34.3504990  17.2739997
  13.2701590  34.1105189  16.7822889  15.3389992  35.1534990  -0.4530003
  15.6219992  34.3584990  -0.0000003  16.0789992  35.3864990  -1.0140003
  15.4777295  35.0762349  -0.4668531   1.9529992  30.7194990  17.2719997
   2.0969992  29.8174990  16.9859997   1.1799992  31.0054990  16.7849997
   1.8682266  30.6346548  17.1670102   6.2939992  31.0624990  -0.5950003
   6.3579992  30.2684990  -0.0650003   6.9469992  30.9444990  -1.2850003
   6.3910483  30.9377496  -0.6156593   8.6079992  30.6884990  16.7049997
   8.2799992  30.9594990  15.8479997   8.7599992  29.7474990  16.6169997
   8.5836412  30.5984058  16.5757804  14.3429992  30.6044990  14.0879997
  15.0879992  31.1934990  13.9689997  13.5849992  31.1864990  14.1509997
  14.3425289  30.7637067  14.0802292   2.7849992  27.9194990  16.6919997
   3.1929992  27.0624990  16.5709997   2.5249992  27.9334990  17.6129997
   2.8057082  27.8040596  16.7999469   7.4429992  29.0354990   1.7109997
   6.9839992  28.5514990   2.3959997   7.6979992  28.3664990   1.0749997
   7.4145997  28.8788491   1.7188734   6.7319992  26.9284990  14.0669997
   6.1139992  27.6024990  14.3469997   7.0759992  27.2494990  13.2329997
   6.6938078  27.0642298  13.9926609  59.9809992  20.7534990  92.2959997
  59.6149992  19.9874990  92.7389997  60.8939992  20.7824990  92.5829997
  60.0543225  20.6526918  92.3953441   8.5139992  27.2784990  -0.0270003
   8.3339992  27.1234990  -0.9540003   9.4639992  27.3864990   0.0179997
   8.6177804  27.2718821  -0.1478034  11.7519992  29.3994990  17.3439997
  12.7049992  29.4834990  17.3169997  11.5919992  28.6874990  17.9629997
  11.8607320  29.3147292  17.4239933  17.9039992  29.6324990  -0.5810003
  17.6309992  29.2084990  -1.3940003  17.9439992  30.5644990  -0.7980003
  17.8720201  29.7003523  -0.7216452   7.0719992  24.2834990  15.1489997
   7.2219992  23.5544990  14.5469997   7.0739992  25.0604990  14.5899997
   7.0927967  24.2887720  14.9910523   7.4839992  22.6524990  12.6419997
   8.0199992  23.1044990  11.9899997   6.6319992  22.5444990  12.2189997
   7.4421795  22.6997444  12.4956211   9.0659992  28.0924990  12.8809997
   9.8169992  27.9364990  12.3079997   8.7269992  28.9444990  12.6059997
   9.1229587  28.1863149  12.7654060  13.4819992  25.9074990  17.9099997
  13.6739992  24.9764990  17.7979997  14.3389992  26.3324990  17.8989997
  13.6242176  25.8375090  17.8931757  14.7979992  28.6964990  15.9869997
  14.5169992  29.4054990  15.4089997  15.7409992  28.6234990  15.8359997
  14.8869272  28.7836704  15.8874976   5.5499992  25.4814990  17.0599997
   4.7829992  24.9484990  16.8499997   6.2289992  25.1714990  16.4609997
   5.5368292  25.3666360  16.9502693   8.2899992  20.1094990  13.0729997
   8.1919992  21.0554990  12.9679997   7.5469992  19.7364990  12.5969997
   8.1762123  20.1886811  12.9943204  61.9539992  20.1034990  93.8319997
  62.8529992  19.8294990  93.6469997  61.5679992  19.3614990  94.2959997
  62.0247237  19.9656520  93.8694693   9.5539992  24.4304990  16.6369997
   9.3179992  24.2114990  17.5379997   8.7709992  24.2234990  16.1269997
   9.4158382  24.3725340  16.6913991  12.2699992  23.5584990  15.7119997
  11.3219992  23.5904990  15.8439997  12.5819992  22.9324990  16.3659997
  12.1825293  23.4782934  15.8184130  13.9039992  22.1924990  17.7169997
  13.8069992  21.2404990  17.7119997  13.5819992  22.4604990  18.5779997
  13.8472468  22.0985896  17.8326192   3.7309992  23.4014990  16.7649997
   3.9419992  22.6954990  16.1549997   3.6189992  22.9644990  17.6089997
   3.7447668  23.2456619  16.7955445   8.5119992  19.4034990  15.7439997
   9.2229992  18.7634990  15.7299997   8.4109992  19.6694990  14.8309997
   8.5956858  19.3518591  15.6185501   8.8649992  21.0854990  17.7979997
   8.7339992  20.6104990  16.9779997   8.2659992  21.8304990  17.7429997
   8.7660829  21.1210949  17.6781823   8.4119992  37.9684990   0.9739997
   9.3449992  38.1264990   1.1179997   8.1469992  38.6444990   0.3489997
   8.5039846  38.0814567   0.9092930   1.9799992  32.6054990   0.4569997
   2.8939992  32.6844990   0.7299997   1.9869992  31.9184990  -0.2090003
   2.1060624  32.5234074   0.4043045   0.6289992  37.9984990   5.5339997
  -0.0180008  37.5364990   5.0019997   0.9839992  37.3264990   6.1169997
   0.5883741  37.8444785   5.5399157   1.4989992  36.0784990   7.3389997
   1.1649992  35.1984990   7.5109997   1.7209992  36.4244990   8.2039997
   1.4832565  36.0047410   7.4794263  70.3749992  19.4364990  94.0139997
  70.4519992  19.0104990  94.8679997  71.2689992  19.4494990  93.6719997
  70.5063315  19.3800320  94.0845052  19.0479992  36.8884990  10.3199997
  19.0259992  37.0734990  11.2579997  19.7379992  37.4564990   9.9789997
  19.1383383  36.9907104  10.4024580  18.6109992  36.4554990  13.2409997
  18.1239992  35.7194990  12.8699997  19.1599992  36.0614990  13.9189997
  18.6186101  36.3016267  13.2819034  17.0619992  32.2454990  17.8789997
  16.1959992  32.1404990  18.2739997  17.4379992  33.0034990  18.3259997
  16.9944940  32.3336141  17.9933958  18.3629992  30.5014990   3.3939997
  19.2129992  30.9224990   3.5209997  18.3679992  29.7614990   4.0009997
  18.4801143  30.4591106   3.4934732  18.7569992  28.5554990   5.2169997
  18.0309992  28.0754990   5.6149997  19.3379992  28.7604990   5.9489997
  18.7362504  28.5175592   5.3704199  18.5159992  31.3404990  10.1649997
  19.3499992  30.9624990   9.8839997  18.6279992  32.2834990  10.0459997
  18.6451917  31.4162954  10.1104844  17.0019992  34.2184990  12.4719997
  16.3549992  34.5434990  13.0969997  16.4849992  33.7774990  11.7979997
  16.8434112  34.2034133  12.4665272  19.0249992  28.4564990   1.6079997
  18.5039992  28.8124990   0.8899997  18.9919992  29.1314990   2.2869997
  18.9490955  28.5965023   1.6012634  17.3739992  25.6954990   0.1589997
  17.4709992  26.3624990  -0.5210003  17.2339992  24.8804990  -0.3220003
  17.3683407  25.6765670   0.0008312  16.5439992  27.0764990   5.7799997
  16.3939992  26.1314990   5.7599997  16.1899992  27.3574990   6.6239997
  16.4756351  26.9851656   5.8913202  73.5519992  35.5084990  92.7069997
  72.7699992  35.3224990  92.1869997  73.4799992  36.4384990  92.9239997
  73.4352975  35.6086973  92.6651823   1.5789992  29.1544990   9.7909997
   1.7629992  29.0724990   8.8549997   2.4279992  29.0304990  10.2139997
   1.7190132  29.1265066   9.7201460  17.3999992  29.0464990  15.4189997
  17.9829992  28.3114990  15.6109997  17.9639992  29.8184990  15.4659997
  17.5559781  29.0503156  15.4516146  18.8969992  26.9494990  16.1039997
  18.0329992  26.5704990  15.9379997  19.5009992  26.2104990  16.0289997
  18.8605394  26.7978378  16.0711778  16.2539992  24.6584990   4.2429997
  16.5339992  23.7514990   4.3669997  17.0129992  25.0924990   3.8539997
  16.3949258  24.5930935   4.2073691  16.8659992  25.2404990   9.6789997
  17.7989992  25.4524990   9.6439997  16.6309992  25.3414990  10.6009997
  16.9619517  25.2831844   9.7989113  16.8949992  25.9774990  12.4549997
  16.0519992  26.2454990  12.8199997  17.3379992  26.7994990  12.2439997
  16.8394035  26.1253351  12.4764770   1.1759992  24.4244990  15.9309997
   2.0959992  24.3024990  16.1679997   0.7269992  23.6744990  16.3209997
   1.2410500  24.3064576  16.0161016  19.1779992  19.9574990  17.8079997
  19.5279992  19.3034990  17.2019997  19.3249992  20.7944990  17.3679997
  19.2457192  19.9812545  17.6656712  16.8679992  21.9214990   4.2909997
  17.0499992  21.4724990   5.1159997  16.2679992  21.3374990   3.8269997
  16.8118187  21.7810563   4.3412721   2.3979992  22.7374990   8.8229997
   2.8429992  21.9454990   9.1249997   2.8639992  23.4534990   9.2529997
   2.5219718  22.7259546   8.9225247  87.9579992  29.3954990  82.7369997
  88.0469992  30.3394990  82.6049997  87.3189992  29.1204990  82.0789997
  87.8838319  29.4874984  82.6300276   0.7019992  25.7364990   9.8919997
   1.1939992  25.5154990   9.1009997   1.0639992  26.5764990  10.1729997
   0.8182923  25.8198480   9.8217389  18.6979992  22.0664990  16.1569997
  17.7809992  22.3374990  16.1209997  18.8209992  21.5314990  15.3729997
  18.5890828  22.0312711  16.0460767  18.7339992  21.9894990   0.8189997
  19.1469992  21.2684990   0.3439997  19.4159992  22.6584990   0.8769997
  18.8826060  21.9813741   0.7619233   1.0149992  21.9944990   3.9459997
   0.0899992  22.2024990   3.8169997   1.4689992  22.4784990   3.2559997
   0.9496298  22.0884311   3.8350433  15.7859992  36.9784990   5.8919997
  16.4379992  36.6304990   5.2839997  16.2969992  37.4664990   6.5379997
  15.9442872  36.9968248   5.8960964   0.9789992  20.7324990  12.2899997
   0.3139992  20.4864990  12.9329997   0.5359992  21.3544990  11.7129997
   0.8281168  20.7829225  12.2999830   3.1709992  33.9074990  16.4349997
   2.3499992  34.0824990  15.9739997   2.9189992  33.8344990  17.3549997
   3.0245594  33.9215728  16.4963593   6.1249992  34.8814990  12.6929997
   5.6999992  35.6914990  12.4109997   7.0289992  34.9674990  12.3909997
   6.1890706  35.0039557  12.6135836  10.4359992  36.2804990  15.6529997
  10.6209992  35.9474990  16.5309997  11.2829992  36.5904990  15.3309997
  10.5757291  36.2768214  15.7296140  12.7809992  37.5664990  14.8969997
  13.4579992  36.9334990  14.6569997  13.1029992  37.9674990  15.7039997
  12.9171618  37.5341147  14.9732802  86.8909992  28.6504990  86.1559997
  86.8519992  28.0044990  86.8609997  86.5679992  28.1834990  85.3849997
  86.8420199  28.4990089  86.1482865  17.6989992  20.1564990  13.9759997
  16.8859992  20.4814990  13.5889997  17.9319992  19.3954990  13.4429997
  17.6191347  20.0981891  13.8509824   3.5269992  38.1384990  12.7409997
   2.8059992  38.5784990  12.2899997   3.1609992  37.8874990  13.5889997
   3.3789632  38.1647235  12.7939649   5.9939992  37.7384990  11.7699997
   5.1289992  37.8104990  12.1739997   5.9389992  38.2854990  10.9869997
   5.8682289  37.8223242  11.7193749  10.7049992  37.6264990  10.9459997
  10.2479992  38.1554990  10.2919997  10.8669992  38.2294990  11.6709997
  10.6643919  37.7803990  10.9545740  13.0319992  36.5044990  11.8909997
  12.1279992  36.6694990  11.6249997  13.4609992  37.3574990  11.8249997
  12.9662017  36.6424184  11.8456495  15.6359992  38.0744990  12.1859997
  15.4549992  38.9904990  11.9749997  15.8129992  37.6634990  11.3389997
  15.6351377  38.1443365  12.0427178   2.9419992  36.7614990   9.6509997
   2.9229992  36.3354990  10.5079997   3.7459992  36.4424990   9.2419997
   3.0481393  36.6600297   9.7130155   5.0829992  35.4714990   8.3059997
   4.8639992  34.5544990   8.4759997   5.9069992  35.6114990   8.7719997
   5.1644702  35.3650523   8.3922510   7.6199992  35.9414990   9.1549997
   7.8329992  35.0534990   8.8679997   7.6849992  35.9064990  10.1089997
   7.6579149  35.8153338   9.2447351  11.1289992  21.6054990   8.2989997
  10.4539992  20.9754990   8.5549997  11.6929992  21.1214990   7.6959997
  11.1129363  21.4538886   8.2524810  79.2589992  28.2644990  87.7489997
  79.2999992  27.6394990  88.4729997  79.9619992  28.8884990  87.9309997
  79.3596054  28.2633262  87.8726311  16.2709992  19.7124990   8.4119997
  16.8749992  20.2604990   7.9099997  15.4019992  20.0314990   8.1709997
  16.2360419  19.8305628   8.3107741  17.9979992  20.8514990   6.7449997
  18.6099992  20.3374990   6.2179997  18.3809992  21.7284990   6.7679997
  18.1333867  20.8997613   6.6760888   3.4549992  20.2394990   6.1209997
   2.6779992  20.0044990   5.6139997   3.9859992  19.4424990   6.1299997
   3.4203735  20.0996462   6.0528090   2.2919992  20.0374990   1.9249997
   2.7309992  20.6484990   1.3329997   1.6579992  20.5754990   2.3989997
   2.2663859  20.1939076   1.9080287   8.0349992  20.1654990   5.9339997
   8.9089992  20.5544990   5.9049997   7.8989992  19.9504990   6.8569997
   8.1361953  20.1896654   6.0547599  13.5909992  20.1954990   7.5839997
  13.6679992  20.2914990   6.6339997  13.3159992  19.2884990   7.7119997
  13.5643233  20.0859093   7.4713665  14.9449992  20.2214990   3.2759997
  14.2419992  20.8364990   3.0659997  14.4999992  19.3844990   3.4069997
  14.7886550  20.1924679   3.2649819   2.1929992  35.9854990   2.8219997
   1.5079992  35.9474990   2.1549997   2.1959992  36.8974990   3.1099997
   2.0996806  36.1036669   2.7696961   4.1529992  21.9534990   0.3669997
   4.6439992  21.3234990  -0.1600003   4.7759992  22.2494990   1.0299997
   4.3045304  21.9072387   0.3844922   9.1789992  22.2464990   2.8239997
   9.3569992  21.5994990   3.5069997   9.1249992  23.0804990   3.2909997
   9.1960678  22.2706615   2.9806283  90.5969992  31.5894990  84.4579997
  90.1559992  30.8694990  84.9079997  90.5839992  32.3104990  85.0879997
  90.5348398  31.5883187  84.6047734  11.0569992  37.1944990   1.2199997
  11.9229992  37.5614990   1.0419997  10.8099992  36.7554990   0.4059997
  11.1421853  37.1854021   1.0855813  17.7659992  36.7574990   3.8989997
  17.5719992  36.0094990   3.3339997  17.7269992  37.5154990   3.3159997
  17.7341645  36.7575797   3.7428131   3.4129992  20.7534990  15.6389997
   3.0469992  19.9874990  16.0809997   4.3259992  20.7824990  15.9249997
   3.4863172  20.6525335  15.7381872   5.3859992  20.1034990  17.1739997
   6.2849992  19.8294990  16.9899997   4.9999992  19.3614990  17.6389997
   5.4567307  19.9657207  17.2117080   4.0109992  36.9054990  -0.1530003
   3.7429992  37.1914990   0.7209997   4.7819992  36.3594990  -0.0000003
   4.0785926  36.8707790  -0.0128812  13.8069992  19.4364990  17.3569997
  13.8839992  19.0104990  18.2099997  14.7009992  19.4494990  17.0139997
  13.9383263  19.3799345  17.4274366  16.9839992  35.5084990  16.0489997
  16.2019992  35.3224990  15.5289997  16.9119992  36.4384990  16.2659997
  16.8672975  35.6086973  16.0071822  31.3899992  29.3954990   6.0799997
  31.4789992  30.3394990   5.9469997  30.7509992  29.1204990   5.4219997
  31.3158378  29.4873846   5.9729258  30.3229992  28.6504990   9.4989997
  30.2839992  28.0044990  10.2039997  29.9999992  28.1834990   8.7269997
  30.2740469  28.4990005   9.4912803  22.6909992  28.2644990  11.0919997
  22.7319992  27.6394990  11.8149997  23.3939992  28.8884990  11.2739997
  22.7916223  28.2632318  11.2156164  80.1829992  32.7144990  86.2839997
  79.8129992  31.9124990  85.9149997  81.1239992  32.5464990  86.3309997
  80.2595630  32.5818680  86.2397873  34.0289992  31.5894990   7.7999997
  33.5879992  30.8694990   8.2509997  34.0159992  32.3104990   8.4299997
  33.9669215  31.5884303   7.9468088  23.6149992  32.7144990   9.6269997
  23.2449992  31.9124990   9.2569997  24.5559992  32.5464990   9.6729997
  23.6915984  32.5819649   9.5825586  20.2249992  26.3744990   5.0189997
  19.7769992  27.2204990   5.0009997  19.6639992  25.7954990   4.5039997
  20.0878546  26.4119004   4.9468874  20.9349992  28.5364990   7.1449997
  21.1489992  27.7664990   7.6719997  21.6729992  28.6264990   6.5419997
  21.0640073  28.4433546   7.1355786  31.1399992  36.6934990   8.0119997
  31.7599992  36.0174990   7.7389997  30.9319992  36.4754990   8.9209997
  31.1967679  36.5715032   8.0974518  28.7119992  31.0824990   9.9049997
  29.0159992  30.3964990   9.3099997  29.4339992  31.2014990  10.5229997
  28.8511240  31.0047325   9.9070941  37.3749992  22.6844990  10.7649997
  37.4239992  23.2944990  11.5009997  37.8009992  23.1454990  10.0419997
  37.4392851  22.8303266  10.7680532  31.8529992  25.4764990  10.2319997
  31.9949992  24.5304990  10.2519997  31.7469992  25.6834990   9.3039997
  31.8581051  25.3749706  10.1092249  25.0079992  23.5784990   7.5049997
  25.0509992  24.4384990   7.0859997  24.5499992  23.0254990   6.8709997
  24.9520163  23.6214174   7.3620604  32.7299992  23.7094990   5.9049997
  33.3759992  23.3804990   6.5299997  33.2399992  24.2264990   5.2829997
  32.8874289  23.7344333   5.9063681  76.7929992  26.3744990  81.6769997
  76.3449992  27.2204990  81.6589997  76.2319992  25.7954990  81.1619997
  76.6558546  26.4119004  81.6048874  21.6279992  25.9754990   8.2669997
  22.2819992  25.4254990   8.6989997  21.6519992  25.7014990   7.3499997
  21.7207199  25.8632179   8.2021650  26.7839992  27.5254990   7.4819997
  27.3999992  26.9984990   7.9909997  26.1979992  26.8854990   7.0779997
  26.7890652  27.3668919   7.4970277  37.7669992  24.1624990  13.0009997
  37.0779992  24.8204990  12.9059997  37.7819992  23.9644990  13.9379997
  37.6747756  24.2257614  13.1145795  23.8179992  22.4964990  11.5789997
  23.5989992  23.0264990  10.8119997  23.1499992  22.7224990  12.2259997
  23.6976975  22.5995979  11.5615123  31.1869992  31.9964990   5.1229997
  30.8909992  31.6734990   4.2709997  30.8629992  32.8964990   5.1639997
  31.1027458  32.0739678   5.0120598  26.3869992  30.1714990  11.8659997
  25.6469992  30.7704990  11.9699997  27.1009992  30.7254990  11.5499997
  26.3823146  30.3282611  11.8375150  34.4939992  23.0004990   7.8859997
  34.2789992  22.2344990   8.4189997  35.1499992  23.4724990   8.3989997
  34.5532673  22.9595739   8.0281972  23.4119992  24.3884990   9.5309997
  24.0249992  25.0214990   9.9039997  23.9239992  23.9164990   8.8749997
  23.5651933  24.4113380   9.4933477  24.7939992  32.1364990  12.6529997
  24.7889992  33.0154990  12.2749997  23.9409992  32.0524990  13.0779997
  24.6779199  32.2455901  12.6586942  20.9159992  31.8074990   3.4349997
  20.6439992  32.0364990   2.5459997  20.9609992  32.6444990   3.8959997
  20.8848360  31.9521034   3.3756186  77.5029992  28.5364990  83.8029997
  77.7169992  27.7664990  84.3299997  78.2409992  28.6264990  83.1999997
  77.6320073  28.4433546  83.7935786  34.5409992  33.4284990  10.1479997
  33.5989992  33.4874990  10.3099997  34.8169992  34.3344990  10.0109997
  34.4495865  33.5590299  10.1516174  34.8409992  21.7154990  11.5649997
  34.1049992  22.3254990  11.5279997  35.5249992  22.1304990  11.0389997
  34.8325367  21.8552562  11.4888156  27.8439992  19.8014990   9.0309997
  27.7269992  18.8534990   8.9769997  26.9889992  20.1344990   9.3039997
  27.7123691  19.7165842   9.0605072  32.7929992  35.2094990   6.7729997
  33.2179992  34.5024990   6.2879997  33.1099992  36.0114990   6.3559997
  32.8940266  35.2210201   6.6502461  33.9519992  33.1104990   5.2819997
  33.6949992  32.4204990   4.6699997  34.0229992  32.6674990   6.1269997
  33.9264322  32.9561568   5.3125372  35.6379992  31.6774990  13.7589997
  35.7779992  31.0854990  13.0199997  35.8059992  32.5504990  13.4029997
  35.6798734  31.7144041  13.6096937  30.1109992  28.6394990   3.5319997
  29.3989992  29.1744990   3.1799997  30.8019992  28.6944990   2.8719997
  30.1069704  28.7201663   3.3945797  30.1649992  27.0964990   0.5699997
  30.8659992  27.1194990   1.2219997  30.4669992  26.4684990  -0.0860003
  30.3018202  27.0147223   0.5705591  37.4799992  28.0174990  11.8249997
  36.8279992  28.7114990  11.9139997  37.9449992  28.2274990  11.0149997
  37.4535357  28.1409544  11.7277056  33.5169992  28.8484990   4.4829997
  32.7849992  29.0774990   5.0559997  33.9639992  28.1354990   4.9379997
  33.4772753  28.7833984   4.6229698  87.7079992  36.6934990  84.6699997
  88.3279992  36.0174990  84.3969997  87.4999992  36.4754990  85.5779997
  87.7647360  36.5714792  84.7554387  33.4139992  27.0234990  13.5509997
  33.4939992  27.7864990  14.1229997  32.8129992  27.3024990  12.8609997
  33.3436547  27.1657468  13.5360029  25.1619992  29.4794990   6.3659997
  24.8319992  29.1084990   5.5479997  25.7499992  28.8084990   6.7129997
  25.1963182  29.3380648   6.3009898  26.5289992  32.9074990   9.0469997
  26.4339992  32.3284990   8.2909997  27.2579992  32.5364990   9.5429997
  26.6146011  32.7780572   9.0106011  25.5289992  28.2474990   9.9989997
  26.0939992  28.3694990   9.2369997  25.8469992  28.8854990  10.6379997
  25.6493619  28.3504388   9.9810019  31.8379992  33.7514990  10.7329997
  31.5969992  34.4134990  11.3809997  31.6399992  32.9164990  11.1579997
  31.7782662  33.7292704  10.8791008  26.4089992  32.6474990  14.7169997
  26.0969992  33.4294990  15.1719997  25.7589992  32.4944990  14.0309997
  26.2784858  32.7337882  14.6865344  32.3879992  28.0114990   2.1689997
  32.9669992  28.1614990   2.9149997  32.8019992  28.4814990   1.4449997
  32.5233358  28.0955966   2.1733935  23.3289992  28.8454990  13.9449997
  23.3989992  29.4964990  14.6439997  22.4379992  28.9484990  13.6099997
  23.2181690  28.9484261  13.9953026  30.1139992  34.7474990   5.6039997
  30.5879992  35.0434990   6.3809997  29.5509992  35.4864990   5.3709997
  30.1027890  34.8878047   5.6788084  24.6479992  34.7184990  15.4799997
  24.6559992  34.5824990  14.5329997  23.7319992  34.6014990  15.7319997
  24.5252528  34.6840475  15.3843226  85.2799992  31.0824990  86.5619997
  85.5839992  30.3964990  85.9679997  86.0019992  31.2014990  87.1799997
  85.4191152  31.0047201  86.5642106  36.0859992  19.7614990   1.9809997
  35.1859992  19.8994990   2.2769997  36.3379992  20.5924990   1.5799997
  35.9967727  19.8928705   1.9672935  24.1519992  28.5484990   3.9549997
  23.8599992  29.3164990   3.4639997  23.4779992  27.8894990   3.7919997
  24.0208843  28.5644537   3.8657695  37.2759992  34.1274990   0.3579997
  37.3489992  35.0664990   0.5279997  38.1809992  33.8224990   0.3019997
  37.4084170  34.2148294   0.3737045  20.2449992  30.9114990  12.7699997
  19.7439992  30.8834990  11.9549997  20.2509992  30.0064990  13.0799997
  20.1771690  30.7852234  12.7002770  19.9959992  33.6924990   9.6539997
  20.9419992  33.5474990   9.6349997  19.8829992  34.4764990  10.1909997
  20.1103578  33.7786708   9.7240300  38.1929992  34.3584990  15.3369997
  38.1439992  33.4024990  15.2989997  37.3669992  34.6254990  15.7379997
  38.0745096  34.2638416  15.3860698  29.1719992  33.9324990  14.2129997
  29.2589992  34.7584990  14.6879997  28.3079992  33.6024990  14.4619997
  29.0671944  34.0009871  14.3116558  29.5859992  37.7044990   4.0189997
  29.5109992  37.5834990   3.0719997  29.6189992  38.6534990   4.1369997
  29.5802083  37.8162639   3.9054973  23.2399992  36.4934990   5.7999997
  23.3919992  36.1454990   6.6779997  22.3889992  36.1364990   5.5439997
  23.1458344  36.3975891   5.8856851  32.6879992  36.8584990   1.0209997
  33.0629992  36.1144990   0.5499997  32.6919992  36.5884990   1.9389997
  32.7398969  36.7200920   1.0806475  93.9429992  22.6844990  87.4229997
  93.9919992  23.2944990  88.1589997  94.3689992  23.1454990  86.6999997
  94.0072851  22.8303266  87.4260532  32.3569992  36.7844990   3.7699997
  31.4219992  36.8844990   3.9489997  32.6369992  36.0744990   4.3489997
  32.2669471  36.7022944   3.8726678  35.3449992  25.8514990  15.8169997
  34.9379992  26.3314990  15.0959997  35.3859992  24.9454990  15.5089997
  35.2948403  25.7947989  15.6767253  22.4939992  32.2354990  13.8129997
  22.7099992  31.8734990  14.6729997  21.6389992  31.8604990  13.6039997
  22.4079082  32.1353377  13.9022396  25.1129992  20.7054990   9.8089997
  24.2509992  20.6184990   9.4009997  25.0909992  21.5614990  10.2369997
  24.9920557  20.8093078   9.8110202  29.7759992  20.4274990  13.1839997
  30.1959992  20.0124990  13.9369997  28.8429992  20.2484990  13.3009997
  29.7073736  20.3464921  13.3028950  33.1019992  24.1824990  14.0369997
  32.5879992  24.0574990  14.8349997  32.9469992  25.0954990  13.7929997
  33.0107802  24.2887433  14.1131504  33.8649992  29.0434990  -0.2020003
  33.9069992  28.8214990  -1.1320003  34.7139992  29.4424990  -0.0120003
  33.9855253  29.0670510  -0.3036196  29.4379992  22.9194990   0.4689997
  29.1839992  22.9384990   1.3909997  29.1809992  22.0484990   0.1669997
  29.3684508  22.8043292   0.5544786  25.2039992  25.6704990  10.9039997
  24.5619992  25.6304990  11.6129997  25.2409992  26.5974990  10.6659997
  25.1211659  25.7902540  10.9688463  25.2009992  25.8914990   5.8159997
  24.3079992  25.5514990   5.7569997  25.6519992  25.5144990   5.0599997
  25.1397185  25.7940220   5.7057698  88.4209992  25.4764990  86.8899997
  88.5629992  24.5304990  86.9099997  88.3149992  25.6834990  85.9609997
  88.4261158  25.3749722  86.7672241  30.7369992  26.3074990   4.6329997
  30.3279992  27.1224990   4.3409997  31.4569992  26.1674990   4.0189997
  30.7784439  26.4000383   4.5100098  29.8389992  26.4834990  16.1209997
  29.2759992  25.7784990  16.4419997  30.6649992  26.3624990  16.5889997
  29.8736674  26.3707176  16.2281734  31.7409992  25.7534990   7.4469997
  31.5459992  26.3594990   6.7319997  31.9229992  24.9204990   7.0129997
  31.7389195  25.7237936   7.2904079  22.9539992  25.9914990  12.7709997
  22.9159992  26.3914990  13.6399997  22.4629992  25.1744990  12.8609997
  22.8824374  25.9358228  12.9020980  26.3199992  23.3654990  -0.4300003
  25.8889992  22.9204990   0.2989997  25.6019992  23.7364990  -0.9430003
  26.1639176  23.3547063  -0.3995087  19.5619992  23.1074990   6.6219997
  20.1929992  23.0784990   7.3409997  20.0119992  22.6824990   5.8909997
  19.7091082  23.0461269   6.6216307  20.8359992  23.8534990   2.0459997
  21.3109992  24.4444990   1.4609997  20.1189992  24.3834990   2.3929997
  20.8040406  24.0061011   2.0128495  31.0049992  27.3914990  12.1179997
  31.3289992  26.7604990  11.4749997  30.5649992  26.8574990  12.7789997
  30.9898707  27.2328261  12.1193195  27.7829992  23.3194990   6.9019997
  26.8719992  23.3764990   7.1909997  28.2879992  23.2594990   7.7129997
  27.7266873  23.3191838   7.0511190  22.6109992  24.9484990   5.7289997
  21.7219992  25.0474990   5.3889997  22.9069992  24.1064990   5.3829997
  22.5294001  24.8482473   5.6357318  81.5759992  23.5784990  84.1619997
  81.6189992  24.4384990  83.7439997  81.1179992  23.0254990  83.5289997
  81.5199613  23.6215689  84.0191276  26.2639992  24.9484990   3.3859997
  27.1959992  25.0774990   3.5639997  26.0489992  25.6174990   2.7359997
  26.3624472  25.0565817   3.3224873  32.1879992  22.5544990  10.1659997
  31.5109992  22.6854990  10.8299997  31.7019992  22.3994990   9.3559997
  32.0297265  22.5514665  10.1473380  24.9379992  26.1424990   0.9519997
  24.3959992  25.7634990   0.2609997  25.7719992  26.3374990   0.5239997
  24.9764390  26.1169091   0.7994374  35.4749992  38.2254990  16.4429997
  35.6749992  38.6494990  15.6089997  36.1309992  38.5694990  17.0499997
  35.5909937  38.3299993  16.4108645  23.0729992  30.6994990  16.0509997
  23.8049992  30.9544990  16.6129997  22.2929992  30.9044990  16.5669997
  23.0676526  30.7620438  16.1975168  29.1029992  26.1064990   8.7889997
  29.6669992  25.5604990   8.2419997  28.9549992  25.5854990   9.5779997
  29.1603037  25.9611798   8.8207212  24.1049992  22.2434990   5.2079997
  23.7869992  21.3404990   5.1719997  24.8859992  22.2454990   4.6549997
  24.1671079  22.1202240   5.1282908  27.7289992  24.4954990  11.2029997
  26.8939992  24.9494990  11.3139997  28.2529992  24.7714990  11.9549997
  27.6856072  24.5948960  11.3198118  28.2729992  30.7084990   2.8879997
  27.5279992  30.2004990   2.5659997  28.1389992  30.7574990   3.8339997
  28.1529334  30.6456144   2.9718892  35.4229992  29.8414990  11.6749997
  36.0649992  30.2974990  11.1309997  34.5929992  29.9544990  11.2119997
  35.3986536  29.9191813  11.5379579  89.2979992  23.7094990  82.5629997
  89.9439992  23.3804990  83.1879997  89.8079992  24.2264990  81.9399997
  89.4554392  23.7343710  82.5643248  32.1709992  23.5224990   1.0869997
  31.2319992  23.6334990   0.9359997  32.4679992  24.3784990   1.3939997
  32.0826136  23.6534977   1.1078568  29.7929992  30.8924990  14.1249997
  29.4469992  30.5104990  14.9319997  29.5929992  31.8254990  14.1959997
  29.7185987  30.9664013  14.2450443  32.8889992  25.3894990   2.7479997
  33.7809992  25.2514990   3.0669997  32.9459992  26.1804990   2.2109997
  33.0187380  25.4774777   2.7190981  23.3979992  30.0034990   8.6579997
  24.1429992  30.0004990   8.0559997  23.4759992  29.1794990   9.1389997
  23.5103365  29.8917395   8.6407412  30.3989992  32.1664990   1.9129997
  30.1039992  32.9934990   2.2949997  29.6959992  31.5474990   2.1099997
  30.2636379  32.1959182   1.9918636  20.4059992  28.4634990  13.9729997
  20.6289992  28.0454990  14.8039997  19.8039992  27.8514990  13.5499997
  20.3551513  28.3234617  14.0296722  27.4229992  27.9804990  16.1859997
  27.1269992  27.8154990  15.2899997  28.3539992  27.7604990  16.1749997
  27.5084401  27.9281891  16.0620189  32.0429992  33.3544990  14.0749997
  31.1419992  33.5374990  13.8079997  32.0769992  33.6134990  14.9959997
  31.9243861  33.4145245  14.1629517  37.7739992  25.5984990   2.4429997
  37.2199992  25.2024990   1.7699997  37.8749992  26.5094990   2.1649997
  37.7118589  25.6673904   2.3133839  37.7369992  31.3994990  15.2799997
  36.8859992  31.6374990  14.9119997  38.3279992  31.3824990  14.5259997
  37.7003831  31.4297623  15.1278448  78.1959992  25.9754990  84.9239997
  78.8499992  25.4254990  85.3559997  78.2199992  25.7014990  84.0079997
  78.2887022  25.8632005  84.8591698  36.0689992  34.3844990   2.9079997
  35.6969992  33.5594990   3.2169997  36.3469992  34.2014990   2.0099997
  36.0555807  34.2467031   2.8290063  33.2299992  29.1924990   9.9289997
  32.3019992  28.9614990   9.9019997  33.6809992  28.4154990   9.5989997
  33.1638165  29.0557785   9.8806772  25.7729992  33.5214990   6.0619997
  26.2999992  34.2944990   5.8619997  24.8929992  33.7454990   5.7599997
  25.7262121  33.6577344   5.9937460  21.5279992  28.3834990   0.6489997
  22.1439992  29.0104990   1.0289997  20.6659992  28.6994990   0.9209997
  21.4957678  28.5119423   0.7377192  27.1999992  31.1844990   5.6379997
  26.9589992  32.1094990   5.6799997  26.4599992  30.7254990   6.0349997
  27.0669463  31.2490969   5.6974279  27.7149992  35.3334990  11.9529997
  28.0779992  36.1874990  11.7199997  28.2469992  35.0414990  12.6939997
  27.8365141  35.4108907  12.0212079  25.8829992  36.2054990   5.1839997
  24.9339992  36.3114990   5.2349997  26.2349992  37.0264990   5.5279997
  25.8005647  36.3310029   5.2374882  31.2589992  31.4324990  11.6539997
  30.8329992  31.2044990  12.4799997  31.8399992  30.6934990  11.4719997
  31.2792088  31.3014393  11.7424454  33.4619992  32.3614990   0.7279997
  33.8149992  31.9814990   1.5319997  32.5129992  32.2674990   0.8149997
  33.3820956  32.2967867   0.8498005  33.9179992  35.9844990  14.1229997
  33.3159992  35.4284990  13.6279997  34.1989992  36.6514990  13.4969997
  33.8735757  35.9985755  13.9705657  83.3519992  27.5254990  84.1399997
  83.9679992  26.9984990  84.6489997  82.7659992  26.8854990  83.7359997
  83.3570652  27.3668919  84.1550277  37.9649992  36.8404990   0.9289997
  38.7089992  37.4264990   0.7889997  37.2709992  37.4094990   1.2619997
  37.9729809  36.9975830   0.9548572  22.0399992  23.2174990  13.5309997
  21.1469992  23.5554990  13.4629997  21.9409992  22.3614990  13.9489997
  21.9044752  23.1480986  13.5781644  34.3279992  31.0334990   2.9549997
  34.0509992  30.3054990   3.5109997  35.2549992  31.1524990   3.1599997
  34.4154419  30.9499436   3.0588264  21.6909992  35.0214990  11.9659997
  21.9079992  34.0894990  11.9349997  21.9379992  35.2964990  12.8489997
  21.7540948  34.9310976  12.0811268  26.4899992  33.0434990   1.6309997
  26.6369992  32.5234990   2.4209997  26.4869992  33.9504990   1.9379997
  26.5097102  33.0948964   1.7805907  22.9429992  30.2954990   2.1419997
  22.2569992  30.6484990   2.7089997  23.4659992  31.0584990   1.8949997
  22.9198402  30.4468912   2.1861783  30.7739992  22.9584990  12.4209997
  31.4729992  23.0324990  13.0709997  30.3939992  22.0934990  12.5749997
  30.8182662  22.8517050  12.5307412  31.5589992  22.6104990   3.5179997
  31.7789992  23.0814990   2.7139997  32.1169992  23.0044990   4.1879997
  31.6646044  22.7282946   3.4985207  29.2279992  34.7404990   2.3809997
  28.4109992  35.2374990   2.4329997  29.7569992  35.2164990   1.7399997
  29.1878125  34.8727000   2.3015289  28.7589992  24.3384990   4.3529997
  29.5709992  24.8424990   4.3989997  28.5139992  24.1934990   5.2669997
  28.8371091  24.3879366   4.4828552  94.3349992  24.1624990  89.6589997
  93.6459992  24.8204990  89.5639997  94.3499992  23.9644990  90.5959997
  94.2427756  24.2257614  89.7725795  29.2949992  25.3244990  13.5369997
  29.4139992  25.8984990  14.2939997  29.9499992  24.6364990  13.6519997
  29.3998684  25.3100205  13.6561656  29.6429992  21.4194990   5.2909997
  29.2959992  22.0364990   5.9349997  30.3009992  21.9204990   4.8089997
  29.6844430  21.5716860   5.3140046  26.5659992  35.7844990   2.3619997
  26.7269992  36.5844990   1.8619997  26.3689992  36.0914990   3.2469997
  26.5613906  35.9353690   2.4132316  25.2999992  22.4824990   1.9779997
  25.2169992  23.3704990   2.3249997  26.1899992  22.2174990   2.2099997
  25.4089331  22.5681177   2.0568067  35.4989992  23.2314990  14.3719997
  34.5829992  23.4934990  14.2849997  35.8349992  23.2284990  13.4759997
  35.4188499  23.2670174  14.2388748  34.1009992  26.9814990   8.4679997
  33.3039992  26.5664990   8.1399997  34.5459992  26.2914990   8.9589997
  34.0520367  26.8313372   8.4894897  23.5589992  32.9094990   1.0379997
  24.1509992  33.6094990   1.3149997  24.0179992  32.4764990   0.3189997
  23.7021652  32.9467686   0.9786515  21.8749992  25.5744990   0.1539997
  21.8299992  26.5134990   0.3329997  20.9869992  25.3384990  -0.1150003
  21.7488166  25.6711698   0.1421507  35.1879992  36.2374990  10.0899997
  35.0319992  36.9164990   9.4329997  36.1199992  36.3094990  10.2929997
  35.2927328  36.3401586  10.0275529  22.6829992  20.3554990   8.8269997
  22.4539992  20.4144990   7.8999997  22.2399992  19.5644990   9.1339997
  22.5917387  20.2566412   8.7415223  80.3859992  22.4964990  88.2359997
  80.1669992  23.0264990  87.4699997  79.7179992  22.7224990  88.8839997
  80.2657271  22.5996508  88.2186206  21.6129992  34.2964990   4.9879997
  20.7809992  34.7684990   5.0149997  22.1589992  34.8064990   4.3889997
  21.5728710  34.4300317   4.9107570  20.9019992  36.9084990  16.3179997
  21.4419992  36.6924990  17.0779997  20.4199992  36.1034990  16.1279997
  20.9108485  36.7700463  16.3964870  25.4989992  35.8284990  17.9379997
  26.2669992  35.3694990  18.2789997  25.4779992  35.6024990  17.0079997
  25.6012135  35.7351680  17.8589473  29.5909992  35.3364990  -0.6870003
  28.9469992  34.7054990  -0.3650003  30.3529992  34.8054990  -0.9180003
  29.6058708  35.1783171  -0.6741539  32.0759992  34.2084990  16.6669997
  31.7249992  33.3514990  16.9099997  32.8019992  34.3504990  17.2739997
  32.1261590  34.1105189  16.7822889  34.1949992  35.1534990  -0.4530003
  34.4779992  34.3584990  -0.0000003  34.9349992  35.3864990  -1.0140003
  34.3337295  35.0762349  -0.4668531  20.8089992  30.7194990  17.2719997
  20.9529992  29.8174990  16.9859997  20.0359992  31.0054990  16.7849997
  20.7242266  30.6346548  17.1670102  25.1499992  31.0624990  -0.5950003
  25.2139992  30.2684990  -0.0650003  25.8029992  30.9444990  -1.2850003
  25.2470483  30.9377496  -0.6156593  27.4639992  30.6884990  16.7049997
  27.1359992  30.9594990  15.8479997  27.6159992  29.7474990  16.6169997
  27.4396412  30.5984058  16.5757804  33.1989992  30.6044990  14.0879997
  33.9439992  31.1934990  13.9689997  32.4409992  31.1864990  14.1509997
  33.1985289  30.7637067  14.0802292  87.7549992  31.9964990  81.7799997
  87.4589992  31.6734990  80.9289997  87.4309992  32.8964990  81.8219997
  87.6706501  32.0739058  81.6690893  21.6409992  27.9194990  16.6919997
  22.0489992  27.0624990  16.5709997  21.3809992  27.9334990  17.6129997
  21.6617082  27.8040596  16.7999469  26.2989992  29.0354990   1.7109997
  25.8399992  28.5514990   2.3959997  26.5539992  28.3664990   1.0749997
  26.2705997  28.8788491   1.7188734  25.5879992  26.9284990  14.0669997
  24.9699992  27.6024990  14.3469997  25.9319992  27.2494990  13.2329997
  25.5498078  27.0642298  13.9926609  27.3699992  27.2784990  -0.0270003
  27.1899992  27.1234990  -0.9540003  28.3199992  27.3864990   0.0179997
  27.4737804  27.2718821  -0.1478034  30.6079992  29.3994990  17.3439997
  31.5609992  29.4834990  17.3169997  30.4479992  28.6874990  17.9629997
  30.7167320  29.3147292  17.4239933  36.7599992  29.6324990  -0.5810003
  36.4869992  29.2084990  -1.3940003  36.7999992  30.5644990  -0.7980003
  36.7280201  29.7003523  -0.7216452  25.9279992  24.2834990  15.1489997
  26.0779992  23.5544990  14.5469997  25.9299992  25.0604990  14.5899997
  25.9487967  24.2887720  14.9910523  26.3399992  22.6524990  12.6419997
  26.8759992  23.1044990  11.9899997  25.4879992  22.5444990  12.2189997
  26.2981795  22.6997444  12.4956211  27.9219992  28.0924990  12.8809997
  28.6729992  27.9364990  12.3079997  27.5829992  28.9444990  12.6059997
  27.9789587  28.1863149  12.7654060  32.3379992  25.9074990  17.9099997
  32.5299992  24.9764990  17.7979997  33.1949992  26.3324990  17.8989997
  32.4802176  25.8375090  17.8931757  82.9549992  30.1714990  88.5239997
  82.2149992  30.7704990  88.6269997  83.6689992  30.7254990  88.2079997
  82.9503288  30.3282368  88.4953787  33.6539992  28.6964990  15.9869997
  33.3729992  29.4054990  15.4089997  34.5969992  28.6234990  15.8359997
  33.7429272  28.7836704  15.8874976  24.4059992  25.4814990  17.0599997
  23.6389992  24.9484990  16.8499997  25.0849992  25.1714990  16.4609997
  24.3928292  25.3666360  16.9502693  27.1459992  20.1094990  13.0729997
  27.0479992  21.0554990  12.9679997  26.4029992  19.7364990  12.5969997
  27.0322123  20.1886811  12.9943204  28.4099992  24.4304990  16.6369997
  28.1739992  24.2114990  17.5379997  27.6269992  24.2234990  16.1269997
  28.2718382  24.3725340  16.6913991  31.1259992  23.5584990  15.7119997
  30.1779992  23.5904990  15.8439997  31.4379992  22.9324990  16.3659997
  31.0385293  23.4782934  15.8184130  32.7599992  22.1924990  17.7169997
  32.6629992  21.2404990  17.7119997  32.4379992  22.4604990  18.5779997
  32.7032468  22.0985896  17.8326192  22.5869992  23.4014990  16.7649997
  22.7979992  22.6954990  16.1549997  22.4749992  22.9644990  17.6089997
  22.6007668  23.2456619  16.7955445  27.3679992  19.4034990  15.7439997
  28.0789992  18.7634990  15.7299997  27.2669992  19.6694990  14.8309997
  27.4516858  19.3518591  15.6185501  27.7209992  21.0854990  17.7979997
  27.5899992  20.6104990  16.9779997  27.1219992  21.8304990  17.7429997
  27.6220829  21.1210949  17.6781823  27.2679992  37.9684990   0.9739997
  28.2009992  38.1264990   1.1179997  27.0029992  38.6444990   0.3489997
  27.3599846  38.0814567   0.9092930  91.0619992  23.0004990  84.5439997
  90.8469992  22.2344990  85.0759997  91.7179992  23.4724990  85.0569997
  91.1212451  22.9594472  84.6861699  20.8359992  32.6054990   0.4569997
  21.7499992  32.6844990   0.7299997  20.8429992  31.9184990  -0.2090003
  20.9620624  32.5234074   0.4043045  19.4849992  37.9984990   5.5339997
  18.8379992  37.5364990   5.0019997  19.8399992  37.3264990   6.1169997
  19.4443741  37.8444785   5.5399157  20.3549992  36.0784990   7.3389997
  20.0209992  35.1984990   7.5109997  20.5769992  36.4244990   8.2039997
  20.3392565  36.0047410   7.4794263  37.9039992  36.8884990  10.3199997
  37.8819992  37.0734990  11.2579997  38.5939992  37.4564990   9.9789997
  37.9943383  36.9907104  10.4024580  37.4669992  36.4554990  13.2409997
  36.9799992  35.7194990  12.8699997  38.0159992  36.0614990  13.9189997
  37.4746101  36.3016267  13.2819034  35.9179992  32.2454990  17.8789997
  35.0519992  32.1404990  18.2739997  36.2939992  33.0034990  18.3259997
  35.8504940  32.3336141  17.9933958  37.2189992  30.5014990   3.3939997
  38.0689992  30.9224990   3.5209997  37.2239992  29.7614990   4.0009997
  37.3361143  30.4591106   3.4934732  37.6129992  28.5554990   5.2169997
  36.8869992  28.0754990   5.6149997  38.1939992  28.7604990   5.9489997
  37.5922504  28.5175592   5.3704199  37.3719992  31.3404990  10.1649997
  38.2059992  30.9624990   9.8839997  37.4839992  32.2834990  10.0459997
  37.5011917  31.4162954  10.1104844  35.8579992  34.2184990  12.4719997
  35.2109992  34.5434990  13.0969997  35.3409992  33.7774990  11.7979997
  35.6994112  34.2034133  12.4665272  79.9799992  24.3884990  86.1889997
  80.5929992  25.0214990  86.5619997  80.4919992  23.9164990  85.5319997
  80.1331680  24.4114006  86.1512830  37.8809992  28.4564990   1.6079997
  37.3599992  28.8124990   0.8899997  37.8479992  29.1314990   2.2869997
  37.8050955  28.5965023   1.6012634  36.2299992  25.6954990   0.1589997
  36.3269992  26.3624990  -0.5210003  36.0899992  24.8804990  -0.3220003
  36.2243407  25.6765670   0.0008312  35.3999992  27.0764990   5.7799997
  35.2499992  26.1314990   5.7599997  35.0459992  27.3574990   6.6239997
  35.3316351  26.9851656   5.8913202  20.4349992  29.1544990   9.7909997
  20.6189992  29.0724990   8.8549997  21.2839992  29.0304990  10.2139997
  20.5750132  29.1265066   9.7201460  36.2559992  29.0464990  15.4189997
  36.8389992  28.3114990  15.6109997  36.8199992  29.8184990  15.4659997
  36.4119781  29.0503156  15.4516146  37.7529992  26.9494990  16.1039997
  36.8889992  26.5704990  15.9379997  38.3569992  26.2104990  16.0289997
  37.7165394  26.7978378  16.0711778  35.1099992  24.6584990   4.2429997
  35.3899992  23.7514990   4.3669997  35.8689992  25.0924990   3.8539997
  35.2509258  24.5930935   4.2073691  35.7219992  25.2404990   9.6789997
  36.6549992  25.4524990   9.6439997  35.4869992  25.3414990  10.6009997
  35.8179517  25.2831844   9.7989113  35.7509992  25.9774990  12.4549997
  34.9079992  26.2454990  12.8199997  36.1939992  26.7994990  12.2439997
  35.6954035  26.1253351  12.4764770  20.0319992  24.4244990  15.9309997
  20.9519992  24.3024990  16.1679997  19.5829992  23.6744990  16.3209997
  20.0970500  24.3064576  16.0161016  81.3619992  32.1364990  89.3109997
  81.3569992  33.0154990  88.9329997  80.5089992  32.0524990  89.7359997
  81.2459199  32.2455901  89.3166942  38.0339992  19.9574990  17.8079997
  38.3839992  19.3034990  17.2019997  38.1809992  20.7944990  17.3679997
  38.1017192  19.9812545  17.6656712  35.7239992  21.9214990   4.2909997
  35.9059992  21.4724990   5.1159997  35.1239992  21.3374990   3.8269997
  35.6678187  21.7810563   4.3412721  21.2539992  22.7374990   8.8229997
  21.6989992  21.9454990   9.1249997  21.7199992  23.4534990   9.2529997
  21.3779718  22.7259546   8.9225247  19.5579992  25.7364990   9.8919997
  20.0499992  25.5154990   9.1009997  19.9199992  26.5764990  10.1729997
  19.6742923  25.8198480   9.8217389  37.5539992  22.0664990  16.1569997
  36.6369992  22.3374990  16.1209997  37.6769992  21.5314990  15.3729997
  37.4450828  22.0312711  16.0460767  37.5899992  21.9894990   0.8189997
  38.0029992  21.2684990   0.3439997  38.2719992  22.6584990   0.8769997
  37.7386060  21.9813741   0.7619233  19.8709992  21.9944990   3.9459997
  18.9459992  22.2024990   3.8169997  20.3249992  22.4784990   3.2559997
  19.8056298  22.0884311   3.8350433  34.6419992  36.9784990   5.8919997
  35.2939992  36.6304990   5.2839997  35.1529992  37.4664990   6.5379997
  34.8002872  36.9968248   5.8960964  19.8349992  20.7324990  12.2899997
  19.1699992  20.4864990  12.9329997  19.3919992  21.3544990  11.7129997
  19.6841168  20.7829225  12.2999830  22.0269992  33.9074990  16.4349997
  21.2059992  34.0824990  15.9739997  21.7749992  33.8344990  17.3549997
  21.8805594  33.9215728  16.4963593  77.4839992  31.8074990  80.0929997
  77.2119992  32.0364990  79.2039997  77.5289992  32.6444990  80.5529997
  77.4528709  31.9521069  80.0336089  24.9809992  34.8814990  12.6929997
  24.5559992  35.6914990  12.4109997  25.8849992  34.9674990  12.3909997
  25.0450706  35.0039557  12.6135836  29.2919992  36.2804990  15.6529997
  29.4769992  35.9474990  16.5309997  30.1389992  36.5904990  15.3309997
  29.4317291  36.2768214  15.7296140  31.6369992  37.5664990  14.8969997
  32.3139992  36.9334990  14.6569997  31.9589992  37.9674990  15.7039997
  31.7731618  37.5341147  14.9732802  36.5549992  20.1564990  13.9759997
  35.7419992  20.4814990  13.5889997  36.7879992  19.3954990  13.4429997
  36.4751347  20.0981891  13.8509824  22.3829992  38.1384990  12.7409997
  21.6619992  38.5784990  12.2899997  22.0169992  37.8874990  13.5889997
  22.2349632  38.1647235  12.7939649  24.8499992  37.7384990  11.7699997
  23.9849992  37.8104990  12.1739997  24.7949992  38.2854990  10.9869997
  24.7242290  37.8223242  11.7193749  29.5609992  37.6264990  10.9459997
  29.1039992  38.1554990  10.2919997  29.7229992  38.2294990  11.6709997
  29.5203919  37.7803990  10.9545740  31.8879992  36.5044990  11.8909997
  30.9839992  36.6694990  11.6249997  32.3169992  37.3574990  11.8249997
  31.8222017  36.6424184  11.8456495  34.4919992  38.0744990  12.1859997
  34.3109992  38.9904990  11.9749997  34.6689992  37.6634990  11.3389997
  34.4911377  38.1443365  12.0427178  21.7979992  36.7614990   9.6509997
  21.7789992  36.3354990  10.5079997  22.6019992  36.4424990   9.2419997
  21.9041393  36.6600297   9.7130155  91.1089992  33.4284990  86.8059997
  90.1669992  33.4874990  86.9669997  91.3849992  34.3344990  86.6689997
  91.0175771  33.5590270  86.8094827  23.9389992  35.4714990   8.3059997
  23.7199992  34.5544990   8.4759997  24.7629992  35.6114990   8.7719997
  24.0204702  35.3650523   8.3922510  26.4759992  35.9414990   9.1549997
  26.6889992  35.0534990   8.8679997  26.5409992  35.9064990  10.1089997
  26.5139149  35.8153338   9.2447351  29.9849992  21.6054990   8.2989997
  29.3099992  20.9754990   8.5549997  30.5489992  21.1214990   7.6959997
  29.9689363  21.4538886   8.2524810  35.1269992  19.7124990   8.4119997
  35.7309992  20.2604990   7.9099997  34.2579992  20.0314990   8.1709997
  35.0920419  19.8305628   8.3107741  36.8539992  20.8514990   6.7449997
  37.4659992  20.3374990   6.2179997  37.2369992  21.7284990   6.7679997
  36.9893867  20.8997613   6.6760888  22.3109992  20.2394990   6.1209997
  21.5339992  20.0044990   5.6139997  22.8419992  19.4424990   6.1299997
  22.2763735  20.0996462   6.0528090  21.1479992  20.0374990   1.9249997
  21.5869992  20.6484990   1.3329997  20.5139992  20.5754990   2.3989997
  21.1223859  20.1939076   1.9080287  26.8909992  20.1654990   5.9339997
  27.7649992  20.5544990   5.9049997  26.7549992  19.9504990   6.8569997
  26.9921953  20.1896654   6.0547599  32.4469992  20.1954990   7.5839997
  32.5239992  20.2914990   6.6339997  32.1719992  19.2884990   7.7119997
  32.4203233  20.0859093   7.4713665  33.8009992  20.2214990   3.2759997
  33.0979992  20.8364990   3.0659997  33.3559992  19.3844990   3.4069997
  33.6446550  20.1924679   3.2649819  91.4089992  21.7154990  88.2229997
  90.6729992  22.3254990  88.1849997  92.0929992  22.1304990  87.6969997
  91.4005885  21.8551924  88.1466931  21.0489992  35.9854990   2.8219997
  20.3639992  35.9474990   2.1549997  21.0519992  36.8974990   3.1099997
  20.9556806  36.1036669   2.7696961  23.0089992  21.9534990   0.3669997
  23.4999992  21.3234990  -0.1600003  23.6319992  22.2494990   1.0299997
  23.1605304  21.9072387   0.3844922  28.0349992  22.2464990   2.8239997
  28.2129992  21.5994990   3.5069997  27.9809992  23.0804990   3.2909997
  28.0520678  22.2706615   2.9806283  29.9129992  37.1944990   1.2199997
  30.7789992  37.5614990   1.0419997  29.6659992  36.7554990   0.4059997
  29.9981853  37.1854021   1.0855813  36.6219992  36.7574990   3.8989997
  36.4279992  36.0094990   3.3339997  36.5829992  37.5154990   3.3159997
  36.5901645  36.7575797   3.7428131  22.2689992  20.7534990  15.6389997
  21.9029992  19.9874990  16.0809997  23.1819992  20.7824990  15.9249997
  22.3423172  20.6525335  15.7381872  24.2419992  20.1034990  17.1739997
  25.1409992  19.8294990  16.9899997  23.8559992  19.3614990  17.6389997
  24.3127307  19.9657207  17.2117080  22.8669992  36.9054990  -0.1530003
  22.5989992  37.1914990   0.7209997  23.6379992  36.3594990  -0.0000003
  22.9345926  36.8707790  -0.0128812  32.6629992  19.4364990  17.3569997
  32.7399992  19.0104990  18.2099997  33.5569992  19.4494990  17.0139997
  32.7943263  19.3799345  17.4274366  35.8399992  35.5084990  16.0489997
  35.0579992  35.3224990  15.5289997  35.7679992  36.4384990  16.2659997
  35.7232975  35.6086973  16.0071822  84.4119992  19.8014990  85.6889997
  84.2949992  18.8534990  85.6349997  83.5569992  20.1344990  85.9619997
  84.2803691  19.7165842  85.7185072  50.2459992  29.3954990   6.0799997
  50.3349992  30.3394990   5.9469997  49.6069992  29.1204990   5.4219997
  50.1718378  29.4873846   5.9729258  49.1789992  28.6504990   9.4989997
  49.1399992  28.0044990  10.2039997  48.8559992  28.1834990   8.7269997
  49.1300469  28.4990005   9.4912803  41.5469992  28.2644990  11.0919997
  41.5879992  27.6394990  11.8149997  42.2499992  28.8884990  11.2739997
  41.6476223  28.2632318  11.2156164  52.8849992  31.5894990   7.7999997
  52.4439992  30.8694990   8.2509997  52.8719992  32.3104990   8.4299997
  52.8229215  31.5884303   7.9468088  42.4709992  32.7144990   9.6269997
  42.1009992  31.9124990   9.2569997  43.4119992  32.5464990   9.6729997
  42.5475984  32.5819649   9.5825586  39.0809992  26.3744990   5.0189997
  38.6329992  27.2204990   5.0009997  38.5199992  25.7954990   4.5039997
  38.9438546  26.4119004   4.9468874  39.7909992  28.5364990   7.1449997
  40.0049992  27.7664990   7.6719997  40.5289992  28.6264990   6.5419997
  39.9200073  28.4433546   7.1355786  49.9959992  36.6934990   8.0119997
  50.6159992  36.0174990   7.7389997  49.7879992  36.4754990   8.9209997
  50.0527679  36.5715032   8.0974518  47.5679992  31.0824990   9.9049997
  47.8719992  30.3964990   9.3099997  48.2899992  31.2014990  10.5229997
  47.7071240  31.0047325   9.9070941  56.2309992  22.6844990  10.7649997
  56.2799992  23.2944990  11.5009997  56.6569992  23.1454990  10.0419997
  56.2952851  22.8303266  10.7680532  89.3609992  35.2094990  83.4309997
  89.7859992  34.5024990  82.9459997  89.6779992  36.0114990  83.0139997
  89.4620266  35.2210201  83.3082461  50.7089992  25.4764990  10.2319997
  50.8509992  24.5304990  10.2519997  50.6029992  25.6834990   9.3039997
  50.7141051  25.3749706  10.1092249  43.8639992  23.5784990   7.5049997
  43.9069992  24.4384990   7.0859997  43.4059992  23.0254990   6.8709997
  43.8080163  23.6214174   7.3620604  51.5859992  23.7094990   5.9049997
  52.2319992  23.3804990   6.5299997  52.0959992  24.2264990   5.2829997
  51.7434289  23.7344333   5.9063681  40.4839992  25.9754990   8.2669997
  41.1379992  25.4254990   8.6989997  40.5079992  25.7014990   7.3499997
  40.5767199  25.8632179   8.2021650  45.6399992  27.5254990   7.4819997
  46.2559992  26.9984990   7.9909997  45.0539992  26.8854990   7.0779997
  45.6450652  27.3668919   7.4970277  56.6229992  24.1624990  13.0009997
  55.9339992  24.8204990  12.9059997  56.6379992  23.9644990  13.9379997
  56.5307756  24.2257614  13.1145795  42.6739992  22.4964990  11.5789997
  42.4549992  23.0264990  10.8119997  42.0059992  22.7224990  12.2259997
  42.5536975  22.5995979  11.5615123  50.0429992  31.9964990   5.1229997
  49.7469992  31.6734990   4.2709997  49.7189992  32.8964990   5.1639997
  49.9587458  32.0739678   5.0120598  45.2429992  30.1714990  11.8659997
  44.5029992  30.7704990  11.9699997  45.9569992  30.7254990  11.5499997
  45.2383146  30.3282611  11.8375150  53.3499992  23.0004990   7.8859997
  53.1349992  22.2344990   8.4189997  54.0059992  23.4724990   8.3989997
  53.4092673  22.9595739   8.0281972  90.5199992  33.1104990  81.9399997
  90.2629992  32.4204990  81.3279997  90.5909992  32.6674990  82.7849997
  90.4944322  32.9561568  81.9705372  42.2679992  24.3884990   9.5309997
  42.8809992  25.0214990   9.9039997  42.7799992  23.9164990   8.8749997
  42.4211933  24.4113380   9.4933477  43.6499992  32.1364990  12.6529997
  43.6449992  33.0154990  12.2749997  42.7969992  32.0524990  13.0779997
  43.5339199  32.2455901  12.6586942  39.7719992  31.8074990   3.4349997
  39.4999992  32.0364990   2.5459997  39.8169992  32.6444990   3.8959997
  39.7408360  31.9521034   3.3756186  53.3969992  33.4284990  10.1479997
  52.4549992  33.4874990  10.3099997  53.6729992  34.3344990  10.0109997
  53.3055865  33.5590299  10.1516174  53.6969992  21.7154990  11.5649997
  52.9609992  22.3254990  11.5279997  54.3809992  22.1304990  11.0389997
  53.6885367  21.8552562  11.4888156  46.6999992  19.8014990   9.0309997
  46.5829992  18.8534990   8.9769997  45.8449992  20.1344990   9.3039997
  46.5683691  19.7165842   9.0605072  51.6489992  35.2094990   6.7729997
  52.0739992  34.5024990   6.2879997  51.9659992  36.0114990   6.3559997
  51.7500266  35.2210201   6.6502461  52.8079992  33.1104990   5.2819997
  52.5509992  32.4204990   4.6699997  52.8789992  32.6674990   6.1269997
  52.7824322  32.9561568   5.3125372  54.4939992  31.6774990  13.7589997
  54.6339992  31.0854990  13.0199997  54.6619992  32.5504990  13.4029997
  54.5358734  31.7144041  13.6096937  48.9669992  28.6394990   3.5319997
  48.2549992  29.1744990   3.1799997  49.6579992  28.6944990   2.8719997
  48.9629704  28.7201663   3.3945797  92.2059992  31.6774990  90.4169997
  92.3459992  31.0854990  89.6779997  92.3739992  32.5504990  90.0609997
  92.2478734  31.7144041  90.2676937  49.0209992  27.0964990   0.5699997
  49.7219992  27.1194990   1.2219997  49.3229992  26.4684990  -0.0860003
  49.1578202  27.0147223   0.5705591  56.3359992  28.0174990  11.8249997
  55.6839992  28.7114990  11.9139997  56.8009992  28.2274990  11.0149997
  56.3095357  28.1409544  11.7277056  52.3729992  28.8484990   4.4829997
  51.6409992  29.0774990   5.0559997  52.8199992  28.1354990   4.9379997
  52.3332753  28.7833984   4.6229698  52.2699992  27.0234990  13.5509997
  52.3499992  27.7864990  14.1229997  51.6689992  27.3024990  12.8609997
  52.1996547  27.1657468  13.5360029  44.0179992  29.4794990   6.3659997
  43.6879992  29.1084990   5.5479997  44.6059992  28.8084990   6.7129997
  44.0523182  29.3380648   6.3009898  45.3849992  32.9074990   9.0469997
  45.2899992  32.3284990   8.2909997  46.1139992  32.5364990   9.5429997
  45.4706011  32.7780572   9.0106011  44.3849992  28.2474990   9.9989997
  44.9499992  28.3694990   9.2369997  44.7029992  28.8854990  10.6379997
  44.5053619  28.3504388   9.9810019  50.6939992  33.7514990  10.7329997
  50.4529992  34.4134990  11.3809997  50.4959992  32.9164990  11.1579997
  50.6342662  33.7292704  10.8791008  45.2649992  32.6474990  14.7169997
  44.9529992  33.4294990  15.1719997  44.6149992  32.4944990  14.0309997
  45.1344858  32.7337882  14.6865344  51.2439992  28.0114990   2.1689997
  51.8229992  28.1614990   2.9149997  51.6579992  28.4814990   1.4449997
  51.3793358  28.0955966   2.1733935  86.6789992  28.6394990  80.1889997
  85.9669992  29.1744990  79.8379997  87.3699992  28.6944990  79.5289997
  86.6748696  28.7202591  80.0516372  42.1849992  28.8454990  13.9449997
  42.2549992  29.4964990  14.6439997  41.2939992  28.9484990  13.6099997
  42.0741690  28.9484261  13.9953026  48.9699992  34.7474990   5.6039997
  49.4439992  35.0434990   6.3809997  48.4069992  35.4864990   5.3709997
  48.9587890  34.8878047   5.6788084  43.5039992  34.7184990  15.4799997
  43.5119992  34.5824990  14.5329997  42.5879992  34.6014990  15.7319997
  43.3812528  34.6840475  15.3843226  54.9419992  19.7614990   1.9809997
  54.0419992  19.8994990   2.2769997  55.1939992  20.5924990   1.5799997
  54.8527727  19.8928705   1.9672935  43.0079992  28.5484990   3.9549997
  42.7159992  29.3164990   3.4639997  42.3339992  27.8894990   3.7919997
  42.8768843  28.5644537   3.8657695  56.1319992  34.1274990   0.3579997
  56.2049992  35.0664990   0.5279997  57.0369992  33.8224990   0.3019997
  56.2644170  34.2148294   0.3737045  39.1009992  30.9114990  12.7699997
  38.5999992  30.8834990  11.9549997  39.1069992  30.0064990  13.0799997
  39.0331690  30.7852234  12.7002770  38.8519992  33.6924990   9.6539997
  39.7979992  33.5474990   9.6349997  38.7389992  34.4764990  10.1909997
  38.9663578  33.7786708   9.7240300  57.0489992  34.3584990  15.3369997
  56.9999992  33.4024990  15.2989997  56.2229992  34.6254990  15.7379997
  56.9305096  34.2638416  15.3860698  48.0279992  33.9324990  14.2129997
  48.1149992  34.7584990  14.6879997  47.1639992  33.6024990  14.4619997
  47.9231944  34.0009871  14.3116558  94.0479992  28.0174990  88.4829997
  93.3959992  28.7114990  88.5719997  94.5129992  28.2274990  87.6729997
  94.0215357  28.1409544  88.3857056  48.4419992  37.7044990   4.0189997
  48.3669992  37.5834990   3.0719997  48.4749992  38.6534990   4.1369997
  48.4362083  37.8162639   3.9054973  42.0959992  36.4934990   5.7999997
  42.2479992  36.1454990   6.6779997  41.2449992  36.1364990   5.5439997
  42.0018344  36.3975891   5.8856851  51.5439992  36.8584990   1.0209997
  51.9189992  36.1144990   0.5499997  51.5479992  36.5884990   1.9389997
  51.5958969  36.7200920   1.0806475  51.2129992  36.7844990   3.7699997
  50.2779992  36.8844990   3.9489997  51.4929992  36.0744990   4.3489997
  51.1229471  36.7022944   3.8726678  54.2009992  25.8514990  15.8169997
  53.7939992  26.3314990  15.0959997  54.2419992  24.9454990  15.5089997
  54.1508403  25.7947989  15.6767253  41.3499992  32.2354990  13.8129997
  41.5659992  31.8734990  14.6729997  40.4949992  31.8604990  13.6039997
  41.2639082  32.1353377  13.9022396  43.9689992  20.7054990   9.8089997
  43.1069992  20.6184990   9.4009997  43.9469992  21.5614990  10.2369997
  43.8480557  20.8093078   9.8110202  48.6319992  20.4274990  13.1839997
  49.0519992  20.0124990  13.9369997  47.6989992  20.2484990  13.3009997
  48.5633736  20.3464921  13.3028950  51.9579992  24.1824990  14.0369997
  51.4439992  24.0574990  14.8349997  51.8029992  25.0954990  13.7929997
  51.8667802  24.2887433  14.1131504  52.7209992  29.0434990  -0.2020003
  52.7629992  28.8214990  -1.1320003  53.5699992  29.4424990  -0.0120003
  52.8415253  29.0670510  -0.3036196  90.0849992  28.8484990  81.1409997
  89.3529992  29.0774990  81.7139997  90.5319992  28.1354990  81.5959997
  90.0452753  28.7833984  81.2809698  48.2939992  22.9194990   0.4689997
  48.0399992  22.9384990   1.3909997  48.0369992  22.0484990   0.1669997
  48.2244508  22.8043292   0.5544786  44.0599992  25.6704990  10.9039997
  43.4179992  25.6304990  11.6129997  44.0969992  26.5974990  10.6659997
  43.9771659  25.7902540  10.9688463  44.0569992  25.8914990   5.8159997
  43.1639992  25.5514990   5.7569997  44.5079992  25.5144990   5.0599997
  43.9957185  25.7940220   5.7057698  49.5929992  26.3074990   4.6329997
  49.1839992  27.1224990   4.3409997  50.3129992  26.1674990   4.0189997
  49.6344439  26.4000383   4.5100098  48.6949992  26.4834990  16.1209997
  48.1319992  25.7784990  16.4419997  49.5209992  26.3624990  16.5889997
  48.7296674  26.3707176  16.2281734  50.5969992  25.7534990   7.4469997
  50.4019992  26.3594990   6.7319997  50.7789992  24.9204990   7.0129997
  50.5949195  25.7237936   7.2904079  41.8099992  25.9914990  12.7709997
  41.7719992  26.3914990  13.6399997  41.3189992  25.1744990  12.8609997
  41.7384374  25.9358228  12.9020980  45.1759992  23.3654990  -0.4300003
  44.7449992  22.9204990   0.2989997  44.4579992  23.7364990  -0.9430003
  45.0199176  23.3547063  -0.3995087  38.4179992  23.1074990   6.6219997
  39.0489992  23.0784990   7.3409997  38.8679992  22.6824990   5.8909997
  38.5651082  23.0461269   6.6216307  39.6919992  23.8534990   2.0459997
  40.1669992  24.4444990   1.4609997  38.9749992  24.3834990   2.3929997
  39.6600406  24.0061011   2.0128495  89.9819992  27.0234990  90.2089997
  90.0619992  27.7864990  90.7809997  89.3809992  27.3024990  89.5179997
  89.9117115  27.1657707  90.1939631  49.8609992  27.3914990  12.1179997
  50.1849992  26.7604990  11.4749997  49.4209992  26.8574990  12.7789997
  49.8458707  27.2328261  12.1193195  46.6389992  23.3194990   6.9019997
  45.7279992  23.3764990   7.1909997  47.1439992  23.2594990   7.7129997
  46.5826873  23.3191838   7.0511190  41.4669992  24.9484990   5.7289997
  40.5779992  25.0474990   5.3889997  41.7629992  24.1064990   5.3829997
  41.3854001  24.8482473   5.6357318  45.1199992  24.9484990   3.3859997
  46.0519992  25.0774990   3.5639997  44.9049992  25.6174990   2.7359997
  45.2184472  25.0565817   3.3224873  51.0439992  22.5544990  10.1659997
  50.3669992  22.6854990  10.8299997  50.5579992  22.3994990   9.3559997
  50.8857265  22.5514665  10.1473380  43.7939992  26.1424990   0.9519997
  43.2519992  25.7634990   0.2609997  44.6279992  26.3374990   0.5239997
  43.8324390  26.1169091   0.7994374  54.3309992  38.2254990  16.4429997
  54.5309992  38.6494990  15.6089997  54.9869992  38.5694990  17.0499997
  54.4469937  38.3299993  16.4108645  41.9289992  30.6994990  16.0509997
  42.6609992  30.9544990  16.6129997  41.1489992  30.9044990  16.5669997
  41.9236526  30.7620438  16.1975168  47.9589992  26.1064990   8.7889997
  48.5229992  25.5604990   8.2419997  47.8109992  25.5854990   9.5779997
  48.0163037  25.9611798   8.8207212  42.9609992  22.2434990   5.2079997
  42.6429992  21.3404990   5.1719997  43.7419992  22.2454990   4.6549997
  43.0231079  22.1202240   5.1282908  81.7299992  29.4794990  83.0239997
  81.3999992  29.1084990  82.2049997  82.3179992  28.8084990  83.3699997
  81.7644056  29.3381257  82.9589035  46.5849992  24.4954990  11.2029997
  45.7499992  24.9494990  11.3139997  47.1089992  24.7714990  11.9549997
  46.5416072  24.5948960  11.3198118  47.1289992  30.7084990   2.8879997
  46.3839992  30.2004990   2.5659997  46.9949992  30.7574990   3.8339997
  47.0089334  30.6456144   2.9718892  54.2789992  29.8414990  11.6749997
  54.9209992  30.2974990  11.1309997  53.4489992  29.9544990  11.2119997
  54.2546536  29.9191813  11.5379579  51.0269992  23.5224990   1.0869997
  50.0879992  23.6334990   0.9359997  51.3239992  24.3784990   1.3939997
  50.9386136  23.6534977   1.1078568  48.6489992  30.8924990  14.1249997
  48.3029992  30.5104990  14.9319997  48.4489992  31.8254990  14.1959997
  48.5745987  30.9664013  14.2450443  51.7449992  25.3894990   2.7479997
  52.6369992  25.2514990   3.0669997  51.8019992  26.1804990   2.2109997
  51.8747380  25.4774777   2.7190981  42.2539992  30.0034990   8.6579997
  42.9989992  30.0004990   8.0559997  42.3319992  29.1794990   9.1389997
  42.3663366  29.8917395   8.6407412  49.2549992  32.1664990   1.9129997
  48.9599992  32.9934990   2.2949997  48.5519992  31.5474990   2.1099997
  49.1196379  32.1959182   1.9918636  39.2619992  28.4634990  13.9729997
  39.4849992  28.0454990  14.8039997  38.6599992  27.8514990  13.5499997
  39.2111513  28.3234617  14.0296722  46.2789992  27.9804990  16.1859997
  45.9829992  27.8154990  15.2899997  47.2099992  27.7604990  16.1749997
  46.3644401  27.9281891  16.0620189  83.0969992  32.9074990  85.7049997
  83.0019992  32.3284990  84.9479997  83.8259992  32.5364990  86.2009997
  83.1826161  32.7780902  85.6685192  50.8989992  33.3544990  14.0749997
  49.9979992  33.5374990  13.8079997  50.9329992  33.6134990  14.9959997
  50.7803861  33.4145245  14.1629517  56.6299992  25.5984990   2.4429997
  56.0759992  25.2024990   1.7699997  56.7309992  26.5094990   2.1649997
  56.5678589  25.6673904   2.3133839  56.5929992  31.3994990  15.2799997
  55.7419992  31.6374990  14.9119997  57.1839992  31.3824990  14.5259997
  56.5563831  31.4297623  15.1278448  54.9249992  34.3844990   2.9079997
  54.5529992  33.5594990   3.2169997  55.2029992  34.2014990   2.0099997
  54.9115807  34.2467031   2.8290063  52.0859992  29.1924990   9.9289997
  51.1579992  28.9614990   9.9019997  52.5369992  28.4154990   9.5989997
  52.0198165  29.0557785   9.8806772  44.6289992  33.5214990   6.0619997
  45.1559992  34.2944990   5.8619997  43.7489992  33.7454990   5.7599997
  44.5822121  33.6577344   5.9937460  40.3839992  28.3834990   0.6489997
  40.9999992  29.0104990   1.0289997  39.5219992  28.6994990   0.9209997
  40.3517678  28.5119423   0.7377192  46.0559992  31.1844990   5.6379997
  45.8149992  32.1094990   5.6799997  45.3159992  30.7254990   6.0349997
  45.9229463  31.2490969   5.6974279  46.5709992  35.3334990  11.9529997
  46.9339992  36.1874990  11.7199997  47.1029992  35.0414990  12.6939997
  46.6925141  35.4108907  12.0212079  44.7389992  36.2054990   5.1839997
  43.7899992  36.3114990   5.2349997  45.0909992  37.0264990   5.5279997
  44.6565647  36.3310029   5.2374882  82.0969992  28.2474990  86.6569997
  82.6619992  28.3694990  85.8939997  82.4149992  28.8854990  87.2959997
  82.2173430  28.3504448  86.6389094  50.1149992  31.4324990  11.6539997
  49.6889992  31.2044990  12.4799997  50.6959992  30.6934990  11.4719997
  50.1352088  31.3014393  11.7424454  52.3179992  32.3614990   0.7279997
  52.6709992  31.9814990   1.5319997  51.3689992  32.2674990   0.8149997
  52.2380956  32.2967867   0.8498005  52.7739992  35.9844990  14.1229997
  52.1719992  35.4284990  13.6279997  53.0549992  36.6514990  13.4969997
  52.7295757  35.9985755  13.9705657  56.8209992  36.8404990   0.9289997
  57.5649992  37.4264990   0.7889997  56.1269992  37.4094990   1.2619997
  56.8289809  36.9975830   0.9548572  40.8959992  23.2174990  13.5309997
  40.0029992  23.5554990  13.4629997  40.7969992  22.3614990  13.9489997
  40.7604752  23.1480986  13.5781644  53.1839992  31.0334990   2.9549997
  52.9069992  30.3054990   3.5109997  54.1109992  31.1524990   3.1599997
  53.2714419  30.9499436   3.0588264  40.5469992  35.0214990  11.9659997
  40.7639992  34.0894990  11.9349997  40.7939992  35.2964990  12.8489997
  40.6100948  34.9310976  12.0811268  45.3459992  33.0434990   1.6309997
  45.4929992  32.5234990   2.4209997  45.3429992  33.9504990   1.9379997
  45.3657102  33.0948964   1.7805907  41.7989992  30.2954990   2.1419997
  41.1129992  30.6484990   2.7089997  42.3219992  31.0584990   1.8949997
  41.7758402  30.4468912   2.1861783  49.6299992  22.9584990  12.4209997
  50.3289992  23.0324990  13.0709997  49.2499992  22.0934990  12.5749997
  49.6742662  22.8517050  12.5307412  88.4059992  33.7514990  87.3909997
  88.1649992  34.4134990  88.0389997  88.2079992  32.9164990  87.8159997
  88.3462662  33.7292704  87.5371008  50.4149992  22.6104990   3.5179997
  50.6349992  23.0814990   2.7139997  50.9729992  23.0044990   4.1879997
  50.5206044  22.7282946   3.4985207  48.0839992  34.7404990   2.3809997
  47.2669992  35.2374990   2.4329997  48.6129992  35.2164990   1.7399997
  48.0438125  34.8727000   2.3015289  47.6149992  24.3384990   4.3529997
  48.4269992  24.8424990   4.3989997  47.3699992  24.1934990   5.2669997
  47.6931091  24.3879366   4.4828552  48.1509992  25.3244990  13.5369997
  48.2699992  25.8984990  14.2939997  48.8059992  24.6364990  13.6519997
  48.2558684  25.3100205  13.6561656  48.4989992  21.4194990   5.2909997
  48.1519992  22.0364990   5.9349997  49.1569992  21.9204990   4.8089997
  48.5404430  21.5716860   5.3140046  45.4219992  35.7844990   2.3619997
  45.5829992  36.5844990   1.8619997  45.2249992  36.0914990   3.2469997
  45.4173906  35.9353690   2.4132316  44.1559992  22.4824990   1.9779997
  44.0729992  23.3704990   2.3249997  45.0459992  22.2174990   2.2099997
  44.2649331  22.5681177   2.0568067  54.3549992  23.2314990  14.3719997
  53.4389992  23.4934990  14.2849997  54.6909992  23.2284990  13.4759997
  54.2748499  23.2670174  14.2388748  52.9569992  26.9814990   8.4679997
  52.1599992  26.5664990   8.1399997  53.4019992  26.2914990   8.9589997
  52.9080367  26.8313372   8.4894897  42.4149992  32.9094990   1.0379997
  43.0069992  33.6094990   1.3149997  42.8739992  32.4764990   0.3189997
  42.5581652  32.9467686   0.9786515  82.9769992  32.6474990  91.3739997
  82.6649992  33.4294990  91.8299997  82.3269992  32.4944990  90.6879997
  82.8464643  32.7338019  91.3436657  40.7309992  25.5744990   0.1539997
  40.6859992  26.5134990   0.3329997  39.8429992  25.3384990  -0.1150003
  40.6048166  25.6711698   0.1421507  54.0439992  36.2374990  10.0899997
  53.8879992  36.9164990   9.4329997  54.9759992  36.3094990  10.2929997
  54.1487328  36.3401586  10.0275529  41.5389992  20.3554990   8.8269997
  41.3099992  20.4144990   7.8999997  41.0959992  19.5644990   9.1339997
  41.4477387  20.2566412   8.7415223  40.4689992  34.2964990   4.9879997
  39.6369992  34.7684990   5.0149997  41.0149992  34.8064990   4.3889997
  40.4288710  34.4300317   4.9107570  39.7579992  36.9084990  16.3179997
  40.2979992  36.6924990  17.0779997  39.2759992  36.1034990  16.1279997
  39.7668485  36.7700463  16.3964870  44.3549992  35.8284990  17.9379997
  45.1229992  35.3694990  18.2789997  44.3339992  35.6024990  17.0079997
  44.4572135  35.7351680  17.8589473  48.4469992  35.3364990  -0.6870003
  47.8029992  34.7054990  -0.3650003  49.2089992  34.8054990  -0.9180003
  48.4618708  35.1783171  -0.6741539  50.9319992  34.2084990  16.6669997
  50.5809992  33.3514990  16.9099997  51.6579992  34.3504990  17.2739997
  50.9821590  34.1105189  16.7822889  53.0509992  35.1534990  -0.4530003
  53.3339992  34.3584990  -0.0000003  53.7909992  35.3864990  -1.0140003
  53.1897295  35.0762349  -0.4668531  39.6649992  30.7194990  17.2719997
  39.8089992  29.8174990  16.9859997  38.8919992  31.0054990  16.7849997
  39.5802266  30.6346548  17.1670102  88.9559992  28.0114990  78.8259997
  89.5349992  28.1614990  79.5729997  89.3699992  28.4814990  78.1029997
  89.0913122  28.0956288  78.8305024  44.0059992  31.0624990  -0.5950003
  44.0699992  30.2684990  -0.0650003  44.6589992  30.9444990  -1.2850003
  44.1030483  30.9377496  -0.6156593  46.3199992  30.6884990  16.7049997
  45.9919992  30.9594990  15.8479997  46.4719992  29.7474990  16.6169997
  46.2956412  30.5984058  16.5757804  52.0549992  30.6044990  14.0879997
  52.7999992  31.1934990  13.9689997  51.2969992  31.1864990  14.1509997
  52.0545289  30.7637067  14.0802292  40.4969992  27.9194990  16.6919997
  40.9049992  27.0624990  16.5709997  40.2369992  27.9334990  17.6129997
  40.5177082  27.8040596  16.7999469  45.1549992  29.0354990   1.7109997
  44.6959992  28.5514990   2.3959997  45.4099992  28.3664990   1.0749997
  45.1265997  28.8788491   1.7188734  44.4439992  26.9284990  14.0669997
  43.8259992  27.6024990  14.3469997  44.7879992  27.2494990  13.2329997
  44.4058078  27.0642298  13.9926609  46.2259992  27.2784990  -0.0270003
  46.0459992  27.1234990  -0.9540003  47.1759992  27.3864990   0.0179997
  46.3297804  27.2718821  -0.1478034  49.4639992  29.3994990  17.3439997
  50.4169992  29.4834990  17.3169997  49.3039992  28.6874990  17.9629997
  49.5727320  29.3147292  17.4239933  55.6159992  29.6324990  -0.5810003
  55.3429992  29.2084990  -1.3940003  55.6559992  30.5644990  -0.7980003
  55.5840201  29.7003523  -0.7216452  44.7839992  24.2834990  15.1489997
  44.9339992  23.5544990  14.5469997  44.7859992  25.0604990  14.5899997
  44.8047967  24.2887720  14.9910523  79.8969992  28.8454990  90.6029997
  79.9669992  29.4964990  91.3009997  79.0059992  28.9484990  90.2679997
  79.7861802  28.9484769  90.6532231  45.1959992  22.6524990  12.6419997
  45.7319992  23.1044990  11.9899997  44.3439992  22.5444990  12.2189997
  45.1541795  22.6997444  12.4956211  46.7779992  28.0924990  12.8809997
  47.5289992  27.9364990  12.3079997  46.4389992  28.9444990  12.6059997
  46.8349587  28.1863149  12.7654060  51.1939992  25.9074990  17.9099997
  51.3859992  24.9764990  17.7979997  52.0509992  26.3324990  17.8989997
  51.3362176  25.8375090  17.8931757  52.5099992  28.6964990  15.9869997
  52.2289992  29.4054990  15.4089997  53.4529992  28.6234990  15.8359997
  52.5989272  28.7836704  15.8874976  43.2619992  25.4814990  17.0599997
  42.4949992  24.9484990  16.8499997  43.9409992  25.1714990  16.4609997
  43.2488292  25.3666360  16.9502693  46.0019992  20.1094990  13.0729997
  45.9039992  21.0554990  12.9679997  45.2589992  19.7364990  12.5969997
  45.8882123  20.1886811  12.9943204  47.2659992  24.4304990  16.6369997
  47.0299992  24.2114990  17.5379997  46.4829992  24.2234990  16.1269997
  47.1278382  24.3725340  16.6913991  49.9819992  23.5584990  15.7119997
  49.0339992  23.5904990  15.8439997  50.2939992  22.9324990  16.3659997
  49.8945293  23.4782934  15.8184130  51.6159992  22.1924990  17.7169997
  51.5189992  21.2404990  17.7119997  51.2939992  22.4604990  18.5779997
  51.5592468  22.0985896  17.8326192  41.4429992  23.4014990  16.7649997
  41.6539992  22.6954990  16.1549997  41.3309992  22.9644990  17.6089997
  41.4567668  23.2456619  16.7955445  86.6819992  34.7474990  82.2619997
  87.1559992  35.0434990  83.0389997  86.1189992  35.4864990  82.0279997
  86.6708461  34.8878336  82.3367626  46.2239992  19.4034990  15.7439997
  46.9349992  18.7634990  15.7299997  46.1229992  19.6694990  14.8309997
  46.3076858  19.3518591  15.6185501  46.5769992  21.0854990  17.7979997
  46.4459992  20.6104990  16.9779997  45.9779992  21.8304990  17.7429997
  46.4780829  21.1210949  17.6781823  46.1239992  37.9684990   0.9739997
  47.0569992  38.1264990   1.1179997  45.8589992  38.6444990   0.3489997
  46.2159846  38.0814567   0.9092930  39.6919992  32.6054990   0.4569997
  40.6059992  32.6844990   0.7299997  39.6989992  31.9184990  -0.2090003
  39.8180624  32.5234074   0.4043045  38.3409992  37.9984990   5.5339997
  37.6939992  37.5364990   5.0019997  38.6959992  37.3264990   6.1169997
  38.3003741  37.8444785   5.5399157  39.2109992  36.0784990   7.3389997
  38.8769992  35.1984990   7.5109997  39.4329992  36.4244990   8.2039997
  39.1952565  36.0047410   7.4794263  56.7599992  36.8884990  10.3199997
  56.7379992  37.0734990  11.2579997  57.4499992  37.4564990   9.9789997
  56.8503383  36.9907104  10.4024580  56.3229992  36.4554990  13.2409997
  55.8359992  35.7194990  12.8699997  56.8719992  36.0614990  13.9189997
  56.3306101  36.3016267  13.2819034  54.7739992  32.2454990  17.8789997
  53.9079992  32.1404990  18.2739997  55.1499992  33.0034990  18.3259997
  54.7064940  32.3336141  17.9933958  56.0749992  30.5014990   3.3939997
  56.9249992  30.9224990   3.5209997  56.0799992  29.7614990   4.0009997
  56.1921143  30.4591106   3.4934732  81.2159992  34.7184990  92.1379997
  81.2239992  34.5824990  91.1899997  80.2999992  34.6014990  92.3899997
  81.0932512  34.6840663  92.0423179  56.4689992  28.5554990   5.2169997
  55.7429992  28.0754990   5.6149997  57.0499992  28.7604990   5.9489997
  56.4482504  28.5175592   5.3704199  56.2279992  31.3404990  10.1649997
  57.0619992  30.9624990   9.8839997  56.3399992  32.2834990  10.0459997
  56.3571917  31.4162954  10.1104844  54.7139992  34.2184990  12.4719997
  54.0669992  34.5434990  13.0969997  54.1969992  33.7774990  11.7979997
  54.5554112  34.2034133  12.4665272  56.7369992  28.4564990   1.6079997
  56.2159992  28.8124990   0.8899997  56.7039992  29.1314990   2.2869997
  56.6610955  28.5965023   1.6012634  55.0859992  25.6954990   0.1589997
  55.1829992  26.3624990  -0.5210003  54.9459992  24.8804990  -0.3220003
  55.0803407  25.6765670   0.0008312  54.2559992  27.0764990   5.7799997
  54.1059992  26.1314990   5.7599997  53.9019992  27.3574990   6.6239997
  54.1876351  26.9851656   5.8913202  39.2909992  29.1544990   9.7909997
  39.4749992  29.0724990   8.8549997  40.1399992  29.0304990  10.2139997
  39.4310132  29.1265066   9.7201460  55.1119992  29.0464990  15.4189997
  55.6949992  28.3114990  15.6109997  55.6759992  29.8184990  15.4659997
  55.2679781  29.0503156  15.4516146  56.6089992  26.9494990  16.1039997
  55.7449992  26.5704990  15.9379997  57.2129992  26.2104990  16.0289997
  56.5725394  26.7978378  16.0711778  53.9659992  24.6584990   4.2429997
  54.2459992  23.7514990   4.3669997  54.7249992  25.0924990   3.8539997
  54.1069258  24.5930935   4.2073691  80.7199992  28.5484990  80.6129997
  80.4279992  29.3164990  80.1219997  80.0459992  27.8894990  80.4499997
  80.5888843  28.5644537  80.5237695  54.5779992  25.2404990   9.6789997
  55.5109992  25.4524990   9.6439997  54.3429992  25.3414990  10.6009997
  54.6739517  25.2831844   9.7989113  54.6069992  25.9774990  12.4549997
  53.7639992  26.2454990  12.8199997  55.0499992  26.7994990  12.2439997
  54.5514035  26.1253351  12.4764770  38.8879992  24.4244990  15.9309997
  39.8079992  24.3024990  16.1679997  38.4389992  23.6744990  16.3209997
  38.9530500  24.3064576  16.0161016  56.8899992  19.9574990  17.8079997
  57.2399992  19.3034990  17.2019997  57.0369992  20.7944990  17.3679997
  56.9577192  19.9812545  17.6656712  54.5799992  21.9214990   4.2909997
  54.7619992  21.4724990   5.1159997  53.9799992  21.3374990   3.8269997
  54.5238187  21.7810563   4.3412721  40.1099992  22.7374990   8.8229997
  40.5549992  21.9454990   9.1249997  40.5759992  23.4534990   9.2529997
  40.2339718  22.7259546   8.9225247  38.4139992  25.7364990   9.8919997
  38.9059992  25.5154990   9.1009997  38.7759992  26.5764990  10.1729997
  38.5302923  25.8198480   9.8217389  56.4099992  22.0664990  16.1569997
  55.4929992  22.3374990  16.1209997  56.5329992  21.5314990  15.3729997
  56.3010828  22.0312711  16.0460767  56.4459992  21.9894990   0.8189997
  56.8589992  21.2684990   0.3439997  57.1279992  22.6584990   0.8769997
  56.5946060  21.9813741   0.7619233  38.7269992  21.9944990   3.9459997
  37.8019992  22.2024990   3.8169997  39.1809992  22.4784990   3.2559997
  38.6616298  22.0884311   3.8350433  93.8439992  34.1274990  77.0159997
  93.9169992  35.0664990  77.1859997  94.7489992  33.8224990  76.9589997
  93.9764168  34.2148531  77.0315736  53.4979992  36.9784990   5.8919997
  54.1499992  36.6304990   5.2839997  54.0089992  37.4664990   6.5379997
  53.6562872  36.9968248   5.8960964  38.6909992  20.7324990  12.2899997
  38.0259992  20.4864990  12.9329997  38.2479992  21.3544990  11.7129997
  38.5401168  20.7829225  12.2999830  40.8829992  33.9074990  16.4349997
  40.0619992  34.0824990  15.9739997  40.6309992  33.8344990  17.3549997
  40.7365594  33.9215728  16.4963593  43.8369992  34.8814990  12.6929997
  43.4119992  35.6914990  12.4109997  44.7409992  34.9674990  12.3909997
  43.9010706  35.0039557  12.6135836  48.1479992  36.2804990  15.6529997
  48.3329992  35.9474990  16.5309997  48.9949992  36.5904990  15.3309997
  48.2877291  36.2768214  15.7296140  50.4929992  37.5664990  14.8969997
  51.1699992  36.9334990  14.6569997  50.8149992  37.9674990  15.7039997
  50.6291618  37.5341147  14.9732802  55.4109992  20.1564990  13.9759997
  54.5979992  20.4814990  13.5889997  55.6439992  19.3954990  13.4429997
  55.3311347  20.0981891  13.8509824  41.2389992  38.1384990  12.7409997
  40.5179992  38.5784990  12.2899997  40.8729992  37.8874990  13.5889997
  41.0909632  38.1647235  12.7939649  43.7059992  37.7384990  11.7699997
  42.8409992  37.8104990  12.1739997  43.6509992  38.2854990  10.9869997
  43.5802289  37.8223242  11.7193749  48.4169992  37.6264990  10.9459997
  47.9599992  38.1554990  10.2919997  48.5789992  38.2294990  11.6709997
  48.3763919  37.7803990  10.9545740  76.8129992  30.9114990  89.4279997
  76.3119992  30.8834990  88.6129997  76.8189992  30.0064990  89.7379997
  76.7451690  30.7852234  89.3582770  50.7439992  36.5044990  11.8909997
  49.8399992  36.6694990  11.6249997  51.1729992  37.3574990  11.8249997
  50.6782017  36.6424184  11.8456495  53.3479992  38.0744990  12.1859997
  53.1669992  38.9904990  11.9749997  53.5249992  37.6634990  11.3389997
  53.3471377  38.1443365  12.0427178  40.6539992  36.7614990   9.6509997
  40.6349992  36.3354990  10.5079997  41.4579992  36.4424990   9.2419997
  40.7601393  36.6600297   9.7130155  42.7949992  35.4714990   8.3059997
  42.5759992  34.5544990   8.4759997  43.6189992  35.6114990   8.7719997
  42.8764702  35.3650523   8.3922510  45.3319992  35.9414990   9.1549997
  45.5449992  35.0534990   8.8679997  45.3969992  35.9064990  10.1089997
  45.3699149  35.8153338   9.2447351  48.8409992  21.6054990   8.2989997
  48.1659992  20.9754990   8.5549997  49.4049992  21.1214990   7.6959997
  48.8249363  21.4538886   8.2524810  53.9829992  19.7124990   8.4119997
  54.5869992  20.2604990   7.9099997  53.1139992  20.0314990   8.1709997
  53.9480419  19.8305628   8.3107741  55.7099992  20.8514990   6.7449997
  56.3219992  20.3374990   6.2179997  56.0929992  21.7284990   6.7679997
  55.8453867  20.8997613   6.6760888  41.1669992  20.2394990   6.1209997
  40.3899992  20.0044990   5.6139997  41.6979992  19.4424990   6.1299997
  41.1323735  20.0996462   6.0528090  40.0039992  20.0374990   1.9249997
  40.4429992  20.6484990   1.3329997  39.3699992  20.5754990   2.3989997
  39.9783859  20.1939076   1.9080287  76.5639992  33.6924990  86.3119997
  77.5099992  33.5474990  86.2929997  76.4509992  34.4764990  86.8489997
  76.6783578  33.7786708  86.3820300  45.7469992  20.1654990   5.9339997
  46.6209992  20.5544990   5.9049997  45.6109992  19.9504990   6.8569997
  45.8481953  20.1896654   6.0547599  51.3029992  20.1954990   7.5839997
  51.3799992  20.2914990   6.6339997  51.0279992  19.2884990   7.7119997
  51.2763233  20.0859093   7.4713665  52.6569992  20.2214990   3.2759997
  51.9539992  20.8364990   3.0659997  52.2119992  19.3844990   3.4069997
  52.5006550  20.1924679   3.2649819  39.9049992  35.9854990   2.8219997
  39.2199992  35.9474990   2.1549997  39.9079992  36.8974990   3.1099997
  39.8116806  36.1036669   2.7696961  41.8649992  21.9534990   0.3669997
  42.3559992  21.3234990  -0.1600003  42.4879992  22.2494990   1.0299997
  42.0165304  21.9072387   0.3844922  46.8909992  22.2464990   2.8239997
  47.0689992  21.5994990   3.5069997  46.8369992  23.0804990   3.2909997
  46.9080678  22.2706615   2.9806283  48.7689992  37.1944990   1.2199997
  49.6349992  37.5614990   1.0419997  48.5219992  36.7554990   0.4059997
  48.8541853  37.1854021   1.0855813  55.4779992  36.7574990   3.8989997
  55.2839992  36.0094990   3.3339997  55.4389992  37.5154990   3.3159997
  55.4461645  36.7575797   3.7428131  41.1249992  20.7534990  15.6389997
  40.7589992  19.9874990  16.0809997  42.0379992  20.7824990  15.9249997
  41.1983172  20.6525335  15.7381872  43.0979992  20.1034990  17.1739997
  43.9969992  19.8294990  16.9899997  42.7119992  19.3614990  17.6389997
  43.1687307  19.9657207  17.2117080  94.7609992  34.3584990  91.9939997
  94.7119992  33.4024990  91.9569997  93.9349992  34.6254990  92.3959997
  94.6425767  34.2638841  92.0433133  41.7229992  36.9054990  -0.1530003
  41.4549992  37.1914990   0.7209997  42.4939992  36.3594990  -0.0000003
  41.7905926  36.8707790  -0.0128812  51.5189992  19.4364990  17.3569997
  51.5959992  19.0104990  18.2099997  52.4129992  19.4494990  17.0139997
  51.6503263  19.3799345  17.4274366  54.6959992  35.5084990  16.0489997
  53.9139992  35.3224990  15.5289997  54.6239992  36.4384990  16.2659997
  54.5792975  35.6086973  16.0071823  69.1019992  29.3954990   6.0799997
  69.1909992  30.3394990   5.9469997  68.4629992  29.1204990   5.4219997
  69.0278378  29.4873846   5.9729258  68.0349992  28.6504990   9.4989997
  67.9959992  28.0044990  10.2039997  67.7119992  28.1834990   8.7269997
  67.9860469  28.4990005   9.4912803  60.4029992  28.2644990  11.0919997
  60.4439992  27.6394990  11.8149997  61.1059992  28.8884990  11.2739997
  60.5036223  28.2632318  11.2156164  71.7409992  31.5894990   7.7999997
  71.2999992  30.8694990   8.2509997  71.7279992  32.3104990   8.4299997
  71.6789215  31.5884303   7.9468088  61.3269992  32.7144990   9.6269997
  60.9569992  31.9124990   9.2569997  62.2679992  32.5464990   9.6729997
  61.4035984  32.5819649   9.5825586  57.9369992  26.3744990   5.0189997
  57.4889992  27.2204990   5.0009997  57.3759992  25.7954990   4.5039997
  57.7998546  26.4119004   4.9468874  58.6469992  28.5364990   7.1449997
  58.8609992  27.7664990   7.6719997  59.3849992  28.6264990   6.5419997
  58.7760073  28.4433546   7.1355786  85.7399992  33.9324990  90.8699997
  85.8269992  34.7584990  91.3449997  84.8759992  33.6024990  91.1189997
  85.6351944  34.0009871  90.9686558  68.8519992  36.6934990   8.0119997
  69.4719992  36.0174990   7.7389997  68.6439992  36.4754990   8.9209997
  68.9087679  36.5715032   8.0974518  66.4239992  31.0824990   9.9049997
  66.7279992  30.3964990   9.3099997  67.1459992  31.2014990  10.5229997
  66.5631240  31.0047325   9.9070941  75.0869992  22.6844990  10.7649997
  75.1359992  23.2944990  11.5009997  75.5129992  23.1454990  10.0419997
  75.1512851  22.8303266  10.7680532  69.5649992  25.4764990  10.2319997
  69.7069992  24.5304990  10.2519997  69.4589992  25.6834990   9.3039997
  69.5701051  25.3749706  10.1092249  62.7199992  23.5784990   7.5049997
  62.7629992  24.4384990   7.0859997  62.2619992  23.0254990   6.8709997
  62.6640163  23.6214174   7.3620604  70.4419992  23.7094990   5.9049997
  71.0879992  23.3804990   6.5299997  70.9519992  24.2264990   5.2829997
  70.5994289  23.7344333   5.9063681  59.3399992  25.9754990   8.2669997
  59.9939992  25.4254990   8.6989997  59.3639992  25.7014990   7.3499997
  59.4327199  25.8632179   8.2021650  64.4959992  27.5254990   7.4819997
  65.1119992  26.9984990   7.9909997  63.9099992  26.8854990   7.0779997
  64.5010652  27.3668919   7.4970277  75.4789992  24.1624990  13.0009997
  74.7899992  24.8204990  12.9059997  75.4939992  23.9644990  13.9379997
  75.3867756  24.2257614  13.1145795  61.5299992  22.4964990  11.5789997
  61.3109992  23.0264990  10.8119997  60.8619992  22.7224990  12.2259997
  61.4096975  22.5995979  11.5615123  86.1539992  37.7044990  80.6759997
  86.0789992  37.5834990  79.7299997  86.1869992  38.6534990  80.7949997
  86.1481862  37.8162492  80.5624840  68.8989992  31.9964990   5.1229997
  68.6029992  31.6734990   4.2709997  68.5749992  32.8964990   5.1639997
  68.8147458  32.0739678   5.0120598  64.0989992  30.1714990  11.8659997
  63.3589992  30.7704990  11.9699997  64.8129992  30.7254990  11.5499997
  64.0943146  30.3282611  11.8375150  72.2059992  23.0004990   7.8859997
  71.9909992  22.2344990   8.4189997  72.8619992  23.4724990   8.3989997
  72.2652673  22.9595739   8.0281972  61.1239992  24.3884990   9.5309997
  61.7369992  25.0214990   9.9039997  61.6359992  23.9164990   8.8749997
  61.2771933  24.4113380   9.4933477  62.5059992  32.1364990  12.6529997
  62.5009992  33.0154990  12.2749997  61.6529992  32.0524990  13.0779997
  62.3899199  32.2455901  12.6586942  58.6279992  31.8074990   3.4349997
  58.3559992  32.0364990   2.5459997  58.6729992  32.6444990   3.8959997
  58.5968360  31.9521034   3.3756186  72.2529992  33.4284990  10.1479997
  71.3109992  33.4874990  10.3099997  72.5289992  34.3344990  10.0109997
  72.1615865  33.5590299  10.1516174  72.5529992  21.7154990  11.5649997
  71.8169992  22.3254990  11.5279997  73.2369992  22.1304990  11.0389997
  72.5445367  21.8552562  11.4888156  65.5559992  19.8014990   9.0309997
  65.4389992  18.8534990   8.9769997  64.7009992  20.1344990   9.3039997
  65.4243691  19.7165842   9.0605072  70.5049992  35.2094990   6.7729997
  70.9299992  34.5024990   6.2879997  70.8219992  36.0114990   6.3559997
  70.6060266  35.2210201   6.6502461  79.8079992  36.4934990  82.4569997
  79.9599992  36.1454990  83.3359997  78.9569992  36.1364990  82.2019997
  79.7137899  36.3976749  82.5427322  71.6639992  33.1104990   5.2819997
  71.4069992  32.4204990   4.6699997  71.7349992  32.6674990   6.1269997
  71.6384322  32.9561568   5.3125372  73.3499992  31.6774990  13.7589997
  73.4899992  31.0854990  13.0199997  73.5179992  32.5504990  13.4029997
  73.3918734  31.7144041  13.6096937  67.8229992  28.6394990   3.5319997
  67.1109992  29.1744990   3.1799997  68.5139992  28.6944990   2.8719997
  67.8189704  28.7201663   3.3945797  67.8769992  27.0964990   0.5699997
  68.5779992  27.1194990   1.2219997  68.1789992  26.4684990  -0.0860003
  68.0138202  27.0147223   0.5705591  75.1919992  28.0174990  11.8249997
  74.5399992  28.7114990  11.9139997  75.6569992  28.2274990  11.0149997
  75.1655357  28.1409544  11.7277056  71.2289992  28.8484990   4.4829997
  70.4969992  29.0774990   5.0559997  71.6759992  28.1354990   4.9379997
  71.1892753  28.7833984   4.6229698  71.1259992  27.0234990  13.5509997
  71.2059992  27.7864990  14.1229997  70.5249992  27.3024990  12.8609997
  71.0556547  27.1657468  13.5360029  62.8739992  29.4794990   6.3659997
  62.5439992  29.1084990   5.5479997  63.4619992  28.8084990   6.7129997
  62.9083182  29.3380648   6.3009898  64.2409992  32.9074990   9.0469997
  64.1459992  32.3284990   8.2909997  64.9699992  32.5364990   9.5429997
  64.3266011  32.7780572   9.0106011  63.2409992  28.2474990   9.9989997
  63.8059992  28.3694990   9.2369997  63.5589992  28.8854990  10.6379997
  63.3613619  28.3504388   9.9810019  88.9249992  36.7844990  80.4279997
  87.9899992  36.8844990  80.6069997  89.2049992  36.0744990  81.0059997
  88.8349270  36.7022300  80.5305984  69.5499992  33.7514990  10.7329997
  69.3089992  34.4134990  11.3809997  69.3519992  32.9164990  11.1579997
  69.4902662  33.7292704  10.8791008  64.1209992  32.6474990  14.7169997
  63.8089992  33.4294990  15.1719997  63.4709992  32.4944990  14.0309997
  63.9904858  32.7337882  14.6865344  70.0999992  28.0114990   2.1689997
  70.6789992  28.1614990   2.9149997  70.5139992  28.4814990   1.4449997
  70.2353358  28.0955966   2.1733935  61.0409992  28.8454990  13.9449997
  61.1109992  29.4964990  14.6439997  60.1499992  28.9484990  13.6099997
  60.9301690  28.9484261  13.9953026  67.8259992  34.7474990   5.6039997
  68.2999992  35.0434990   6.3809997  67.2629992  35.4864990   5.3709997
  67.8147890  34.8878047   5.6788084  62.3599992  34.7184990  15.4799997
  62.3679992  34.5824990  14.5329997  61.4439992  34.6014990  15.7319997
  62.2372528  34.6840475  15.3843226  73.7979992  19.7614990   1.9809997
  72.8979992  19.8994990   2.2769997  74.0499992  20.5924990   1.5799997
  73.7087727  19.8928705   1.9672935  61.8639992  28.5484990   3.9549997
  61.5719992  29.3164990   3.4639997  61.1899992  27.8894990   3.7919997
  61.7328843  28.5644537   3.8657695  74.9879992  34.1274990   0.3579997
  75.0609992  35.0664990   0.5279997  75.8929992  33.8224990   0.3019997
  75.1204170  34.2148294   0.3737045  57.9569992  30.9114990  12.7699997
  57.4559992  30.8834990  11.9549997  57.9629992  30.0064990  13.0799997
  57.8891690  30.7852234  12.7002770  91.9129992  25.8514990  92.4739997
  91.5059992  26.3314990  91.7539997  91.9539992  24.9454990  92.1669997
  91.8627178  25.7948609  92.3337441  57.7079992  33.6924990   9.6539997
  58.6539992  33.5474990   9.6349997  57.5949992  34.4764990  10.1909997
  57.8223578  33.7786708   9.7240300  75.9049992  34.3584990  15.3369997
  75.8559992  33.4024990  15.2989997  75.0789992  34.6254990  15.7379997
  75.7865096  34.2638416  15.3860698  66.8839992  33.9324990  14.2129997
  66.9709992  34.7584990  14.6879997  66.0199992  33.6024990  14.4619997
  66.7791944  34.0009871  14.3116558  67.2979992  37.7044990   4.0189997
  67.2229992  37.5834990   3.0719997  67.3309992  38.6534990   4.1369997
  67.2922083  37.8162639   3.9054973  60.9519992  36.4934990   5.7999997
  61.1039992  36.1454990   6.6779997  60.1009992  36.1364990   5.5439997
  60.8578344  36.3975891   5.8856851  70.3999992  36.8584990   1.0209997
  70.7749992  36.1144990   0.5499997  70.4039992  36.5884990   1.9389997
  70.4518969  36.7200920   1.0806475  70.0689992  36.7844990   3.7699997
  69.1339992  36.8844990   3.9489997  70.3489992  36.0744990   4.3489997
  69.9789471  36.7022944   3.8726678  73.0569992  25.8514990  15.8169997
  72.6499992  26.3314990  15.0959997  73.0979992  24.9454990  15.5089997
  73.0068403  25.7947989  15.6767253  60.2059992  32.2354990  13.8129997
  60.4219992  31.8734990  14.6729997  59.3509992  31.8604990  13.6039997
  60.1199082  32.1353377  13.9022396  62.8249992  20.7054990   9.8089997
  61.9629992  20.6184990   9.4009997  62.8029992  21.5614990  10.2369997
  62.7040557  20.8093078   9.8110202  79.0619992  32.2354990  90.4709997
  79.2779992  31.8734990  91.3309997  78.2069992  31.8604990  90.2609997
  78.9759349  32.1352914  90.5602134  67.4879992  20.4274990  13.1839997
  67.9079992  20.0124990  13.9369997  66.5549992  20.2484990  13.3009997
  67.4193736  20.3464921  13.3028950  70.8139992  24.1824990  14.0369997
  70.2999992  24.0574990  14.8349997  70.6589992  25.0954990  13.7929997
  70.7227802  24.2887433  14.1131504  71.5769992  29.0434990  -0.2020003
  71.6189992  28.8214990  -1.1320003  72.4259992  29.4424990  -0.0120003
  71.6975253  29.0670510  -0.3036196  67.1499992  22.9194990   0.4689997
  66.8959992  22.9384990   1.3909997  66.8929992  22.0484990   0.1669997
  67.0804508  22.8043292   0.5544786  62.9159992  25.6704990  10.9039997
  62.2739992  25.6304990  11.6129997  62.9529992  26.5974990  10.6659997
  62.8331659  25.7902540  10.9688463  62.9129992  25.8914990   5.8159997
  62.0199992  25.5514990   5.7569997  63.3639992  25.5144990   5.0599997
  62.8517185  25.7940220   5.7057698  68.4489992  26.3074990   4.6329997
  68.0399992  27.1224990   4.3409997  69.1689992  26.1674990   4.0189997
  68.4904439  26.4000383   4.5100098  67.5509992  26.4834990  16.1209997
  66.9879992  25.7784990  16.4419997  68.3769992  26.3624990  16.5889997
  67.5856674  26.3707176  16.2281734  69.4529992  25.7534990   7.4469997
  69.2579992  26.3594990   6.7319997  69.6349992  24.9204990   7.0129997
  69.4509195  25.7237936   7.2904079  60.6659992  25.9914990  12.7709997
  60.6279992  26.3914990  13.6399997  60.1749992  25.1744990  12.8609997
  60.5944374  25.9358228  12.9020980  81.6809992  20.7054990  86.4669997
  80.8189992  20.6184990  86.0589997  81.6589992  21.5614990  86.8939997
  81.5600953  20.8093558  86.4689262  64.0319992  23.3654990  -0.4300003
  63.6009992  22.9204990   0.2989997  63.3139992  23.7364990  -0.9430003
  63.8759176  23.3547063  -0.3995087  57.2739992  23.1074990   6.6219997
  57.9049992  23.0784990   7.3409997  57.7239992  22.6824990   5.8909997
  57.4211082  23.0461269   6.6216307  58.5479992  23.8534990   2.0459997
  59.0229992  24.4444990   1.4609997  57.8309992  24.3834990   2.3929997
  58.5160406  24.0061011   2.0128495  68.7169992  27.3914990  12.1179997
  69.0409992  26.7604990  11.4749997  68.2769992  26.8574990  12.7789997
  68.7018707  27.2328261  12.1193195  65.4949992  23.3194990   6.9019997
  64.5839992  23.3764990   7.1909997  65.9999992  23.2594990   7.7129997
  65.4386873  23.3191838   7.0511190  60.3229992  24.9484990   5.7289997
  59.4339992  25.0474990   5.3889997  60.6189992  24.1064990   5.3829997
  60.2414001  24.8482473   5.6357318  63.9759992  24.9484990   3.3859997
  64.9079992  25.0774990   3.5639997  63.7609992  25.6174990   2.7359997
  64.0744472  25.0565817   3.3224873  69.8999992  22.5544990  10.1659997
  69.2229992  22.6854990  10.8299997  69.4139992  22.3994990   9.3559997
  69.7417265  22.5514665  10.1473380  62.6499992  26.1424990   0.9519997
  62.1079992  25.7634990   0.2609997  63.4839992  26.3374990   0.5239997
  62.6884390  26.1169091   0.7994374  73.1869992  38.2254990  16.4429997
  73.3869992  38.6494990  15.6089997  73.8429992  38.5694990  17.0499997
  73.3029937  38.3299993  16.4108645  86.3439992  20.4274990  89.8409997
  86.7639992  20.0124990  90.5939997  85.4109992  20.2484990  89.9579997
  86.2753736  20.3464921  89.9598950  60.7849992  30.6994990  16.0509997
  61.5169992  30.9544990  16.6129997  60.0049992  30.9044990  16.5669997
  60.7796526  30.7620438  16.1975168  66.8149992  26.1064990   8.7889997
  67.3789992  25.5604990   8.2419997  66.6669992  25.5854990   9.5779997
  66.8723037  25.9611798   8.8207212  61.8169992  22.2434990   5.2079997
  61.4989992  21.3404990   5.1719997  62.5979992  22.2454990   4.6549997
  61.8791079  22.1202240   5.1282908  65.4409992  24.4954990  11.2029997
  64.6059992  24.9494990  11.3139997  65.9649992  24.7714990  11.9549997
  65.3976072  24.5948960  11.3198118  65.9849992  30.7084990   2.8879997
  65.2399992  30.2004990   2.5659997  65.8509992  30.7574990   3.8339997
  65.8649334  30.6456144   2.9718892  73.1349992  29.8414990  11.6749997
  73.7769992  30.2974990  11.1309997  72.3049992  29.9544990  11.2119997
  73.1106536  29.9191813  11.5379579  69.8829992  23.5224990   1.0869997
  68.9439992  23.6334990   0.9359997  70.1799992  24.3784990   1.3939997
  69.7946136  23.6534977   1.1078568  67.5049992  30.8924990  14.1249997
  67.1589992  30.5104990  14.9319997  67.3049992  31.8254990  14.1959997
  67.4305987  30.9664013  14.2450443  70.6009992  25.3894990   2.7479997
  71.4929992  25.2514990   3.0669997  70.6579992  26.1804990   2.2109997
  70.7307380  25.4774777   2.7190981  61.1099992  30.0034990   8.6579997
  61.8549992  30.0004990   8.0559997  61.1879992  29.1794990   9.1389997
  61.2223365  29.8917395   8.6407412  89.6699992  24.1824990  90.6949997
  89.1559992  24.0574990  91.4919997  89.5149992  25.0954990  90.4499997
  89.5786643  24.2887068  90.7710624  68.1109992  32.1664990   1.9129997
  67.8159992  32.9934990   2.2949997  67.4079992  31.5474990   2.1099997
  67.9756379  32.1959182   1.9918636  58.1179992  28.4634990  13.9729997
  58.3409992  28.0454990  14.8039997  57.5159992  27.8514990  13.5499997
  58.0671513  28.3234617  14.0296722  65.1349992  27.9804990  16.1859997
  64.8389992  27.8154990  15.2899997  66.0659992  27.7604990  16.1749997
  65.2204401  27.9281891  16.0620189  69.7549992  33.3544990  14.0749997
  68.8539992  33.5374990  13.8079997  69.7889992  33.6134990  14.9959997
  69.6363861  33.4145245  14.1629517  75.4859992  25.5984990   2.4429997
  74.9319992  25.2024990   1.7699997  75.5869992  26.5094990   2.1649997
  75.4238589  25.6673904   2.3133839  75.4489992  31.3994990  15.2799997
  74.5979992  31.6374990  14.9119997  76.0399992  31.3824990  14.5259997
  75.4123831  31.4297623  15.1278448  73.7809992  34.3844990   2.9079997
  73.4089992  33.5594990   3.2169997  74.0589992  34.2014990   2.0099997
  73.7675807  34.2467031   2.8290063  70.9419992  29.1924990   9.9289997
  70.0139992  28.9614990   9.9019997  71.3929992  28.4154990   9.5989997
  70.8758165  29.0557785   9.8806772  63.4849992  33.5214990   6.0619997
  64.0119992  34.2944990   5.8619997  62.6049992  33.7454990   5.7599997
  63.4382121  33.6577344   5.9937460  59.2399992  28.3834990   0.6489997
  59.8559992  29.0104990   1.0289997  58.3779992  28.6994990   0.9209997
  59.2077678  28.5119423   0.7377192  90.4329992  29.0434990  76.4559997
  90.4749992  28.8214990  75.5259997  91.2819992  29.4424990  76.6459997
  90.5535253  29.0670510  76.3543804  64.9119992  31.1844990   5.6379997
  64.6709992  32.1094990   5.6799997  64.1719992  30.7254990   6.0349997
  64.7789463  31.2490969   5.6974279  65.4269992  35.3334990  11.9529997
  65.7899992  36.1874990  11.7199997  65.9589992  35.0414990  12.6939997
  65.5485141  35.4108907  12.0212079  63.5949992  36.2054990   5.1839997
  62.6459992  36.3114990   5.2349997  63.9469992  37.0264990   5.5279997
  63.5125647  36.3310029   5.2374882  68.9709992  31.4324990  11.6539997
  68.5449992  31.2044990  12.4799997  69.5519992  30.6934990  11.4719997
  68.9912088  31.3014393  11.7424454  71.1739992  32.3614990   0.7279997
  71.5269992  31.9814990   1.5319997  70.2249992  32.2674990   0.8149997
  71.0940956  32.2967867   0.8498005  71.6299992  35.9844990  14.1229997
  71.0279992  35.4284990  13.6279997  71.9109992  36.6514990  13.4969997
  71.5855757  35.9985755  13.9705657  75.6769992  36.8404990   0.9289997
  76.4209992  37.4264990   0.7889997  74.9829992  37.4094990   1.2619997
  75.6849809  36.9975830   0.9548572  59.7519992  23.2174990  13.5309997
  58.8589992  23.5554990  13.4629997  59.6529992  22.3614990  13.9489997
  59.6164752  23.1480986  13.5781644  72.0399992  31.0334990   2.9549997
  71.7629992  30.3054990   3.5109997  72.9669992  31.1524990   3.1599997
  72.1274419  30.9499436   3.0588264  59.4029992  35.0214990  11.9659997
  59.6199992  34.0894990  11.9349997  59.6499992  35.2964990  12.8489997
  59.4660948  34.9310976  12.0811268  81.7719992  25.6704990  87.5619997
  81.1299992  25.6304990  88.2709997  81.8089992  26.5974990  87.3239997
  81.6891659  25.7902540  87.6268463  64.2019992  33.0434990   1.6309997
  64.3489992  32.5234990   2.4209997  64.1989992  33.9504990   1.9379997
  64.2217102  33.0948964   1.7805907  60.6549992  30.2954990   2.1419997
  59.9689992  30.6484990   2.7089997  61.1779992  31.0584990   1.8949997
  60.6318402  30.4468912   2.1861783  68.4859992  22.9584990  12.4209997
  69.1849992  23.0324990  13.0709997  68.1059992  22.0934990  12.5749997
  68.5302662  22.8517050  12.5307412  69.2709992  22.6104990   3.5179997
  69.4909992  23.0814990   2.7139997  69.8289992  23.0044990   4.1879997
  69.3766044  22.7282946   3.4985207  66.9399992  34.7404990   2.3809997
  66.1229992  35.2374990   2.4329997  67.4689992  35.2164990   1.7399997
  66.8998125  34.8727000   2.3015289  66.4709992  24.3384990   4.3529997
  67.2829992  24.8424990   4.3989997  66.2259992  24.1934990   5.2669997
  66.5491091  24.3879366   4.4828552  67.0069992  25.3244990  13.5369997
  67.1259992  25.8984990  14.2939997  67.6619992  24.6364990  13.6519997
  67.1118684  25.3100205  13.6561656  67.3549992  21.4194990   5.2909997
  67.0079992  22.0364990   5.9349997  68.0129992  21.9204990   4.8089997
  67.3964430  21.5716860   5.3140046  64.2779992  35.7844990   2.3619997
  64.4389992  36.5844990   1.8619997  64.0809992  36.0914990   3.2469997
  64.2733906  35.9353690   2.4132316  63.0119992  22.4824990   1.9779997
  62.9289992  23.3704990   2.3249997  63.9019992  22.2174990   2.2099997
  63.1209331  22.5681177   2.0568067  81.7689992  25.8914990  82.4739997
  80.8759992  25.5514990  82.4149997  82.2199992  25.5144990  81.7179997
  81.7077185  25.7940220  82.3637698  73.2109992  23.2314990  14.3719997
  72.2949992  23.4934990  14.2849997  73.5469992  23.2284990  13.4759997
  73.1308499  23.2670174  14.2388748  71.8129992  26.9814990   8.4679997
  71.0159992  26.5664990   8.1399997  72.2579992  26.2914990   8.9589997
  71.7640367  26.8313372   8.4894897  61.2709992  32.9094990   1.0379997
  61.8629992  33.6094990   1.3149997  61.7299992  32.4764990   0.3189997
  61.4141652  32.9467686   0.9786515  59.5869992  25.5744990   0.1539997
  59.5419992  26.5134990   0.3329997  58.6989992  25.3384990  -0.1150003
  59.4608166  25.6711698   0.1421507  72.8999992  36.2374990  10.0899997
  72.7439992  36.9164990   9.4329997  73.8319992  36.3094990  10.2929997
  73.0047328  36.3401586  10.0275529  60.3949992  20.3554990   8.8269997
  60.1659992  20.4144990   7.8999997  59.9519992  19.5644990   9.1339997
  60.3037387  20.2566412   8.7415223  59.3249992  34.2964990   4.9879997
  58.4929992  34.7684990   5.0149997  59.8709992  34.8064990   4.3889997
  59.2848710  34.4300317   4.9107570  58.6139992  36.9084990  16.3179997
  59.1539992  36.6924990  17.0779997  58.1319992  36.1034990  16.1279997
  58.6228485  36.7700463  16.3964870  63.2109992  35.8284990  17.9379997
  63.9789992  35.3694990  18.2789997  63.1899992  35.6024990  17.0079997
  63.3132135  35.7351680  17.8589473  67.3029992  35.3364990  -0.6870003
  66.6589992  34.7054990  -0.3650003  68.0649992  34.8054990  -0.9180003
  67.3178708  35.1783171  -0.6741539  87.3049992  26.3074990  81.2909997
  86.8959992  27.1224990  80.9989997  88.0249992  26.1674990  80.6759997
  87.3463946  26.3999963  81.1679616  69.7879992  34.2084990  16.6669997
  69.4369992  33.3514990  16.9099997  70.5139992  34.3504990  17.2739997
  69.8381590  34.1105189  16.7822889  71.9069992  35.1534990  -0.4530003
  72.1899992  34.3584990  -0.0000003  72.6469992  35.3864990  -1.0140003
  72.0457295  35.0762349  -0.4668531  58.5209992  30.7194990  17.2719997
  58.6649992  29.8174990  16.9859997  57.7479992  31.0054990  16.7849997
  58.4362266  30.6346548  17.1670102  62.8619992  31.0624990  -0.5950003
  62.9259992  30.2684990  -0.0650003  63.5149992  30.9444990  -1.2850003
  62.9590483  30.9377496  -0.6156593  65.1759992  30.6884990  16.7049997
  64.8479992  30.9594990  15.8479997  65.3279992  29.7474990  16.6169997
  65.1516412  30.5984058  16.5757804  70.9109992  30.6044990  14.0879997
  71.6559992  31.1934990  13.9689997  70.1529992  31.1864990  14.1509997
  70.9105289  30.7637067  14.0802292  59.3529992  27.9194990  16.6919997
  59.7609992  27.0624990  16.5709997  59.0929992  27.9334990  17.6129997
  59.3737082  27.8040596  16.7999469  64.0109992  29.0354990   1.7109997
  63.5519992  28.5514990   2.3959997  64.2659992  28.3664990   1.0749997
  63.9825997  28.8788491   1.7188734  63.2999992  26.9284990  14.0669997
  62.6819992  27.6024990  14.3469997  63.6439992  27.2494990  13.2329997
  63.2618078  27.0642298  13.9926609  65.0819992  27.2784990  -0.0270003
  64.9019992  27.1234990  -0.9540003  66.0319992  27.3864990   0.0179997
  65.1857804  27.2718821  -0.1478034  86.4069992  26.4834990  92.7789997
  85.8439992  25.7784990  93.0989997  87.2329992  26.3624990  93.2459997
  86.4416423  26.3705614  92.8860168  68.3199992  29.3994990  17.3439997
  69.2729992  29.4834990  17.3169997  68.1599992  28.6874990  17.9629997
  68.4287320  29.3147292  17.4239933  74.4719992  29.6324990  -0.5810003
  74.1989992  29.2084990  -1.3940003  74.5119992  30.5644990  -0.7980003
  74.4400201  29.7003523  -0.7216452  63.6399992  24.2834990  15.1489997
  63.7899992  23.5544990  14.5469997  63.6419992  25.0604990  14.5899997
  63.6607967  24.2887720  14.9910523  64.0519992  22.6524990  12.6419997
  64.5879992  23.1044990  11.9899997  63.1999992  22.5444990  12.2189997
  64.0101795  22.6997444  12.4956211  65.6339992  28.0924990  12.8809997
  66.3849992  27.9364990  12.3079997  65.2949992  28.9444990  12.6059997
  65.6909587  28.1863149  12.7654060  70.0499992  25.9074990  17.9099997
  70.2419992  24.9764990  17.7979997  70.9069992  26.3324990  17.8989997
  70.1922176  25.8375090  17.8931757  71.3659992  28.6964990  15.9869997
  71.0849992  29.4054990  15.4089997  72.3089992  28.6234990  15.8359997
  71.4549272  28.7836704  15.8874976  62.1179992  25.4814990  17.0599997
  61.3509992  24.9484990  16.8499997  62.7969992  25.1714990  16.4609997
  62.1048292  25.3666360  16.9502693  64.8579992  20.1094990  13.0729997
  64.7599992  21.0554990  12.9679997  64.1149992  19.7364990  12.5969997
  64.7442123  20.1886811  12.9943204  66.1219992  24.4304990  16.6369997
  65.8859992  24.2114990  17.5379997  65.3389992  24.2234990  16.1269997
  65.9838382  24.3725340  16.6913991  88.3089992  25.7534990  84.1049997
  88.1139992  26.3594990  83.3899997  88.4909992  24.9204990  83.6699997
  88.3069272  25.7237955  83.9484075  68.8379992  23.5584990  15.7119997
  67.8899992  23.5904990  15.8439997  69.1499992  22.9324990  16.3659997
  68.7505293  23.4782934  15.8184130  70.4719992  22.1924990  17.7169997
  70.3749992  21.2404990  17.7119997  70.1499992  22.4604990  18.5779997
  70.4152468  22.0985896  17.8326192  60.2989992  23.4014990  16.7649997
  60.5099992  22.6954990  16.1549997  60.1869992  22.9644990  17.6089997
  60.3127668  23.2456619  16.7955445  65.0799992  19.4034990  15.7439997
  65.7909992  18.7634990  15.7299997  64.9789992  19.6694990  14.8309997
  65.1636858  19.3518591  15.6185501  65.4329992  21.0854990  17.7979997
  65.3019992  20.6104990  16.9779997  64.8339992  21.8304990  17.7429997
  65.3340829  21.1210949  17.6781823  64.9799992  37.9684990   0.9739997
  65.9129992  38.1264990   1.1179997  64.7149992  38.6444990   0.3489997
  65.0719846  38.0814567   0.9092930  58.5479992  32.6054990   0.4569997
  59.4619992  32.6844990   0.7299997  58.5549992  31.9184990  -0.2090003
  58.6740624  32.5234074   0.4043045  57.1969992  37.9984990   5.5339997
  56.5499992  37.5364990   5.0019997  57.5519992  37.3264990   6.1169997
  57.1563741  37.8444785   5.5399157  58.0669992  36.0784990   7.3389997
  57.7329992  35.1984990   7.5109997  58.2889992  36.4244990   8.2039997
  58.0512565  36.0047410   7.4794263  75.6159992  36.8884990  10.3199997
  75.5939992  37.0734990  11.2579997  76.3059992  37.4564990   9.9789997
  75.7063383  36.9907104  10.4024580  79.5219992  25.9914990  89.4289997
  79.4839992  26.3914990  90.2969997  79.0309992  25.1744990  89.5189997
  79.4504246  25.9358842  89.5601171  75.1789992  36.4554990  13.2409997
  74.6919992  35.7194990  12.8699997  75.7279992  36.0614990  13.9189997
  75.1866101  36.3016267  13.2819034  73.6299992  32.2454990  17.8789997
  72.7639992  32.1404990  18.2739997  74.0059992  33.0034990  18.3259997
  73.5624940  32.3336141  17.9933958  74.9309992  30.5014990   3.3939997
  75.7809992  30.9224990   3.5209997  74.9359992  29.7614990   4.0009997
  75.0481143  30.4591106   3.4934732  75.3249992  28.5554990   5.2169997
  74.5989992  28.0754990   5.6149997  75.9059992  28.7604990   5.9489997
  75.3042504  28.5175592   5.3704199  75.0839992  31.3404990  10.1649997
  75.9179992  30.9624990   9.8839997  75.1959992  32.2834990  10.0459997
  75.2131917  31.4162954  10.1104844  73.5699992  34.2184990  12.4719997
  72.9229992  34.5434990  13.0969997  73.0529992  33.7774990  11.7979997
  73.4114112  34.2034133  12.4665272  75.5929992  28.4564990   1.6079997
  75.0719992  28.8124990   0.8899997  75.5599992  29.1314990   2.2869997
  75.5170955  28.5965023   1.6012634  73.9419992  25.6954990   0.1589997
  74.0389992  26.3624990  -0.5210003  73.8019992  24.8804990  -0.3220003
  73.9363407  25.6765670   0.0008312  73.1119992  27.0764990   5.7799997
  72.9619992  26.1314990   5.7599997  72.7579992  27.3574990   6.6239997
  73.0436351  26.9851656   5.8913202  58.1469992  29.1544990   9.7909997
  58.3309992  29.0724990   8.8549997  58.9959992  29.0304990  10.2139997
  58.2870132  29.1265066   9.7201460  76.1299992  23.1074990  83.2789997
  76.7609992  23.0784990  83.9989997  76.5799992  22.6824990  82.5489997
  76.2770905  23.0460839  83.2787479  73.9679992  29.0464990  15.4189997
  74.5509992  28.3114990  15.6109997  74.5319992  29.8184990  15.4659997
  74.1239781  29.0503156  15.4516146  75.4649992  26.9494990  16.1039997
  74.6009992  26.5704990  15.9379997  76.0689992  26.2104990  16.0289997
  75.4285394  26.7978378  16.0711778  72.8219992  24.6584990   4.2429997
  73.1019992  23.7514990   4.3669997  73.5809992  25.0924990   3.8539997
  72.9629258  24.5930935   4.2073691  73.4339992  25.2404990   9.6789997
  74.3669992  25.4524990   9.6439997  73.1989992  25.3414990  10.6009997
  73.5299517  25.2831844   9.7989113  73.4629992  25.9774990  12.4549997
  72.6199992  26.2454990  12.8199997  73.9059992  26.7994990  12.2439997
  73.4074035  26.1253351  12.4764770  57.7439992  24.4244990  15.9309997
  58.6639992  24.3024990  16.1679997  57.2949992  23.6744990  16.3209997
  57.8090500  24.3064576  16.0161016  75.7459992  19.9574990  17.8079997
  76.0959992  19.3034990  17.2019997  75.8929992  20.7944990  17.3679997
  75.8137192  19.9812545  17.6656712  73.4359992  21.9214990   4.2909997
  73.6179992  21.4724990   5.1159997  72.8359992  21.3374990   3.8269997
  73.3798187  21.7810563   4.3412721  58.9659992  22.7374990   8.8229997
  59.4109992  21.9454990   9.1249997  59.4319992  23.4534990   9.2529997
  59.0899718  22.7259546   8.9225247  57.2699992  25.7364990   9.8919997
  57.7619992  25.5154990   9.1009997  57.6319992  26.5764990  10.1729997
  57.3862923  25.8198480   9.8217389  77.4039992  23.8534990  78.7029997
  77.8789992  24.4444990  78.1179997  76.6869992  24.3834990  79.0499997
  77.3720406  24.0061011  78.6698495  75.2659992  22.0664990  16.1569997
  74.3489992  22.3374990  16.1209997  75.3889992  21.5314990  15.3729997
  75.1570828  22.0312711  16.0460767  75.3019992  21.9894990   0.8189997
  75.7149992  21.2684990   0.3439997  75.9839992  22.6584990   0.8769997
  75.4506060  21.9813741   0.7619233  57.5829992  21.9944990   3.9459997
  56.6579992  22.2024990   3.8169997  58.0369992  22.4784990   3.2559997
  57.5176298  22.0884311   3.8350433  72.3539992  36.9784990   5.8919997
  73.0059992  36.6304990   5.2839997  72.8649992  37.4664990   6.5379997
  72.5122872  36.9968248   5.8960964  57.5469992  20.7324990  12.2899997
  56.8819992  20.4864990  12.9329997  57.1039992  21.3544990  11.7129997
  57.3961168  20.7829225  12.2999830  59.7389992  33.9074990  16.4349997
  58.9179992  34.0824990  15.9739997  59.4869992  33.8344990  17.3549997
  59.5925594  33.9215728  16.4963593  62.6929992  34.8814990  12.6929997
  62.2679992  35.6914990  12.4109997  63.5969992  34.9674990  12.3909997
  62.7570706  35.0039557  12.6135836  67.0039992  36.2804990  15.6529997
  67.1889992  35.9474990  16.5309997  67.8509992  36.5904990  15.3309997
  67.1437291  36.2768214  15.7296140  69.3489992  37.5664990  14.8969997
  70.0259992  36.9334990  14.6569997  69.6709992  37.9674990  15.7039997
  69.4851618  37.5341147  14.9732802  74.2669992  20.1564990  13.9759997
  73.4539992  20.4814990  13.5889997  74.4999992  19.3954990  13.4429997
  74.1871347  20.0981891  13.8509824  87.5729992  27.3914990  88.7759997
  87.8969992  26.7604990  88.1329997  87.1329992  26.8574990  89.4369997
  87.5578707  27.2328261  88.7773195  60.0949992  38.1384990  12.7409997
  59.3739992  38.5784990  12.2899997  59.7289992  37.8874990  13.5889997
  59.9469632  38.1647235  12.7939649  62.5619992  37.7384990  11.7699997
  61.6969992  37.8104990  12.1739997  62.5069992  38.2854990  10.9869997
  62.4362289  37.8223242  11.7193749  67.2729992  37.6264990  10.9459997
  66.8159992  38.1554990  10.2919997  67.4349992  38.2294990  11.6709997
  67.2323919  37.7803990  10.9545740  69.5999992  36.5044990  11.8909997
  68.6959992  36.6694990  11.6249997  70.0289992  37.3574990  11.8249997
  69.5342017  36.6424184  11.8456495  72.2039992  38.0744990  12.1859997
  72.0229992  38.9904990  11.9749997  72.3809992  37.6634990  11.3389997
  72.2031377  38.1443365  12.0427178  59.5099992  36.7614990   9.6509997
  59.4909992  36.3354990  10.5079997  60.3139992  36.4424990   9.2419997
  59.6161393  36.6600297   9.7130155  61.6509992  35.4714990   8.3059997
  61.4319992  34.5544990   8.4759997  62.4749992  35.6114990   8.7719997
  61.7324702  35.3650523   8.3922510  64.1879992  35.9414990   9.1549997
  64.4009992  35.0534990   8.8679997  64.2529992  35.9064990  10.1089997
  64.2259149  35.8153338   9.2447351  67.6969992  21.6054990   8.2989997
  67.0219992  20.9754990   8.5549997  68.2609992  21.1214990   7.6959997
  67.6809363  21.4538886   8.2524810  72.8389992  19.7124990   8.4119997
  73.4429992  20.2604990   7.9099997  71.9699992  20.0314990   8.1709997
  72.8040419  19.8305628   8.3107741  84.3509992  23.3194990  83.5599997
  83.4399992  23.3764990  83.8489997  84.8559992  23.2594990  84.3709997
  84.2946873  23.3191838  83.7091190  74.5659992  20.8514990   6.7449997
  75.1779992  20.3374990   6.2179997  74.9489992  21.7284990   6.7679997
  74.7013867  20.8997613   6.6760888  60.0229992  20.2394990   6.1209997
  59.2459992  20.0044990   5.6139997  60.5539992  19.4424990   6.1299997
  59.9883735  20.0996462   6.0528090  58.8599992  20.0374990   1.9249997
  59.2989992  20.6484990   1.3329997  58.2259992  20.5754990   2.3989997
  58.8343859  20.1939076   1.9080287  64.6029992  20.1654990   5.9339997
  65.4769992  20.5544990   5.9049997  64.4669992  19.9504990   6.8569997
  64.7041953  20.1896654   6.0547599  70.1589992  20.1954990   7.5839997
  70.2359992  20.2914990   6.6339997  69.8839992  19.2884990   7.7119997
  70.1323233  20.0859093   7.4713665  71.5129992  20.2214990   3.2759997
  70.8099992  20.8364990   3.0659997  71.0679992  19.3844990   3.4069997
  71.3566550  20.1924679   3.2649819  58.7609992  35.9854990   2.8219997
  58.0759992  35.9474990   2.1549997  58.7639992  36.8974990   3.1099997
  58.6676806  36.1036669   2.7696961  60.7209992  21.9534990   0.3669997
  61.2119992  21.3234990  -0.1600003  61.3439992  22.2494990   1.0299997
  60.8725304  21.9072387   0.3844922  65.7469992  22.2464990   2.8239997
  65.9249992  21.5994990   3.5069997  65.6929992  23.0804990   3.2909997
  65.7640678  22.2706615   2.9806283  67.6249992  37.1944990   1.2199997
  68.4909992  37.5614990   1.0419997  67.3779992  36.7554990   0.4059997
  67.7101853  37.1854021   1.0855813  79.1789992  24.9484990  82.3869997
  78.2899992  25.0474990  82.0469997  79.4749992  24.1064990  82.0409997
  79.0974001  24.8482473  82.2937318  74.3339992  36.7574990   3.8989997
  74.1399992  36.0094990   3.3339997  74.2949992  37.5154990   3.3159997
  74.3021645  36.7575797   3.7428131  59.9809992  20.7534990  15.6389997
  59.6149992  19.9874990  16.0809997  60.8939992  20.7824990  15.9249997
  60.0543172  20.6525335  15.7381872  61.9539992  20.1034990  17.1739997
  62.8529992  19.8294990  16.9899997  61.5679992  19.3614990  17.6389997
  62.0247307  19.9657207  17.2117080  60.5789992  36.9054990  -0.1530003
  60.3109992  37.1914990   0.7209997  61.3499992  36.3594990  -0.0000003
  60.6465926  36.8707790  -0.0128812  70.3749992  19.4364990  17.3569997
  70.4519992  19.0104990  18.2099997  71.2689992  19.4494990  17.0139997
  70.5063263  19.3799345  17.4274366  73.5519992  35.5084990  16.0489997
  72.7699992  35.3224990  15.5289997  73.4799992  36.4384990  16.2659997
  73.4352975  35.6086973  16.0071823  87.9579992  29.3954990   6.0799997
  88.0469992  30.3394990   5.9469997  87.3189992  29.1204990   5.4219997
  87.8838378  29.4873846   5.9729258  86.8909992  28.6504990   9.4989997
  86.8519992  28.0044990  10.2039997  86.5679992  28.1834990   8.7269997
  86.8420469  28.4990005   9.4912803  79.2589992  28.2644990  11.0919997
  79.2999992  27.6394990  11.8149997  79.9619992  28.8884990  11.2739997
  79.3596223  28.2632318  11.2156164  90.5969992  31.5894990   7.7999997
  90.1559992  30.8694990   8.2509997  90.5839992  32.3104990   8.4299997
  90.5349215  31.5884303   7.9468088  82.8319992  24.9484990  80.0429997
  83.7639992  25.0774990  80.2209997  82.6169992  25.6174990  79.3939997
  82.9304245  25.0566452  79.9795602  80.1829992  32.7144990   9.6269997
  79.8129992  31.9124990   9.2569997  81.1239992  32.5464990   9.6729997
  80.2595984  32.5819649   9.5825586  76.7929992  26.3744990   5.0189997
  76.3449992  27.2204990   5.0009997  76.2319992  25.7954990   4.5039997
  76.6558546  26.4119004   4.9468874  77.5029992  28.5364990   7.1449997
  77.7169992  27.7664990   7.6719997  78.2409992  28.6264990   6.5419997
  77.6320073  28.4433546   7.1355786  87.7079992  36.6934990   8.0119997
  88.3279992  36.0174990   7.7389997  87.4999992  36.4754990   8.9209997
  87.7647679  36.5715032   8.0974518  85.2799992  31.0824990   9.9049997
  85.5839992  30.3964990   9.3099997  86.0019992  31.2014990  10.5229997
  85.4191240  31.0047325   9.9070941  93.9429992  22.6844990  10.7649997
  93.9919992  23.2944990  11.5009997  94.3689992  23.1454990  10.0419997
  94.0072851  22.8303266  10.7680532  88.4209992  25.4764990  10.2319997
  88.5629992  24.5304990  10.2519997  88.3149992  25.6834990   9.3039997
  88.4261051  25.3749706  10.1092249  81.5759992  23.5784990   7.5049997
  81.6189992  24.4384990   7.0859997  81.1179992  23.0254990   6.8709997
  81.5200163  23.6214174   7.3620604  89.2979992  23.7094990   5.9049997
  89.9439992  23.3804990   6.5299997  89.8079992  24.2264990   5.2829997
  89.4554289  23.7344333   5.9063681  78.1959992  25.9754990   8.2669997
  78.8499992  25.4254990   8.6989997  78.2199992  25.7014990   7.3499997
  78.2887199  25.8632178   8.2021650  88.7559992  22.5544990  86.8239997
  88.0789992  22.6854990  87.4879997  88.2699992  22.3994990  86.0139997
  88.5977265  22.5514665  86.8053380  83.3519992  27.5254990   7.4819997
  83.9679992  26.9984990   7.9909997  82.7659992  26.8854990   7.0779997
  83.3570652  27.3668919   7.4970277  94.3349992  24.1624990  13.0009997
  93.6459992  24.8204990  12.9059997  94.3499992  23.9644990  13.9379997
  94.2427756  24.2257614  13.1145795  80.3859992  22.4964990  11.5789997
  80.1669992  23.0264990  10.8119997  79.7179992  22.7224990  12.2259997
  80.2656975  22.5995979  11.5615123  87.7549992  31.9964990   5.1229997
  87.4589992  31.6734990   4.2709997  87.4309992  32.8964990   5.1639997
  87.6707458  32.0739678   5.0120598  82.9549992  30.1714990  11.8659997
  82.2149992  30.7704990  11.9699997  83.6689992  30.7254990  11.5499997
  82.9503146  30.3282611  11.8375150  91.0619992  23.0004990   7.8859997
  90.8469992  22.2344990   8.4189997  91.7179992  23.4724990   8.3989997
  91.1212673  22.9595739   8.0281972  79.9799992  24.3884990   9.5309997
  80.5929992  25.0214990   9.9039997  80.4919992  23.9164990   8.8749997
  80.1331933  24.4113380   9.4933477  81.3619992  32.1364990  12.6529997
  81.3569992  33.0154990  12.2749997  80.5089992  32.0524990  13.0779997
  81.2459199  32.2455901  12.6586942  77.4839992  31.8074990   3.4349997
  77.2119992  32.0364990   2.5459997  77.5289992  32.6444990   3.8959997
  77.4528360  31.9521034   3.3756186  91.1089992  33.4284990  10.1479997
  90.1669992  33.4874990  10.3099997  91.3849992  34.3344990  10.0109997
  91.0175865  33.5590299  10.1516174  92.0429992  38.2254990  93.1009997
  92.2429992  38.6494990  92.2659997  92.6989992  38.5694990  93.7079997
  92.1589916  38.3299784  93.0687890  91.4089992  21.7154990  11.5649997
  90.6729992  22.3254990  11.5279997  92.0929992  22.1304990  11.0389997
  91.4005367  21.8552562  11.4888156  84.4119992  19.8014990   9.0309997
  84.2949992  18.8534990   8.9769997  83.5569992  20.1344990   9.3039997
  84.2803691  19.7165842   9.0605072  89.3609992  35.2094990   6.7729997
  89.7859992  34.5024990   6.2879997  89.6779992  36.0114990   6.3559997
  89.4620266  35.2210201   6.6502461  90.5199992  33.1104990   5.2819997
  90.2629992  32.4204990   4.6699997  90.5909992  32.6674990   6.1269997
  90.4944322  32.9561568   5.3125372  92.2059992  31.6774990  13.7589997
  92.3459992  31.0854990  13.0199997  92.3739992  32.5504990  13.4029997
  92.2478734  31.7144041  13.6096937  86.6789992  28.6394990   3.5319997
  85.9669992  29.1744990   3.1799997  87.3699992  28.6944990   2.8719997
  86.6749704  28.7201663   3.3945797  86.7329992  27.0964990   0.5699997
  87.4339992  27.1194990   1.2219997  87.0349992  26.4684990  -0.0860003
  86.8698202  27.0147223   0.5705591  94.0479992  28.0174990  11.8249997
  93.3959992  28.7114990  11.9139997  94.5129992  28.2274990  11.0149997
  94.0215357  28.1409544  11.7277056  90.0849992  28.8484990   4.4829997
  89.3529992  29.0774990   5.0559997  90.5319992  28.1354990   4.9379997
  90.0452753  28.7833984   4.6229698  89.9819992  27.0234990  13.5509997
  90.0619992  27.7864990  14.1229997  89.3809992  27.3024990  12.8609997
  89.9116547  27.1657468  13.5360029  79.6409992  30.6994990  92.7089997
  80.3729992  30.9544990  93.2699997  78.8609992  30.9044990  93.2239997
  79.6357684  30.7621457  92.8554774  81.7299992  29.4794990   6.3659997
  81.3999992  29.1084990   5.5479997  82.3179992  28.8084990   6.7129997
  81.7643182  29.3380648   6.3009898  83.0969992  32.9074990   9.0469997
  83.0019992  32.3284990   8.2909997  83.8259992  32.5364990   9.5429997
  83.1826011  32.7780572   9.0106011  82.0969992  28.2474990   9.9989997
  82.6619992  28.3694990   9.2369997  82.4149992  28.8854990  10.6379997
  82.2173619  28.3504388   9.9810019  88.4059992  33.7514990  10.7329997
  88.1649992  34.4134990  11.3809997  88.2079992  32.9164990  11.1579997
  88.3462662  33.7292704  10.8791008  82.9769992  32.6474990  14.7169997
  82.6649992  33.4294990  15.1719997  82.3269992  32.4944990  14.0309997
  82.8464858  32.7337882  14.6865344  88.9559992  28.0114990   2.1689997
  89.5349992  28.1614990   2.9149997  89.3699992  28.4814990   1.4449997
  89.0913358  28.0955966   2.1733935  79.8969992  28.8454990  13.9449997
  79.9669992  29.4964990  14.6439997  79.0059992  28.9484990  13.6099997
  79.7861690  28.9484261  13.9953026  86.6819992  34.7474990   5.6039997
  87.1559992  35.0434990   6.3809997  86.1189992  35.4864990   5.3709997
  86.6707890  34.8878047   5.6788084  81.2159992  34.7184990  15.4799997
  81.2239992  34.5824990  14.5329997  80.2999992  34.6014990  15.7319997
  81.0932528  34.6840475  15.3843226  92.6539992  19.7614990   1.9809997
  91.7539992  19.8994990   2.2769997  92.9059992  20.5924990   1.5799997
  92.5647727  19.8928705   1.9672935  85.6709992  26.1064990  85.4469997
  86.2349992  25.5604990  84.8999997  85.5229992  25.5854990  86.2359997
  85.7283037  25.9611798  85.4787212  80.7199992  28.5484990   3.9549997
  80.4279992  29.3164990   3.4639997  80.0459992  27.8894990   3.7919997
  80.5888843  28.5644537   3.8657695  93.8439992  34.1274990   0.3579997
  93.9169992  35.0664990   0.5279997  94.7489992  33.8224990   0.3019997
  93.9764170  34.2148294   0.3737045  76.8129992  30.9114990  12.7699997
  76.3119992  30.8834990  11.9549997  76.8189992  30.0064990  13.0799997
  76.7451690  30.7852234  12.7002770  76.5639992  33.6924990   9.6539997
  77.5099992  33.5474990   9.6349997  76.4509992  34.4764990  10.1909997
  76.6783578  33.7786708   9.7240300  94.7609992  34.3584990  15.3369997
  94.7119992  33.4024990  15.2989997  93.9349992  34.6254990  15.7379997
  94.6425096  34.2638416  15.3860698  85.7399992  33.9324990  14.2129997
  85.8269992  34.7584990  14.6879997  84.8759992  33.6024990  14.4619997
  85.6351944  34.0009871  14.3116558  86.1539992  37.7044990   4.0189997
  86.0789992  37.5834990   3.0719997  86.1869992  38.6534990   4.1369997
  86.1482083  37.8162639   3.9054973  79.8079992  36.4934990   5.7999997
  79.9599992  36.1454990   6.6779997  78.9569992  36.1364990   5.5439997
  79.7138344  36.3975891   5.8856851  89.2559992  36.8584990   1.0209997
  89.6309992  36.1144990   0.5499997  89.2599992  36.5884990   1.9389997
  89.3078969  36.7200920   1.0806475  88.9249992  36.7844990   3.7699997
  87.9899992  36.8844990   3.9489997  89.2049992  36.0744990   4.3489997
  88.8349471  36.7022944   3.8726678  80.6729992  22.2434990  81.8649997
  80.3549992  21.3404990  81.8299997  81.4539992  22.2454990  81.3129997
  80.7351560  22.1201148  81.7854975  91.9129992  25.8514990  15.8169997
  91.5059992  26.3314990  15.0959997  91.9539992  24.9454990  15.5089997
  91.8628403  25.7947989  15.6767253  79.0619992  32.2354990  13.8129997
  79.2779992  31.8734990  14.6729997  78.2069992  31.8604990  13.6039997
  78.9759082  32.1353377  13.9022396  81.6809992  20.7054990   9.8089997
  80.8189992  20.6184990   9.4009997  81.6589992  21.5614990  10.2369997
  81.5600557  20.8093078   9.8110202  86.3439992  20.4274990  13.1839997
  86.7639992  20.0124990  13.9369997  85.4109992  20.2484990  13.3009997
  86.2753736  20.3464921  13.3028950  89.6699992  24.1824990  14.0369997
  89.1559992  24.0574990  14.8349997  89.5149992  25.0954990  13.7929997
  89.5787802  24.2887433  14.1131504  90.4329992  29.0434990  -0.2020003
  90.4749992  28.8214990  -1.1320003  91.2819992  29.4424990  -0.0120003
  90.5535253  29.0670510  -0.3036196  86.0059992  22.9194990   0.4689997
  85.7519992  22.9384990   1.3909997  85.7489992  22.0484990   0.1669997
  85.9364508  22.8043292   0.5544786  81.7719992  25.6704990  10.9039997
  81.1299992  25.6304990  11.6129997  81.8089992  26.5974990  10.6659997
  81.6891659  25.7902540  10.9688463  81.7689992  25.8914990   5.8159997
  80.8759992  25.5514990   5.7569997  82.2199992  25.5144990   5.0599997
  81.7077185  25.7940220   5.7057698  87.3049992  26.3074990   4.6329997
  86.8959992  27.1224990   4.3409997  88.0249992  26.1674990   4.0189997
  87.3464439  26.4000383   4.5100098  84.2969992  24.4954990  87.8609997
  83.4619992  24.9494990  87.9709997  84.8209992  24.7714990  88.6129997
  84.2535070  24.5949677  87.9777134  86.4069992  26.4834990  16.1209997
  85.8439992  25.7784990  16.4419997  87.2329992  26.3624990  16.5889997
  86.4416674  26.3707176  16.2281734  88.3089992  25.7534990   7.4469997
  88.1139992  26.3594990   6.7319997  88.4909992  24.9204990   7.0129997
  88.3069195  25.7237936   7.2904079  79.5219992  25.9914990  12.7709997
  79.4839992  26.3914990  13.6399997  79.0309992  25.1744990  12.8609997
  79.4504374  25.9358228  12.9020980  82.8879992  23.3654990  -0.4300003
  82.4569992  22.9204990   0.2989997  82.1699992  23.7364990  -0.9430003
  82.7319176  23.3547063  -0.3995087  76.1299992  23.1074990   6.6219997
  76.7609992  23.0784990   7.3409997  76.5799992  22.6824990   5.8909997
  76.2771082  23.0461269   6.6216307  77.4039992  23.8534990   2.0459997
  77.8789992  24.4444990   1.4609997  76.6869992  24.3834990   2.3929997
  77.3720406  24.0061011   2.0128495  87.5729992  27.3914990  12.1179997
  87.8969992  26.7604990  11.4749997  87.1329992  26.8574990  12.7789997
  87.5578707  27.2328261  12.1193195  84.3509992  23.3194990   6.9019997
  83.4399992  23.3764990   7.1909997  84.8559992  23.2594990   7.7129997
  84.2946873  23.3191838   7.0511190  79.1789992  24.9484990   5.7289997
  78.2899992  25.0474990   5.3889997  79.4749992  24.1064990   5.3829997
  79.0974001  24.8482473   5.6357318  82.8319992  24.9484990   3.3859997
  83.7639992  25.0774990   3.5639997  82.6169992  25.6174990   2.7359997
  82.9304472  25.0565817   3.3224873  84.8409992  30.7084990  79.5459997
  84.0959992  30.2004990  79.2229997  84.7069992  30.7574990  80.4919997
  84.7208633  30.6455714  79.6297563  88.7559992  22.5544990  10.1659997
  88.0789992  22.6854990  10.8299997  88.2699992  22.3994990   9.3559997
  88.5977265  22.5514665  10.1473380  81.5059992  26.1424990   0.9519997
  80.9639992  25.7634990   0.2609997  82.3399992  26.3374990   0.5239997
  81.5444390  26.1169091   0.7994374  92.0429992  38.2254990  16.4429997
  92.2429992  38.6494990  15.6089997  92.6989992  38.5694990  17.0499997
  92.1589937  38.3299993  16.4108645  79.6409992  30.6994990  16.0509997
  80.3729992  30.9544990  16.6129997  78.8609992  30.9044990  16.5669997
  79.6356526  30.7620438  16.1975168  85.6709992  26.1064990   8.7889997
  86.2349992  25.5604990   8.2419997  85.5229992  25.5854990   9.5779997
  85.7283037  25.9611798   8.8207212  80.6729992  22.2434990   5.2079997
  80.3549992  21.3404990   5.1719997  81.4539992  22.2454990   4.6549997
  80.7351079  22.1202240   5.1282908  84.2969992  24.4954990  11.2029997
  83.4619992  24.9494990  11.3139997  84.8209992  24.7714990  11.9549997
  84.2536072  24.5948960  11.3198118  84.8409992  30.7084990   2.8879997
  84.0959992  30.2004990   2.5659997  84.7069992  30.7574990   3.8339997
  84.7209334  30.6456144   2.9718892  91.9909992  29.8414990  11.6749997
  92.6329992  30.2974990  11.1309997  91.1609992  29.9544990  11.2119997
  91.9666536  29.9191813  11.5379579  88.7389992  23.5224990   1.0869997
  87.7999992  23.6334990   0.9359997  89.0359992  24.3784990   1.3939997
  88.6506136  23.6534977   1.1078568  91.9909992  29.8414990  88.3319997
  92.6329992  30.2974990  87.7889997  91.1609992  29.9544990  87.8699997
  91.9667352  29.9193223  88.1950234  86.3609992  30.8924990  14.1249997
  86.0149992  30.5104990  14.9319997  86.1609992  31.8254990  14.1959997
  86.2865987  30.9664013  14.2450443  89.4569992  25.3894990   2.7479997
  90.3489992  25.2514990   3.0669997  89.5139992  26.1804990   2.2109997
  89.5867380  25.4774777   2.7190981  79.9659992  30.0034990   8.6579997
  80.7109992  30.0004990   8.0559997  80.0439992  29.1794990   9.1389997
  80.0783365  29.8917395   8.6407412  86.9669992  32.1664990   1.9129997
  86.6719992  32.9934990   2.2949997  86.2639992  31.5474990   2.1099997
  86.8316379  32.1959182   1.9918636  76.9739992  28.4634990  13.9729997
  77.1969992  28.0454990  14.8039997  76.3719992  27.8514990  13.5499997
  76.9231513  28.3234617  14.0296722  83.9909992  27.9804990  16.1859997
  83.6949992  27.8154990  15.2899997  84.9219992  27.7604990  16.1749997
  84.0764401  27.9281891  16.0620189  88.6109992  33.3544990  14.0749997
  87.7099992  33.5374990  13.8079997  88.6449992  33.6134990  14.9959997
  88.4923861  33.4145245  14.1629517  94.3419992  25.5984990   2.4429997
  93.7879992  25.2024990   1.7699997  94.4429992  26.5094990   2.1649997
  94.2798589  25.6673904   2.3133839  94.3049992  31.3994990  15.2799997
  93.4539992  31.6374990  14.9119997  94.8959992  31.3824990  14.5259997
  94.2683831  31.4297623  15.1278448  92.6369992  34.3844990   2.9079997
  92.2649992  33.5594990   3.2169997  92.9149992  34.2014990   2.0099997
  92.6235807  34.2467031   2.8290063  86.3609992  30.8924990  90.7829997
  86.0149992  30.5104990  91.5889997  86.1609992  31.8254990  90.8539997
  86.2865400  30.9663489  90.9030401  89.7979992  29.1924990   9.9289997
  88.8699992  28.9614990   9.9019997  90.2489992  28.4154990   9.5989997
  89.7318165  29.0557785   9.8806772  82.3409992  33.5214990   6.0619997
  82.8679992  34.2944990   5.8619997  81.4609992  33.7454990   5.7599997
  82.2942121  33.6577344   5.9937460  78.0959992  28.3834990   0.6489997
  78.7119992  29.0104990   1.0289997  77.2339992  28.6994990   0.9209997
  78.0637678  28.5119423   0.7377192  83.7679992  31.1844990   5.6379997
  83.5269992  32.1094990   5.6799997  83.0279992  30.7254990   6.0349997
  83.6349463  31.2490969   5.6974279  84.2829992  35.3334990  11.9529997
  84.6459992  36.1874990  11.7199997  84.8149992  35.0414990  12.6939997
  84.4045141  35.4108907  12.0212079  82.4509992  36.2054990   5.1839997
  81.5019992  36.3114990   5.2349997  82.8029992  37.0264990   5.5279997
  82.3685647  36.3310029   5.2374882  87.8269992  31.4324990  11.6539997
  87.4009992  31.2044990  12.4799997  88.4079992  30.6934990  11.4719997
  87.8472088  31.3014393  11.7424454  90.0299992  32.3614990   0.7279997
  90.3829992  31.9814990   1.5319997  89.0809992  32.2674990   0.8149997
  89.9500956  32.2967867   0.8498005  90.4859992  35.9844990  14.1229997
  89.8839992  35.4284990  13.6279997  90.7669992  36.6514990  13.4969997
  90.4415757  35.9985755  13.9705657  94.5329992  36.8404990   0.9289997
  95.2769992  37.4264990   0.7889997  93.8389992  37.4094990   1.2619997
  94.5409809  36.9975830   0.9548572  89.4569992  25.3894990  79.4059997
  90.3489992  25.2514990  79.7249997  89.5139992  26.1804990  78.8689997
  89.5867380  25.4774777  79.3770981  78.6079992  23.2174990  13.5309997
  77.7149992  23.5554990  13.4629997  78.5089992  22.3614990  13.9489997
  78.4724752  23.1480986  13.5781644  90.8959992  31.0334990   2.9549997
  90.6189992  30.3054990   3.5109997  91.8229992  31.1524990   3.1599997
  90.9834419  30.9499436   3.0588264  78.2589992  35.0214990  11.9659997
  78.4759992  34.0894990  11.9349997  78.5059992  35.2964990  12.8489997
  78.3220948  34.9310976  12.0811268  83.0579992  33.0434990   1.6309997
  83.2049992  32.5234990   2.4209997  83.0549992  33.9504990   1.9379997
  83.0777102  33.0948964   1.7805907  79.5109992  30.2954990   2.1419997
  78.8249992  30.6484990   2.7089997  80.0339992  31.0584990   1.8949997
  79.4878402  30.4468912   2.1861783  87.3419992  22.9584990  12.4209997
  88.0409992  23.0324990  13.0709997  86.9619992  22.0934990  12.5749997
  87.3862662  22.8517050  12.5307412  88.1269992  22.6104990   3.5179997
  88.3469992  23.0814990   2.7139997  88.6849992  23.0044990   4.1879997
  88.2326044  22.7282946   3.4985207  85.7959992  34.7404990   2.3809997
  84.9789992  35.2374990   2.4329997  86.3249992  35.2164990   1.7399997
  85.7558125  34.8727000   2.3015289  85.3269992  24.3384990   4.3529997
  86.1389992  24.8424990   4.3989997  85.0819992  24.1934990   5.2669997
  85.4051091  24.3879366   4.4828552  85.8629992  25.3244990  13.5369997
  85.9819992  25.8984990  14.2939997  86.5179992  24.6364990  13.6519997
  85.9678684  25.3100205  13.6561656  79.9659992  30.0034990  85.3149997
  80.7109992  30.0004990  84.7139997  80.0439992  29.1794990  85.7969997
  80.0784158  29.8917928  85.2979136  86.2109992  21.4194990   5.2909997
  85.8639992  22.0364990   5.9349997  86.8689992  21.9204990   4.8089997
  86.2524430  21.5716860   5.3140046  83.1339992  35.7844990   2.3619997
  83.2949992  36.5844990   1.8619997  82.9369992  36.0914990   3.2469997
  83.1293906  35.9353690   2.4132316  81.8679992  22.4824990   1.9779997
  81.7849992  23.3704990   2.3249997  82.7579992  22.2174990   2.2099997
  81.9769331  22.5681177   2.0568067  92.0669992  23.2314990  14.3719997
  91.1509992  23.4934990  14.2849997  92.4029992  23.2284990  13.4759997
  91.9868499  23.2670174  14.2388748  90.6689992  26.9814990   8.4679997
  89.8719992  26.5664990   8.1399997  91.1139992  26.2914990   8.9589997
  90.6200367  26.8313372   8.4894897  80.1269992  32.9094990   1.0379997
  80.7189992  33.6094990   1.3149997  80.5859992  32.4764990   0.3189997
  80.2701652  32.9467686   0.9786515  78.4429992  25.5744990   0.1539997
  78.3979992  26.5134990   0.3329997  77.5549992  25.3384990  -0.1150003
  78.3168166  25.6711698   0.1421507  91.7559992  36.2374990  10.0899997
  91.5999992  36.9164990   9.4329997  92.6879992  36.3094990  10.2929997
  91.8607328  36.3401586  10.0275529  79.2509992  20.3554990   8.8269997
  79.0219992  20.4144990   7.8999997  78.8079992  19.5644990   9.1339997
  79.1597387  20.2566412   8.7415223  78.1809992  34.2964990   4.9879997
  77.3489992  34.7684990   5.0149997  78.7269992  34.8064990   4.3889997
  78.1408710  34.4300317   4.9107570  86.9669992  32.1664990  78.5709997
  86.6719992  32.9934990  78.9529997  86.2639992  31.5474990  78.7669997
  86.8315855  32.1959458  78.6497634  77.4699992  36.9084990  16.3179997
  78.0099992  36.6924990  17.0779997  76.9879992  36.1034990  16.1279997
  77.4788485  36.7700463  16.3964870  82.0669992  35.8284990  17.9379997
  82.8349992  35.3694990  18.2789997  82.0459992  35.6024990  17.0079997
  82.1692135  35.7351680  17.8589473  86.1589992  35.3364990  -0.6870003
  85.5149992  34.7054990  -0.3650003  86.9209992  34.8054990  -0.9180003
  86.1738708  35.1783171  -0.6741539  88.6439992  34.2084990  16.6669997
  88.2929992  33.3514990  16.9099997  89.3699992  34.3504990  17.2739997
  88.6941590  34.1105189  16.7822889  90.7629992  35.1534990  -0.4530003
  91.0459992  34.3584990  -0.0000003  91.5029992  35.3864990  -1.0140003
  90.9017295  35.0762349  -0.4668531  77.3769992  30.7194990  17.2719997
  77.5209992  29.8174990  16.9859997  76.6039992  31.0054990  16.7849997
  77.2922266  30.6346548  17.1670102  81.7179992  31.0624990  -0.5950003
  81.7819992  30.2684990  -0.0650003  82.3709992  30.9444990  -1.2850003
  81.8150483  30.9377496  -0.6156593  84.0319992  30.6884990  16.7049997
  83.7039992  30.9594990  15.8479997  84.1839992  29.7474990  16.6169997
  84.0076412  30.5984058  16.5757804  89.7669992  30.6044990  14.0879997
  90.5119992  31.1934990  13.9689997  89.0089992  31.1864990  14.1509997
  89.7665289  30.7637067  14.0802292  78.2089992  27.9194990  16.6919997
  78.6169992  27.0624990  16.5709997  77.9489992  27.9334990  17.6129997
  78.2297082  27.8040596  16.7999469  76.9739992  28.4634990  90.6299997
  77.1969992  28.0454990  91.4619997  76.3719992  27.8514990  90.2079997
  76.9230802  28.3235216  90.6867561  82.8669992  29.0354990   1.7109997
  82.4079992  28.5514990   2.3959997  83.1219992  28.3664990   1.0749997
  82.8385997  28.8788491   1.7188734  82.1559992  26.9284990  14.0669997
  81.5379992  27.6024990  14.3469997  82.4999992  27.2494990  13.2329997
  82.1178078  27.0642298  13.9926609  83.9379992  27.2784990  -0.0270003
  83.7579992  27.1234990  -0.9540003  84.8879992  27.3864990   0.0179997
  84.0417804  27.2718821  -0.1478034  87.1759992  29.3994990  17.3439997
  88.1289992  29.4834990  17.3169997  87.0159992  28.6874990  17.9629997
  87.2847320  29.3147292  17.4239933  93.3279992  29.6324990  -0.5810003
  93.0549992  29.2084990  -1.3940003  93.3679992  30.5644990  -0.7980003
  93.2960201  29.7003523  -0.7216452  82.4959992  24.2834990  15.1489997
  82.6459992  23.5544990  14.5469997  82.4979992  25.0604990  14.5899997
  82.5167967  24.2887720  14.9910523  82.9079992  22.6524990  12.6419997
  83.4439992  23.1044990  11.9899997  82.0559992  22.5444990  12.2189997
  82.8661795  22.6997444  12.4956211  84.4899992  28.0924990  12.8809997
  85.2409992  27.9364990  12.3079997  84.1509992  28.9444990  12.6059997
  84.5469587  28.1863149  12.7654060  88.9059992  25.9074990  17.9099997
  89.0979992  24.9764990  17.7979997  89.7629992  26.3324990  17.8989997
  89.0482176  25.8375090  17.8931757  90.2219992  28.6964990  15.9869997
  89.9409992  29.4054990  15.4089997  91.1649992  28.6234990  15.8359997
  90.3109272  28.7836704  15.8874976  83.9909992  27.9804990  92.8429997
  83.6949992  27.8154990  91.9479997  84.9219992  27.7604990  92.8329997
  84.0763909  27.9281274  92.7190110  80.9739992  25.4814990  17.0599997
  80.2069992  24.9484990  16.8499997  81.6529992  25.1714990  16.4609997
  80.9608292  25.3666360  16.9502693  83.7139992  20.1094990  13.0729997
  83.6159992  21.0554990  12.9679997  82.9709992  19.7364990  12.5969997
  83.6002123  20.1886811  12.9943204  84.9779992  24.4304990  16.6369997
  84.7419992  24.2114990  17.5379997  84.1949992  24.2234990  16.1269997
  84.8398382  24.3725340  16.6913991  87.6939992  23.5584990  15.7119997
  86.7459992  23.5904990  15.8439997  88.0059992  22.9324990  16.3659997
  87.6065293  23.4782934  15.8184130  89.3279992  22.1924990  17.7169997
  89.2309992  21.2404990  17.7119997  89.0059992  22.4604990  18.5779997
  89.2712468  22.0985896  17.8326192  79.1549992  23.4014990  16.7649997
  79.3659992  22.6954990  16.1549997  79.0429992  22.9644990  17.6089997
  79.1687668  23.2456619  16.7955445  83.9359992  19.4034990  15.7439997
  84.6469992  18.7634990  15.7299997  83.8349992  19.6694990  14.8309997
  84.0196858  19.3518591  15.6185501  84.2889992  21.0854990  17.7979997
  84.1579992  20.6104990  16.9779997  83.6899992  21.8304990  17.7429997
  84.1900829  21.1210949  17.6781823  83.8359992  37.9684990   0.9739997
  84.7689992  38.1264990   1.1179997  83.5709992  38.6444990   0.3489997
  83.9279846  38.0814567   0.9092930  77.4039992  32.6054990   0.4569997
  78.3179992  32.6844990   0.7299997  77.4109992  31.9184990  -0.2090003
  77.5300624  32.5234074   0.4043045  88.6109992  33.3544990  90.7329997
  87.7099992  33.5374990  90.4649997  88.6449992  33.6134990  91.6539997
  88.4923021  33.4145505  90.8208206  76.0529992  37.9984990   5.5339997
  75.4059992  37.5364990   5.0019997  76.4079992  37.3264990   6.1169997
  76.0123741  37.8444785   5.5399157  76.9229992  36.0784990   7.3389997
  76.5889992  35.1984990   7.5109997  77.1449992  36.4244990   8.2039997
  76.9072565  36.0047410   7.4794263  94.4719992  36.8884990  10.3199997
  94.4499992  37.0734990  11.2579997  95.1619992  37.4564990   9.9789997
  94.5623383  36.9907104  10.4024580  94.0349992  36.4554990  13.2409997
  93.5479992  35.7194990  12.8699997  94.5839992  36.0614990  13.9189997
  94.0426101  36.3016267  13.2819034  92.4859992  32.2454990  17.8789997
  91.6199992  32.1404990  18.2739997  92.8619992  33.0034990  18.3259997
  92.4184940  32.3336141  17.9933958  93.7869992  30.5014990   3.3939997
  94.6369992  30.9224990   3.5209997  93.7919992  29.7614990   4.0009997
  93.9041143  30.4591106   3.4934732  94.1809992  28.5554990   5.2169997
  93.4549992  28.0754990   5.6149997  94.7619992  28.7604990   5.9489997
  94.1602504  28.5175592   5.3704199  93.9399992  31.3404990  10.1649997
  94.7739992  30.9624990   9.8839997  94.0519992  32.2834990  10.0459997
  94.0691917  31.4162954  10.1104844  92.4259992  34.2184990  12.4719997
  91.7789992  34.5434990  13.0969997  91.9089992  33.7774990  11.7979997
  92.2674112  34.2034133  12.4665272  94.4489992  28.4564990   1.6079997
  93.9279992  28.8124990   0.8899997  94.4159992  29.1314990   2.2869997
  94.3730955  28.5965023   1.6012634  94.3419992  25.5984990  79.0999997
  93.7879992  25.2024990  78.4279997  94.4429992  26.5094990  78.8229997
  94.2797084  25.6673565  78.9704381  92.7979992  25.6954990   0.1589997
  92.8949992  26.3624990  -0.5210003  92.6579992  24.8804990  -0.3220003
  92.7923407  25.6765670   0.0008312  91.9679992  27.0764990   5.7799997
  91.8179992  26.1314990   5.7599997  91.6139992  27.3574990   6.6239997
  91.8996351  26.9851656   5.8913202  77.0029992  29.1544990   9.7909997
  77.1869992  29.0724990   8.8549997  77.8519992  29.0304990  10.2139997
  77.1430132  29.1265066   9.7201460  92.8239992  29.0464990  15.4189997
  93.4069992  28.3114990  15.6109997  93.3879992  29.8184990  15.4659997
  92.9799781  29.0503156  15.4516146  94.3209992  26.9494990  16.1039997
  93.4569992  26.5704990  15.9379997  94.9249992  26.2104990  16.0289997
  94.2845394  26.7978378  16.0711778  91.6779992  24.6584990   4.2429997
  91.9579992  23.7514990   4.3669997  92.4369992  25.0924990   3.8539997
  91.8189258  24.5930935   4.2073691  92.2899992  25.2404990   9.6789997
  93.2229992  25.4524990   9.6439997  92.0549992  25.3414990  10.6009997
  92.3859517  25.2831844   9.7989113  92.3189992  25.9774990  12.4549997
  91.4759992  26.2454990  12.8199997  92.7619992  26.7994990  12.2439997
  92.2634035  26.1253351  12.4764770  76.5999992  24.4244990  15.9309997
  77.5199992  24.3024990  16.1679997  76.1509992  23.6744990  16.3209997
  76.6650500  24.3064576  16.0161016  94.6019992  19.9574990  17.8079997
  94.9519992  19.3034990  17.2019997  94.7489992  20.7944990  17.3679997
  94.6697192  19.9812545  17.6656712  94.3049992  31.3994990  91.9369997
  93.4539992  31.6374990  91.5699997  94.8959992  31.3824990  91.1839997
  94.2682468  31.4298251  91.7848902  92.2919992  21.9214990   4.2909997
  92.4739992  21.4724990   5.1159997  91.6919992  21.3374990   3.8269997
  92.2358187  21.7810563   4.3412721  77.8219992  22.7374990   8.8229997
  78.2669992  21.9454990   9.1249997  78.2879992  23.4534990   9.2529997
  77.9459718  22.7259546   8.9225247  76.1259992  25.7364990   9.8919997
  76.6179992  25.5154990   9.1009997  76.4879992  26.5764990  10.1729997
  76.2422923  25.8198480   9.8217389  94.1219992  22.0664990  16.1569997
  93.2049992  22.3374990  16.1209997  94.2449992  21.5314990  15.3729997
  94.0130828  22.0312711  16.0460767  94.1579992  21.9894990   0.8189997
  94.5709992  21.2684990   0.3439997  94.8399992  22.6584990   0.8769997
  94.3066060  21.9813741   0.7619233  76.4389992  21.9944990   3.9459997
  75.5139992  22.2024990   3.8169997  76.8929992  22.4784990   3.2559997
  76.3736298  22.0884311   3.8350433  91.2099992  36.9784990   5.8919997
  91.8619992  36.6304990   5.2839997  91.7209992  37.4664990   6.5379997
  91.3682872  36.9968248   5.8960964  76.4029992  20.7324990  12.2899997
  75.7379992  20.4864990  12.9329997  75.9599992  21.3544990  11.7129997
  76.2521168  20.7829225  12.2999830  78.5949992  33.9074990  16.4349997
  77.7739992  34.0824990  15.9739997  78.3429992  33.8344990  17.3549997
  78.4485594  33.9215728  16.4963593  81.5489992  34.8814990  12.6929997
  81.1239992  35.6914990  12.4109997  82.4529992  34.9674990  12.3909997
  81.6130706  35.0039557  12.6135836  92.6369992  34.3844990  79.5649997
  92.2649992  33.5594990  79.8749997  92.9149992  34.2014990  78.6679997
  92.6235997  34.2466160  79.4861551  85.8599992  36.2804990  15.6529997
  86.0449992  35.9474990  16.5309997  86.7069992  36.5904990  15.3309997
  85.9997291  36.2768214  15.7296140  88.2049992  37.5664990  14.8969997
  88.8819992  36.9334990  14.6569997  88.5269992  37.9674990  15.7039997
  88.3411618  37.5341147  14.9732802  93.1229992  20.1564990  13.9759997
  92.3099992  20.4814990  13.5889997  93.3559992  19.3954990  13.4429997
  93.0431347  20.0981891  13.8509824  78.9509992  38.1384990  12.7409997
  78.2299992  38.5784990  12.2899997  78.5849992  37.8874990  13.5889997
  78.8029632  38.1647235  12.7939649  81.4179992  37.7384990  11.7699997
  80.5529992  37.8104990  12.1739997  81.3629992  38.2854990  10.9869997
  81.2922289  37.8223242  11.7193749  86.1289992  37.6264990  10.9459997
  85.6719992  38.1554990  10.2919997  86.2909992  38.2294990  11.6709997
  86.0883919  37.7803990  10.9545740  88.4559992  36.5044990  11.8909997
  87.5519992  36.6694990  11.6249997  88.8849992  37.3574990  11.8249997
  88.3902017  36.6424184  11.8456495  91.0599992  38.0744990  12.1859997
  90.8789992  38.9904990  11.9749997  91.2369992  37.6634990  11.3389997
  91.0591377  38.1443365  12.0427178  78.3659992  36.7614990   9.6509997
  78.3469992  36.3354990  10.5079997  79.1699992  36.4424990   9.2419997
  78.4721393  36.6600297   9.7130155  80.5069992  35.4714990   8.3059997
  80.2879992  34.5544990   8.4759997  81.3309992  35.6114990   8.7719997
  80.5884702  35.3650523   8.3922510  89.7979992  29.1924990  86.5869997
  88.8699992  28.9614990  86.5599997  90.2489992  28.4154990  86.2569997
  89.7318165  29.0557785  86.5386772  83.0439992  35.9414990   9.1549997
  83.2569992  35.0534990   8.8679997  83.1089992  35.9064990  10.1089997
  83.0819149  35.8153338   9.2447351  86.5529992  21.6054990   8.2989997
  85.8779992  20.9754990   8.5549997  87.1169992  21.1214990   7.6959997
  86.5369363  21.4538886   8.2524810  91.6949992  19.7124990   8.4119997
  92.2989992  20.2604990   7.9099997  90.8259992  20.0314990   8.1709997
  91.6600419  19.8305628   8.3107741  93.4219992  20.8514990   6.7449997
  94.0339992  20.3374990   6.2179997  93.8049992  21.7284990   6.7679997
  93.5573867  20.8997613   6.6760888  78.8789992  20.2394990   6.1209997
  78.1019992  20.0044990   5.6139997  79.4099992  19.4424990   6.1299997
  78.8443735  20.0996462   6.0528090  77.7159992  20.0374990   1.9249997
  78.1549992  20.6484990   1.3329997  77.0819992  20.5754990   2.3989997
  77.6903859  20.1939076   1.9080287  83.4589992  20.1654990   5.9339997
  84.3329992  20.5544990   5.9049997  83.3229992  19.9504990   6.8569997
  83.5601953  20.1896654   6.0547599  89.0149992  20.1954990   7.5839997
  89.0919992  20.2914990   6.6339997  88.7399992  19.2884990   7.7119997
  88.9883233  20.0859093   7.4713665  90.3689992  20.2214990   3.2759997
  89.6659992  20.8364990   3.0659997  89.9239992  19.3844990   3.4069997
  90.2126550  20.1924679   3.2649819  77.6169992  35.9854990   2.8219997
  76.9319992  35.9474990   2.1549997  77.6199992  36.8974990   3.1099997
  77.5236806  36.1036669   2.7696961  82.3409992  33.5214990  82.7199997
  82.8679992  34.2944990  82.5189997  81.4609992  33.7454990  82.4179997
  82.2941793  33.6576652  82.6516304  79.5769992  21.9534990   0.3669997
  80.0679992  21.3234990  -0.1600003  80.1999992  22.2494990   1.0299997
  79.7285304  21.9072387   0.3844922  84.6029992  22.2464990   2.8239997
  84.7809992  21.5994990   3.5069997  84.5489992  23.0804990   3.2909997
  84.6200678  22.2706615   2.9806283  86.4809992  37.1944990   1.2199997
  87.3469992  37.5614990   1.0419997  86.2339992  36.7554990   0.4059997
  86.5661853  37.1854021   1.0855813  93.1899992  36.7574990   3.8989997
  92.9959992  36.0094990   3.3339997  93.1509992  37.5154990   3.3159997
  93.1581645  36.7575797   3.7428131  78.8369992  20.7534990  15.6389997
  78.4709992  19.9874990  16.0809997  79.7499992  20.7824990  15.9249997
  78.9103172  20.6525335  15.7381872  80.8099992  20.1034990  17.1739997
  81.7089992  19.8294990  16.9899997  80.4239992  19.3614990  17.6389997
  80.8807307  19.9657207  17.2117080  79.4349992  36.9054990  -0.1530003
  79.1669992  37.1914990   0.7209997  80.2059992  36.3594990  -0.0000003
  79.5025926  36.8707790  -0.0128812  89.2309992  19.4364990  17.3569997
  89.3079992  19.0104990  18.2099997  90.1249992  19.4494990  17.0139997
  89.3623263  19.3799345  17.4274366  92.4079992  35.5084990  16.0489997
  91.6259992  35.3224990  15.5289997  92.3359992  36.4384990  16.2659997
  92.2912975  35.6086973  16.0071822 106.8139992  29.3954990   6.0799997
 106.9029992  30.3394990   5.9469997 106.1749992  29.1204990   5.4219997
 106.7398378  29.4873846   5.9729258  83.7679992  31.1844990  82.2959997
  83.5269992  32.1094990  82.3379997  83.0279992  30.7254990  82.6919997
  83.6348934  31.2490881  82.3553191 105.7469992  28.6504990   9.4989997
 105.7079992  28.0044990  10.2039997 105.4239992  28.1834990   8.7269997
 105.6980469  28.4990005   9.4912803  98.1149992  28.2644990  11.0919997
  98.1559992  27.6394990  11.8149997  98.8179992  28.8884990  11.2739997
  98.2156223  28.2632318  11.2156164 109.4529992  31.5894990   7.7999997
 109.0119992  30.8694990   8.2509997 109.4399992  32.3104990   8.4299997
 109.3909215  31.5884303   7.9468088  99.0389992  32.7144990   9.6269997
  98.6689992  31.9124990   9.2569997  99.9799992  32.5464990   9.6729997
  99.1155984  32.5819649   9.5825586  95.6489992  26.3744990   5.0189997
  95.2009992  27.2204990   5.0009997  95.0879992  25.7954990   4.5039997
  95.5118546  26.4119004   4.9468874  96.3589992  28.5364990   7.1449997
  96.5729992  27.7664990   7.6719997  97.0969992  28.6264990   6.5419997
  96.4880073  28.4433546   7.1355786 106.5639992  36.6934990   8.0119997
 107.1839992  36.0174990   7.7389997 106.3559992  36.4754990   8.9209997
 106.6207679  36.5715032   8.0974518 104.1359992  31.0824990   9.9049997
 104.4399992  30.3964990   9.3099997 104.8579992  31.2014990  10.5229997
 104.2751240  31.0047325   9.9070941 112.7989992  22.6844990  10.7649997
 112.8479992  23.2944990  11.5009997 113.2249992  23.1454990  10.0419997
 112.8632851  22.8303266  10.7680532 107.2769992  25.4764990  10.2319997
 107.4189992  24.5304990  10.2519997 107.1709992  25.6834990   9.3039997
 107.2821051  25.3749706  10.1092249  84.2829992  35.3334990  88.6109997
  84.6459992  36.1874990  88.3779997  84.8149992  35.0414990  89.3519997
  84.4045141  35.4108907  88.6792079 100.4319992  23.5784990   7.5049997
 100.4749992  24.4384990   7.0859997  99.9739992  23.0254990   6.8709997
 100.3760163  23.6214174   7.3620604 108.1539992  23.7094990   5.9049997
 108.7999992  23.3804990   6.5299997 108.6639992  24.2264990   5.2829997
 108.3114289  23.7344333   5.9063681  97.0519992  25.9754990   8.2669997
  97.7059992  25.4254990   8.6989997  97.0759992  25.7014990   7.3499997
  97.1447199  25.8632178   8.2021650 102.2079992  27.5254990   7.4819997
 102.8239992  26.9984990   7.9909997 101.6219992  26.8854990   7.0779997
 102.2130652  27.3668919   7.4970277 113.1909992  24.1624990  13.0009997
 112.5019992  24.8204990  12.9059997 113.2059992  23.9644990  13.9379997
 113.0987756  24.2257614  13.1145795  99.2419992  22.4964990  11.5789997
  99.0229992  23.0264990  10.8119997  98.5739992  22.7224990  12.2259997
  99.1216975  22.5995979  11.5615123 106.6109992  31.9964990   5.1229997
 106.3149992  31.6734990   4.2709997 106.2869992  32.8964990   5.1639997
 106.5267458  32.0739678   5.0120598 101.8109992  30.1714990  11.8659997
 101.0709992  30.7704990  11.9699997 102.5249992  30.7254990  11.5499997
 101.8063146  30.3282611  11.8375150 109.9179992  23.0004990   7.8859997
 109.7029992  22.2344990   8.4189997 110.5739992  23.4724990   8.3989997
 109.9772673  22.9595739   8.0281972  98.8359992  24.3884990   9.5309997
  99.4489992  25.0214990   9.9039997  99.3479992  23.9164990   8.8749997
  98.9891933  24.4113380   9.4933477  82.4509992  36.2054990  81.8409997
  81.5019992  36.3114990  81.8929997  82.8029992  37.0264990  82.1859997
  82.3686214  36.3309361  81.8947317 100.2179992  32.1364990  12.6529997
 100.2129992  33.0154990  12.2749997  99.3649992  32.0524990  13.0779997
 100.1019199  32.2455901  12.6586942  96.3399992  31.8074990   3.4349997
  96.0679992  32.0364990   2.5459997  96.3849992  32.6444990   3.8959997
  96.3088360  31.9521034   3.3756186 109.9649992  33.4284990  10.1479997
 109.0229992  33.4874990  10.3099997 110.2409992  34.3344990  10.0109997
 109.8735865  33.5590299  10.1516174 110.2649992  21.7154990  11.5649997
 109.5289992  22.3254990  11.5279997 110.9489992  22.1304990  11.0389997
 110.2565367  21.8552562  11.4888156 103.2679992  19.8014990   9.0309997
 103.1509992  18.8534990   8.9769997 102.4129992  20.1344990   9.3039997
 103.1363691  19.7165842   9.0605072 108.2169992  35.2094990   6.7729997
 108.6419992  34.5024990   6.2879997 108.5339992  36.0114990   6.3559997
 108.3180266  35.2210201   6.6502461 109.3759992  33.1104990   5.2819997
 109.1189992  32.4204990   4.6699997 109.4469992  32.6674990   6.1269997
 109.3504322  32.9561568   5.3125372 111.0619992  31.6774990  13.7589997
 111.2019992  31.0854990  13.0199997 111.2299992  32.5504990  13.4029997
 111.1038734  31.7144041  13.6096937 105.5349992  28.6394990   3.5319997
 104.8229992  29.1744990   3.1799997 106.2259992  28.6944990   2.8719997
 105.5309704  28.7201663   3.3945797 105.5889992  27.0964990   0.5699997
 106.2899992  27.1194990   1.2219997 105.8909992  26.4684990  -0.0860003
 105.7258202  27.0147223   0.5705591  87.8269992  31.4324990  88.3119997
  87.4009992  31.2044990  89.1379997  88.4079992  30.6934990  88.1289997
  87.8471587  31.3014084  88.4004111 112.9039992  28.0174990  11.8249997
 112.2519992  28.7114990  11.9139997 113.3689992  28.2274990  11.0149997
 112.8775357  28.1409544  11.7277056 108.9409992  28.8484990   4.4829997
 108.2089992  29.0774990   5.0559997 109.3879992  28.1354990   4.9379997
 108.9012753  28.7833984   4.6229698 108.8379992  27.0234990  13.5509997
 108.9179992  27.7864990  14.1229997 108.2369992  27.3024990  12.8609997
 108.7676547  27.1657468  13.5360029 100.5859992  29.4794990   6.3659997
 100.2559992  29.1084990   5.5479997 101.1739992  28.8084990   6.7129997
 100.6203182  29.3380648   6.3009898 101.9529992  32.9074990   9.0469997
 101.8579992  32.3284990   8.2909997 102.6819992  32.5364990   9.5429997
 102.0386011  32.7780572   9.0106011 100.9529992  28.2474990   9.9989997
 101.5179992  28.3694990   9.2369997 101.2709992  28.8854990  10.6379997
 101.0733619  28.3504388   9.9810019 107.2619992  33.7514990  10.7329997
 107.0209992  34.4134990  11.3809997 107.0639992  32.9164990  11.1579997
 107.2022662  33.7292704  10.8791008 101.8329992  32.6474990  14.7169997
 101.5209992  33.4294990  15.1719997 101.1829992  32.4944990  14.0309997
 101.7024858  32.7337882  14.6865344 107.8119992  28.0114990   2.1689997
 108.3909992  28.1614990   2.9149997 108.2259992  28.4814990   1.4449997
 107.9473358  28.0955966   2.1733935  98.7529992  28.8454990  13.9449997
  98.8229992  29.4964990  14.6439997  97.8619992  28.9484990  13.6099997
  98.6421690  28.9484261  13.9953026  90.0299992  32.3614990  77.3859997
  90.3829992  31.9814990  78.1899997  89.0809992  32.2674990  77.4719997
  89.9500985  32.2967330  77.5077738 105.5379992  34.7474990   5.6039997
 106.0119992  35.0434990   6.3809997 104.9749992  35.4864990   5.3709997
 105.5267890  34.8878047   5.6788084 100.0719992  34.7184990  15.4799997
 100.0799992  34.5824990  14.5329997  99.1559992  34.6014990  15.7319997
  99.9492528  34.6840475  15.3843226 111.5099992  19.7614990   1.9809997
 110.6099992  19.8994990   2.2769997 111.7619992  20.5924990   1.5799997
 111.4207727  19.8928705   1.9672935  99.5759992  28.5484990   3.9549997
  99.2839992  29.3164990   3.4639997  98.9019992  27.8894990   3.7919997
  99.4448843  28.5644537   3.8657695 112.6999992  34.1274990   0.3579997
 112.7729992  35.0664990   0.5279997 113.6049992  33.8224990   0.3019997
 112.8324170  34.2148294   0.3737045  95.6689992  30.9114990  12.7699997
  95.1679992  30.8834990  11.9549997  95.6749992  30.0064990  13.0799997
  95.6011690  30.7852234  12.7002770  95.4199992  33.6924990   9.6539997
  96.3659992  33.5474990   9.6349997  95.3069992  34.4764990  10.1909997
  95.5343578  33.7786708   9.7240300 113.6169992  34.3584990  15.3369997
 113.5679992  33.4024990  15.2989997 112.7909992  34.6254990  15.7379997
 113.4985096  34.2638416  15.3860698 104.5959992  33.9324990  14.2129997
 104.6829992  34.7584990  14.6879997 103.7319992  33.6024990  14.4619997
 104.4911944  34.0009871  14.3116558 105.0099992  37.7044990   4.0189997
 104.9349992  37.5834990   3.0719997 105.0429992  38.6534990   4.1369997
 105.0042083  37.8162639   3.9054973  90.4859992  35.9844990  90.7809997
  89.8839992  35.4284990  90.2859997  90.7669992  36.6514990  90.1549997
  90.4415757  35.9985755  90.6285657  98.6639992  36.4934990   5.7999997
  98.8159992  36.1454990   6.6779997  97.8129992  36.1364990   5.5439997
  98.5698344  36.3975891   5.8856851 108.1119992  36.8584990   1.0209997
 108.4869992  36.1144990   0.5499997 108.1159992  36.5884990   1.9389997
 108.1638969  36.7200920   1.0806475 107.7809992  36.7844990   3.7699997
 106.8459992  36.8844990   3.9489997 108.0609992  36.0744990   4.3489997
 107.6909471  36.7022944   3.8726678 110.7689992  25.8514990  15.8169997
 110.3619992  26.3314990  15.0959997 110.8099992  24.9454990  15.5089997
 110.7188403  25.7947989  15.6767253  97.9179992  32.2354990  13.8129997
  98.1339992  31.8734990  14.6729997  97.0629992  31.8604990  13.6039997
  97.8319082  32.1353377  13.9022396 100.5369992  20.7054990   9.8089997
  99.6749992  20.6184990   9.4009997 100.5149992  21.5614990  10.2369997
 100.4160557  20.8093078   9.8110202 105.1999992  20.4274990  13.1839997
 105.6199992  20.0124990  13.9369997 104.2669992  20.2484990  13.3009997
 105.1313736  20.3464921  13.3028950 108.5259992  24.1824990  14.0369997
 108.0119992  24.0574990  14.8349997 108.3709992  25.0954990  13.7929997
 108.4347802  24.2887433  14.1131504 109.2889992  29.0434990  -0.2020003
 109.3309992  28.8214990  -1.1320003 110.1379992  29.4424990  -0.0120003
 109.4095253  29.0670510  -0.3036196 104.8619992  22.9194990   0.4689997
 104.6079992  22.9384990   1.3909997 104.6049992  22.0484990   0.1669997
 104.7924508  22.8043292   0.5544786  78.6079992  23.2174990  90.1879997
  77.7149992  23.5554990  90.1209997  78.5089992  22.3614990  90.6059997
  78.4725241  23.1480941  90.2352982 100.6279992  25.6704990  10.9039997
  99.9859992  25.6304990  11.6129997 100.6649992  26.5974990  10.6659997
 100.5451659  25.7902540  10.9688463 100.6249992  25.8914990   5.8159997
  99.7319992  25.5514990   5.7569997 101.0759992  25.5144990   5.0599997
 100.5637185  25.7940220   5.7057698 106.1609992  26.3074990   4.6329997
 105.7519992  27.1224990   4.3409997 106.8809992  26.1674990   4.0189997
 106.2024439  26.4000383   4.5100098 105.2629992  26.4834990  16.1209997
 104.6999992  25.7784990  16.4419997 106.0889992  26.3624990  16.5889997
 105.2976674  26.3707176  16.2281734 107.1649992  25.7534990   7.4469997
 106.9699992  26.3594990   6.7319997 107.3469992  24.9204990   7.0129997
 107.1629195  25.7237936   7.2904079  98.3779992  25.9914990  12.7709997
  98.3399992  26.3914990  13.6399997  97.8869992  25.1744990  12.8609997
  98.3064374  25.9358228  12.9020980 101.7439992  23.3654990  -0.4300003
 101.3129992  22.9204990   0.2989997 101.0259992  23.7364990  -0.9430003
 101.5879176  23.3547063  -0.3995087  94.9859992  23.1074990   6.6219997
  95.6169992  23.0784990   7.3409997  95.4359992  22.6824990   5.8909997
  95.1331082  23.0461269   6.6216307  96.2599992  23.8534990   2.0459997
  96.7349992  24.4444990   1.4609997  95.5429992  24.3834990   2.3929997
  96.2280406  24.0061011   2.0128495 106.4289992  27.3914990  12.1179997
 106.7529992  26.7604990  11.4749997 105.9889992  26.8574990  12.7789997
 106.4138707  27.2328261  12.1193195  90.8959992  31.0334990  79.6119997
  90.6189992  30.3054990  80.1679997  91.8229992  31.1524990  79.8179997
  90.9834181  30.9500068  79.7158972 103.2069992  23.3194990   6.9019997
 102.2959992  23.3764990   7.1909997 103.7119992  23.2594990   7.7129997
 103.1506873  23.3191838   7.0511190  98.0349992  24.9484990   5.7289997
  97.1459992  25.0474990   5.3889997  98.3309992  24.1064990   5.3829997
  97.9534001  24.8482473   5.6357318 101.6879992  24.9484990   3.3859997
 102.6199992  25.0774990   3.5639997 101.4729992  25.6174990   2.7359997
 101.7864472  25.0565817   3.3224873 107.6119992  22.5544990  10.1659997
 106.9349992  22.6854990  10.8299997 107.1259992  22.3994990   9.3559997
 107.4537265  22.5514665  10.1473380 100.3619992  26.1424990   0.9519997
  99.8199992  25.7634990   0.2609997 101.1959992  26.3374990   0.5239997
 100.4004390  26.1169091   0.7994374 110.8989992  38.2254990  16.4429997
 111.0989992  38.6494990  15.6089997 111.5549992  38.5694990  17.0499997
 111.0149937  38.3299993  16.4108645  98.4969992  30.6994990  16.0509997
  99.2289992  30.9544990  16.6129997  97.7169992  30.9044990  16.5669997
  98.4916526  30.7620438  16.1975168 104.5269992  26.1064990   8.7889997
 105.0909992  25.5604990   8.2419997 104.3789992  25.5854990   9.5779997
 104.5843037  25.9611798   8.8207212  99.5289992  22.2434990   5.2079997
  99.2109992  21.3404990   5.1719997 100.3099992  22.2454990   4.6549997
  99.5911079  22.1202240   5.1282908 103.1529992  24.4954990  11.2029997
 102.3179992  24.9494990  11.3139997 103.6769992  24.7714990  11.9549997
 103.1096072  24.5948960  11.3198118  78.2589992  35.0214990  88.6229997
  78.4759992  34.0894990  88.5919997  78.5059992  35.2964990  89.5069997
  78.3220543  34.9310877  88.7381412 103.6969992  30.7084990   2.8879997
 102.9519992  30.2004990   2.5659997 103.5629992  30.7574990   3.8339997
 103.5769334  30.6456144   2.9718892 110.8469992  29.8414990  11.6749997
 111.4889992  30.2974990  11.1309997 110.0169992  29.9544990  11.2119997
 110.8226536  29.9191813  11.5379579 107.5949992  23.5224990   1.0869997
 106.6559992  23.6334990   0.9359997 107.8919992  24.3784990   1.3939997
 107.5066136  23.6534977   1.1078568 105.2169992  30.8924990  14.1249997
 104.8709992  30.5104990  14.9319997 105.0169992  31.8254990  14.1959997
 105.1425987  30.9664013  14.2450443 108.3129992  25.3894990   2.7479997
 109.2049992  25.2514990   3.0669997 108.3699992  26.1804990   2.2109997
 108.4427380  25.4774777   2.7190981  98.8219992  30.0034990   8.6579997
  99.5669992  30.0004990   8.0559997  98.8999992  29.1794990   9.1389997
  98.9343366  29.8917395   8.6407412 105.8229992  32.1664990   1.9129997
 105.5279992  32.9934990   2.2949997 105.1199992  31.5474990   2.1099997
 105.6876379  32.1959182   1.9918636  95.8299992  28.4634990  13.9729997
  96.0529992  28.0454990  14.8039997  95.2279992  27.8514990  13.5499997
  95.7791513  28.3234617  14.0296722 102.8469992  27.9804990  16.1859997
 102.5509992  27.8154990  15.2899997 103.7779992  27.7604990  16.1749997
 102.9324401  27.9281891  16.0620189 107.4669992  33.3544990  14.0749997
 106.5659992  33.5374990  13.8079997 107.5009992  33.6134990  14.9959997
 107.3483861  33.4145245  14.1629517  83.0579992  33.0434990  78.2889997
  83.2049992  32.5234990  79.0789997  83.0549992  33.9504990  78.5949997
  83.0777300  33.0948975  78.4385877 113.1979992  25.5984990   2.4429997
 112.6439992  25.2024990   1.7699997 113.2989992  26.5094990   2.1649997
 113.1358589  25.6673904   2.3133839 113.1609992  31.3994990  15.2799997
 112.3099992  31.6374990  14.9119997 113.7519992  31.3824990  14.5259997
 113.1243831  31.4297623  15.1278448 111.4929992  34.3844990   2.9079997
 111.1209992  33.5594990   3.2169997 111.7709992  34.2014990   2.0099997
 111.4795807  34.2467031   2.8290063 108.6539992  29.1924990   9.9289997
 107.7259992  28.9614990   9.9019997 109.1049992  28.4154990   9.5989997
 108.5878165  29.0557785   9.8806772 101.1969992  33.5214990   6.0619997
 101.7239992  34.2944990   5.8619997 100.3169992  33.7454990   5.7599997
 101.1502121  33.6577344   5.9937460  96.9519992  28.3834990   0.6489997
  97.5679992  29.0104990   1.0289997  96.0899992  28.6994990   0.9209997
  96.9197678  28.5119423   0.7377192 102.6239992  31.1844990   5.6379997
 102.3829992  32.1094990   5.6799997 101.8839992  30.7254990   6.0349997
 102.4909463  31.2490969   5.6974279 103.1389992  35.3334990  11.9529997
 103.5019992  36.1874990  11.7199997 103.6709992  35.0414990  12.6939997
 103.2605141  35.4108907  12.0212079 101.3069992  36.2054990   5.1839997
 100.3579992  36.3114990   5.2349997 101.6589992  37.0264990   5.5279997
 101.2245647  36.3310029   5.2374882 106.6829992  31.4324990  11.6539997
 106.2569992  31.2044990  12.4799997 107.2639992  30.6934990  11.4719997
 106.7032088  31.3014393  11.7424454  79.5109992  30.2954990  78.7989997
  78.8249992  30.6484990  79.3659997  80.0339992  31.0584990  78.5529997
  79.4879033  30.4468757  78.8432644 108.8859992  32.3614990   0.7279997
 109.2389992  31.9814990   1.5319997 107.9369992  32.2674990   0.8149997
 108.8060956  32.2967867   0.8498005 109.3419992  35.9844990  14.1229997
 108.7399992  35.4284990  13.6279997 109.6229992  36.6514990  13.4969997
 109.2975757  35.9985755  13.9705657 113.3889992  36.8404990   0.9289997
 114.1329992  37.4264990   0.7889997 112.6949992  37.4094990   1.2619997
 113.3969809  36.9975830   0.9548572  97.4639992  23.2174990  13.5309997
  96.5709992  23.5554990  13.4629997  97.3649992  22.3614990  13.9489997
  97.3284752  23.1480986  13.5781644 109.7519992  31.0334990   2.9549997
 109.4749992  30.3054990   3.5109997 110.6789992  31.1524990   3.1599997
 109.8394419  30.9499436   3.0588264  97.1149992  35.0214990  11.9659997
  97.3319992  34.0894990  11.9349997  97.3619992  35.2964990  12.8489997
  97.1780948  34.9310976  12.0811268 101.9139992  33.0434990   1.6309997
 102.0609992  32.5234990   2.4209997 101.9109992  33.9504990   1.9379997
 101.9337102  33.0948964   1.7805907  98.3669992  30.2954990   2.1419997
  97.6809992  30.6484990   2.7089997  98.8899992  31.0584990   1.8949997
  98.3438402  30.4468912   2.1861783 106.1979992  22.9584990  12.4209997
 106.8969992  23.0324990  13.0709997 105.8179992  22.0934990  12.5749997
 106.2422662  22.8517050  12.5307412 106.9829992  22.6104990   3.5179997
 107.2029992  23.0814990   2.7139997 107.5409992  23.0044990   4.1879997
 107.0886044  22.7282946   3.4985207  87.3419992  22.9584990  89.0779997
  88.0409992  23.0324990  89.7279997  86.9619992  22.0934990  89.2329997
  87.3862095  22.8517402  89.1877982 104.6519992  34.7404990   2.3809997
 103.8349992  35.2374990   2.4329997 105.1809992  35.2164990   1.7399997
 104.6118125  34.8727000   2.3015289 104.1829992  24.3384990   4.3529997
 104.9949992  24.8424990   4.3989997 103.9379992  24.1934990   5.2669997
 104.2611091  24.3879366   4.4828552 104.7189992  25.3244990  13.5369997
 104.8379992  25.8984990  14.2939997 105.3739992  24.6364990  13.6519997
 104.8238684  25.3100205  13.6561656 105.0669992  21.4194990   5.2909997
 104.7199992  22.0364990   5.9349997 105.7249992  21.9204990   4.8089997
 105.1084430  21.5716860   5.3140046 101.9899992  35.7844990   2.3619997
 102.1509992  36.5844990   1.8619997 101.7929992  36.0914990   3.2469997
 101.9853906  35.9353690   2.4132316 100.7239992  22.4824990   1.9779997
 100.6409992  23.3704990   2.3249997 101.6139992  22.2174990   2.2099997
 100.8329331  22.5681177   2.0568067 110.9229992  23.2314990  14.3719997
 110.0069992  23.4934990  14.2849997 111.2589992  23.2284990  13.4759997
 110.8428499  23.2670174  14.2388748 109.5249992  26.9814990   8.4679997
 108.7279992  26.5664990   8.1399997 109.9699992  26.2914990   8.9589997
 109.4760367  26.8313372   8.4894897  98.9829992  32.9094990   1.0379997
  99.5749992  33.6094990   1.3149997  99.4419992  32.4764990   0.3189997
  99.1261652  32.9467686   0.9786515  97.2989992  25.5744990   0.1539997
  97.2539992  26.5134990   0.3329997  96.4109992  25.3384990  -0.1150003
  97.1728166  25.6711698   0.1421507  88.1269992  22.6104990  80.1749997
  88.3469992  23.0814990  79.3719997  88.6849992  23.0044990  80.8459997
  88.2325851  22.7283272  80.1556134 110.6119992  36.2374990  10.0899997
 110.4559992  36.9164990   9.4329997 111.5439992  36.3094990  10.2929997
 110.7167328  36.3401586  10.0275529  98.1069992  20.3554990   8.8269997
  97.8779992  20.4144990   7.8999997  97.6639992  19.5644990   9.1339997
  98.0157387  20.2566412   8.7415223  97.0369992  34.2964990   4.9879997
  96.2049992  34.7684990   5.0149997  97.5829992  34.8064990   4.3889997
  96.9968710  34.4300317   4.9107570  96.3259992  36.9084990  16.3179997
  96.8659992  36.6924990  17.0779997  95.8439992  36.1034990  16.1279997
  96.3348485  36.7700463  16.3964870 100.9229992  35.8284990  17.9379997
 101.6909992  35.3694990  18.2789997 100.9019992  35.6024990  17.0079997
 101.0252135  35.7351680  17.8589473 105.0149992  35.3364990  -0.6870003
 104.3709992  34.7054990  -0.3650003 105.7769992  34.8054990  -0.9180003
 105.0298708  35.1783171  -0.6741539 107.4999992  34.2084990  16.6669997
 107.1489992  33.3514990  16.9099997 108.2259992  34.3504990  17.2739997
 107.5501590  34.1105189  16.7822889 109.6189992  35.1534990  -0.4530003
 109.9019992  34.3584990  -0.0000003 110.3589992  35.3864990  -1.0140003
 109.7577295  35.0762349  -0.4668531  96.2329992  30.7194990  17.2719997
  96.3769992  29.8174990  16.9859997  95.4599992  31.0054990  16.7849997
  96.1482266  30.6346548  17.1670102 100.5739992  31.0624990  -0.5950003
 100.6379992  30.2684990  -0.0650003 101.2269992  30.9444990  -1.2850003
 100.6710483  30.9377496  -0.6156593  85.7959992  34.7404990  79.0379997
  84.9789992  35.2374990  79.0909997  86.3249992  35.2164990  78.3979997
  85.7557898  34.8728123  78.9587274 102.8879992  30.6884990  16.7049997
 102.5599992  30.9594990  15.8479997 103.0399992  29.7474990  16.6169997
 102.8636412  30.5984058  16.5757804 108.6229992  30.6044990  14.0879997
 109.3679992  31.1934990  13.9689997 107.8649992  31.1864990  14.1509997
 108.6225289  30.7637067  14.0802292  97.0649992  27.9194990  16.6919997
  97.4729992  27.0624990  16.5709997  96.8049992  27.9334990  17.6129997
  97.0857082  27.8040596  16.7999469 101.7229992  29.0354990   1.7109997
 101.2639992  28.5514990   2.3959997 101.9779992  28.3664990   1.0749997
 101.6945997  28.8788491   1.7188734 101.0119992  26.9284990  14.0669997
 100.3939992  27.6024990  14.3469997 101.3559992  27.2494990  13.2329997
 100.9738078  27.0642298  13.9926609 102.7939992  27.2784990  -0.0270003
 102.6139992  27.1234990  -0.9540003 103.7439992  27.3864990   0.0179997
 102.8977804  27.2718821  -0.1478034 106.0319992  29.3994990  17.3439997
 106.9849992  29.4834990  17.3169997 105.8719992  28.6874990  17.9629997
 106.1407320  29.3147292  17.4239933 112.1839992  29.6324990  -0.5810003
 111.9109992  29.2084990  -1.3940003 112.2239992  30.5644990  -0.7980003
 112.1520201  29.7003523  -0.7216452 101.3519992  24.2834990  15.1489997
 101.5019992  23.5544990  14.5469997 101.3539992  25.0604990  14.5899997
 101.3727967  24.2887720  14.9910523 101.7639992  22.6524990  12.6419997
 102.2999992  23.1044990  11.9899997 100.9119992  22.5444990  12.2189997
 101.7221795  22.6997444  12.4956211  85.3269992  24.3384990  81.0099997
  86.1389992  24.8424990  81.0559997  85.0819992  24.1934990  81.9239997
  85.4051091  24.3879366  81.1398552 103.3459992  28.0924990  12.8809997
 104.0969992  27.9364990  12.3079997 103.0069992  28.9444990  12.6059997
 103.4029587  28.1863149  12.7654060 107.7619992  25.9074990  17.9099997
 107.9539992  24.9764990  17.7979997 108.6189992  26.3324990  17.8989997
 107.9042176  25.8375090  17.8931757 109.0779992  28.6964990  15.9869997
 108.7969992  29.4054990  15.4089997 110.0209992  28.6234990  15.8359997
 109.1669272  28.7836704  15.8874976  99.8299992  25.4814990  17.0599997
  99.0629992  24.9484990  16.8499997 100.5089992  25.1714990  16.4609997
  99.8168292  25.3666360  16.9502693 102.5699992  20.1094990  13.0729997
 102.4719992  21.0554990  12.9679997 101.8269992  19.7364990  12.5969997
 102.4562123  20.1886811  12.9943204 103.8339992  24.4304990  16.6369997
 103.5979992  24.2114990  17.5379997 103.0509992  24.2234990  16.1269997
 103.6958382  24.3725340  16.6913991 106.5499992  23.5584990  15.7119997
 105.6019992  23.5904990  15.8439997 106.8619992  22.9324990  16.3659997
 106.4625293  23.4782934  15.8184130 108.1839992  22.1924990  17.7169997
 108.0869992  21.2404990  17.7119997 107.8619992  22.4604990  18.5779997
 108.1272468  22.0985896  17.8326192  98.0109992  23.4014990  16.7649997
  98.2219992  22.6954990  16.1549997  97.8989992  22.9644990  17.6089997
  98.0247668  23.2456619  16.7955445 102.7919992  19.4034990  15.7439997
 103.5029992  18.7634990  15.7299997 102.6909992  19.6694990  14.8309997
 102.8756858  19.3518591  15.6185501  85.8629992  25.3244990  90.1949997
  85.9819992  25.8984990  90.9519997  86.5179992  24.6364990  90.3099997
  85.9678684  25.3100205  90.3141656 103.1449992  21.0854990  17.7979997
 103.0139992  20.6104990  16.9779997 102.5459992  21.8304990  17.7429997
 103.0460829  21.1210949  17.6781823 102.6919992  37.9684990   0.9739997
 103.6249992  38.1264990   1.1179997 102.4269992  38.6444990   0.3489997
 102.7839846  38.0814567   0.9092930  96.2599992  32.6054990   0.4569997
  97.1739992  32.6844990   0.7299997  96.2669992  31.9184990  -0.2090003
  96.3860624  32.5234074   0.4043045  94.9089992  37.9984990   5.5339997
  94.2619992  37.5364990   5.0019997  95.2639992  37.3264990   6.1169997
  94.8683741  37.8444785   5.5399157  95.7789992  36.0784990   7.3389997
  95.4449992  35.1984990   7.5109997  96.0009992  36.4244990   8.2039997
  95.7632565  36.0047410   7.4794263 113.3279992  36.8884990  10.3199997
 113.3059992  37.0734990  11.2579997 114.0179992  37.4564990   9.9789997
 113.4183383  36.9907104  10.4024580 112.8909992  36.4554990  13.2409997
 112.4039992  35.7194990  12.8699997 113.4399992  36.0614990  13.9189997
 112.8986101  36.3016267  13.2819034 111.3419992  32.2454990  17.8789997
 110.4759992  32.1404990  18.2739997 111.7179992  33.0034990  18.3259997
 111.2744940  32.3336141  17.9933958 112.6429992  30.5014990   3.3939997
 113.4929992  30.9224990   3.5209997 112.6479992  29.7614990   4.0009997
 112.7601143  30.4591106   3.4934732 113.0369992  28.5554990   5.2169997
 112.3109992  28.0754990   5.6149997 113.6179992  28.7604990   5.9489997
 113.0162504  28.5175592   5.3704199  86.2109992  21.4194990  81.9479997
  85.8639992  22.0364990  82.5929997  86.8689992  21.9204990  81.4669997
  86.2525290  21.5716384  81.9711635 112.7959992  31.3404990  10.1649997
 113.6299992  30.9624990   9.8839997 112.9079992  32.2834990  10.0459997
 112.9251917  31.4162954  10.1104844 111.2819992  34.2184990  12.4719997
 110.6349992  34.5434990  13.0969997 110.7649992  33.7774990  11.7979997
 111.1234112  34.2034133  12.4665272 113.3049992  28.4564990   1.6079997
 112.7839992  28.8124990   0.8899997 113.2719992  29.1314990   2.2869997
 113.2290955  28.5965023   1.6012634 111.6539992  25.6954990   0.1589997
 111.7509992  26.3624990  -0.5210003 111.5139992  24.8804990  -0.3220003
 111.6483407  25.6765670   0.0008312 110.8239992  27.0764990   5.7799997
 110.6739992  26.1314990   5.7599997 110.4699992  27.3574990   6.6239997
 110.7556351  26.9851656   5.8913202  95.8589992  29.1544990   9.7909997
  96.0429992  29.0724990   8.8549997  96.7079992  29.0304990  10.2139997
  95.9990132  29.1265066   9.7201460 111.6799992  29.0464990  15.4189997
 112.2629992  28.3114990  15.6109997 112.2439992  29.8184990  15.4659997
 111.8359781  29.0503156  15.4516146 113.1769992  26.9494990  16.1039997
 112.3129992  26.5704990  15.9379997 113.7809992  26.2104990  16.0289997
 113.1405394  26.7978378  16.0711778 110.5339992  24.6584990   4.2429997
 110.8139992  23.7514990   4.3669997 111.2929992  25.0924990   3.8539997
 110.6749258  24.5930935   4.2073691 111.1459992  25.2404990   9.6789997
 112.0789992  25.4524990   9.6439997 110.9109992  25.3414990  10.6009997
 111.2419517  25.2831844   9.7989113  83.1339992  35.7844990  79.0199997
  83.2949992  36.5844990  78.5189997  82.9369992  36.0914990  79.9049997
  83.1293919  35.9354140  79.0710988 111.1749992  25.9774990  12.4549997
 110.3319992  26.2454990  12.8199997 111.6179992  26.7994990  12.2439997
 111.1194035  26.1253351  12.4764770  95.4559992  24.4244990  15.9309997
  96.3759992  24.3024990  16.1679997  95.0069992  23.6744990  16.3209997
  95.5210500  24.3064576  16.0161016 113.4579992  19.9574990  17.8079997
 113.8079992  19.3034990  17.2019997 113.6049992  20.7944990  17.3679997
 113.5257192  19.9812545  17.6656712 111.1479992  21.9214990   4.2909997
 111.3299992  21.4724990   5.1159997 110.5479992  21.3374990   3.8269997
 111.0918187  21.7810563   4.3412721  96.6779992  22.7374990   8.8229997
  97.1229992  21.9454990   9.1249997  97.1439992  23.4534990   9.2529997
  96.8019718  22.7259546   8.9225247  94.9819992  25.7364990   9.8919997
  95.4739992  25.5154990   9.1009997  95.3439992  26.5764990  10.1729997
  95.0982923  25.8198480   9.8217389 112.9779992  22.0664990  16.1569997
 112.0609992  22.3374990  16.1209997 113.1009992  21.5314990  15.3729997
 112.8690828  22.0312711  16.0460767 113.0139992  21.9894990   0.8189997
 113.4269992  21.2684990   0.3439997 113.6959992  22.6584990   0.8769997
 113.1626060  21.9813741   0.7619233  95.2949992  21.9944990   3.9459997
  94.3699992  22.2024990   3.8169997  95.7489992  22.4784990   3.2559997
  95.2296298  22.0884311   3.8350433 110.0659992  36.9784990   5.8919997
 110.7179992  36.6304990   5.2839997 110.5769992  37.4664990   6.5379997
 110.2242872  36.9968248   5.8960964  81.8679992  22.4824990  78.6359997
  81.7849992  23.3704990  78.9819997  82.7579992  22.2174990  78.8669997
  81.9769751  22.5682482  78.7146066  95.2589992  20.7324990  12.2899997
  94.5939992  20.4864990  12.9329997  94.8159992  21.3544990  11.7129997
  95.1081168  20.7829225  12.2999830  97.4509992  33.9074990  16.4349997
  96.6299992  34.0824990  15.9739997  97.1989992  33.8344990  17.3549997
  97.3045594  33.9215728  16.4963593 100.4049992  34.8814990  12.6929997
  99.9799992  35.6914990  12.4109997 101.3089992  34.9674990  12.3909997
 100.4690706  35.0039557  12.6135836 104.7159992  36.2804990  15.6529997
 104.9009992  35.9474990  16.5309997 105.5629992  36.5904990  15.3309997
 104.8557291  36.2768214  15.7296140 107.0609992  37.5664990  14.8969997
 107.7379992  36.9334990  14.6569997 107.3829992  37.9674990  15.7039997
 107.1971618  37.5341147  14.9732802 111.9789992  20.1564990  13.9759997
 111.1659992  20.4814990  13.5889997 112.2119992  19.3954990  13.4429997
 111.8991347  20.0981891  13.8509824  97.8069992  38.1384990  12.7409997
  97.0859992  38.5784990  12.2899997  97.4409992  37.8874990  13.5889997
  97.6589632  38.1647235  12.7939649 100.2739992  37.7384990  11.7699997
  99.4089992  37.8104990  12.1739997 100.2189992  38.2854990  10.9869997
 100.1482289  37.8223242  11.7193749 104.9849992  37.6264990  10.9459997
 104.5279992  38.1554990  10.2919997 105.1469992  38.2294990  11.6709997
 104.9443919  37.7803990  10.9545740 107.3119992  36.5044990  11.8909997
 106.4079992  36.6694990  11.6249997 107.7409992  37.3574990  11.8249997
 107.2462017  36.6424184  11.8456495  92.0669992  23.2314990  91.0299997
  91.1509992  23.4934990  90.9419997  92.4029992  23.2284990  90.1329997
  91.9869789  23.2669637  90.8967829 109.9159992  38.0744990  12.1859997
 109.7349992  38.9904990  11.9749997 110.0929992  37.6634990  11.3389997
 109.9151377  38.1443365  12.0427178  97.2219992  36.7614990   9.6509997
  97.2029992  36.3354990  10.5079997  98.0259992  36.4424990   9.2419997
  97.3281393  36.6600297   9.7130155  99.3629992  35.4714990   8.3059997
  99.1439992  34.5544990   8.4759997 100.1869992  35.6114990   8.7719997
  99.4444702  35.3650523   8.3922510 101.8999992  35.9414990   9.1549997
 102.1129992  35.0534990   8.8679997 101.9649992  35.9064990  10.1089997
 101.9379149  35.8153338   9.2447351 105.4089992  21.6054990   8.2989997
 104.7339992  20.9754990   8.5549997 105.9729992  21.1214990   7.6959997
 105.3929363  21.4538886   8.2524810 110.5509992  19.7124990   8.4119997
 111.1549992  20.2604990   7.9099997 109.6819992  20.0314990   8.1709997
 110.5160419  19.8305628   8.3107741 112.2779992  20.8514990   6.7449997
 112.8899992  20.3374990   6.2179997 112.6609992  21.7284990   6.7679997
 112.4133867  20.8997613   6.6760888  97.7349992  20.2394990   6.1209997
  96.9579992  20.0044990   5.6139997  98.2659992  19.4424990   6.1299997
  97.7003735  20.0996462   6.0528090  96.5719992  20.0374990   1.9249997
  97.0109992  20.6484990   1.3329997  95.9379992  20.5754990   2.3989997
  96.5463859  20.1939076   1.9080287 102.3149992  20.1654990   5.9339997
 103.1889992  20.5544990   5.9049997 102.1789992  19.9504990   6.8569997
 102.4161953  20.1896654   6.0547599  90.6689992  26.9814990  85.1259997
  89.8719992  26.5664990  84.7969997  91.1139992  26.2914990  85.6169997
  90.6200317  26.8313197  85.1473556 107.8709992  20.1954990   7.5839997
 107.9479992  20.2914990   6.6339997 107.5959992  19.2884990   7.7119997
 107.8443233  20.0859093   7.4713665 109.2249992  20.2214990   3.2759997
 108.5219992  20.8364990   3.0659997 108.7799992  19.3844990   3.4069997
 109.0686550  20.1924679   3.2649819  96.4729992  35.9854990   2.8219997
  95.7879992  35.9474990   2.1549997  96.4759992  36.8974990   3.1099997
  96.3796806  36.1036669   2.7696961  98.4329992  21.9534990   0.3669997
  98.9239992  21.3234990  -0.1600003  99.0559992  22.2494990   1.0299997
  98.5845304  21.9072387   0.3844922 103.4589992  22.2464990   2.8239997
 103.6369992  21.5994990   3.5069997 103.4049992  23.0804990   3.2909997
 103.4760678  22.2706615   2.9806283 105.3369992  37.1944990   1.2199997
 106.2029992  37.5614990   1.0419997 105.0899992  36.7554990   0.4059997
 105.4221853  37.1854021   1.0855813 112.0459992  36.7574990   3.8989997
 111.8519992  36.0094990   3.3339997 112.0069992  37.5154990   3.3159997
 112.0141645  36.7575797   3.7428131  97.6929992  20.7534990  15.6389997
  97.3269992  19.9874990  16.0809997  98.6059992  20.7824990  15.9249997
  97.7663172  20.6525335  15.7381872  99.6659992  20.1034990  17.1739997
 100.5649992  19.8294990  16.9899997  99.2799992  19.3614990  17.6389997
  99.7367307  19.9657207  17.2117080  98.2909992  36.9054990  -0.1530003
  98.0229992  37.1914990   0.7209997  99.0619992  36.3594990  -0.0000003
  98.3585926  36.8707790  -0.0128812  80.1269992  32.9094990  77.6959997
  80.7189992  33.6094990  77.9719997  80.5859992  32.4764990  76.9769997
  80.2701172  32.9467371  77.6365163 108.0869992  19.4364990  17.3569997
 108.1639992  19.0104990  18.2099997 108.9809992  19.4494990  17.0139997
 108.2183263  19.3799345  17.4274366 111.2639992  35.5084990  16.0489997
 110.4819992  35.3224990  15.5289997 111.1919992  36.4384990  16.2659997
 111.1472975  35.6086973  16.0071822 125.6699992  29.3954990   6.0799997
 125.7589992  30.3394990   5.9469997 125.0309992  29.1204990   5.4219997
 125.5958378  29.4873846   5.9729258 124.6029992  28.6504990   9.4989997
 124.5639992  28.0044990  10.2039997 124.2799992  28.1834990   8.7269997
 124.5540469  28.4990005   9.4912803 116.9709992  28.2644990  11.0919997
 117.0119992  27.6394990  11.8149997 117.6739992  28.8884990  11.2739997
 117.0716223  28.2632318  11.2156164 128.3089992  31.5894990   7.7999997
 127.8679992  30.8694990   8.2509997 128.2959992  32.3104990   8.4299997
 128.2469215  31.5884303   7.9468088 117.8949992  32.7144990   9.6269997
 117.5249992  31.9124990   9.2569997 118.8359992  32.5464990   9.6729997
 117.9715984  32.5819649   9.5825586 114.5049992  26.3744990   5.0189997
 114.0569992  27.2204990   5.0009997 113.9439992  25.7954990   4.5039997
 114.3678546  26.4119004   4.9468874 115.2149992  28.5364990   7.1449997
 115.4289992  27.7664990   7.6719997 115.9529992  28.6264990   6.5419997
 115.3440073  28.4433546   7.1355786 125.4199992  36.6934990   8.0119997
 126.0399992  36.0174990   7.7389997 125.2119992  36.4754990   8.9209997
 125.4767679  36.5715032   8.0974518  91.7559992  36.2374990  86.7479997
  91.5999992  36.9164990  86.0909997  92.6879992  36.3094990  86.9509997
  91.8607328  36.3401586  86.6855529 122.9919992  31.0824990   9.9049997
 123.2959992  30.3964990   9.3099997 123.7139992  31.2014990  10.5229997
 123.1311240  31.0047325   9.9070941 131.6549992  22.6844990  10.7649997
 131.7039992  23.2944990  11.5009997 132.0809992  23.1454990  10.0419997
 131.7192851  22.8303266  10.7680532 126.1329992  25.4764990  10.2319997
 126.2749992  24.5304990  10.2519997 126.0269992  25.6834990   9.3039997
 126.1381051  25.3749706  10.1092249 119.2879992  23.5784990   7.5049997
 119.3309992  24.4384990   7.0859997 118.8299992  23.0254990   6.8709997
 119.2320163  23.6214174   7.3620604 127.0099992  23.7094990   5.9049997
 127.6559992  23.3804990   6.5299997 127.5199992  24.2264990   5.2829997
 127.1674289  23.7344333   5.9063681 115.9079992  25.9754990   8.2669997
 116.5619992  25.4254990   8.6989997 115.9319992  25.7014990   7.3499997
 116.0007199  25.8632178   8.2021650 121.0639992  27.5254990   7.4819997
 121.6799992  26.9984990   7.9909997 120.4779992  26.8854990   7.0779997
 121.0690652  27.3668919   7.4970277 132.0469992  24.1624990  13.0009997
 131.3579992  24.8204990  12.9059997 132.0619992  23.9644990  13.9379997
 131.9547756  24.2257614  13.1145795 118.0979992  22.4964990  11.5789997
 117.8789992  23.0264990  10.8119997 117.4299992  22.7224990  12.2259997
 117.9776975  22.5995979  11.5615123 125.4669992  31.9964990   5.1229997
 125.1709992  31.6734990   4.2709997 125.1429992  32.8964990   5.1639997
 125.3827458  32.0739678   5.0120598  79.2509992  20.3554990  85.4849997
  79.0219992  20.4144990  84.5579997  78.8079992  19.5644990  85.7919997
  79.1597387  20.2566412  85.3995223 120.6669992  30.1714990  11.8659997
 119.9269992  30.7704990  11.9699997 121.3809992  30.7254990  11.5499997
 120.6623146  30.3282611  11.8375150 128.7739992  23.0004990   7.8859997
 128.5589992  22.2344990   8.4189997 129.4299992  23.4724990   8.3989997
 128.8332673  22.9595739   8.0281972 117.6919992  24.3884990   9.5309997
 118.3049992  25.0214990   9.9039997 118.2039992  23.9164990   8.8749997
 117.8451933  24.4113380   9.4933477 119.0739992  32.1364990  12.6529997
 119.0689992  33.0154990  12.2749997 118.2209992  32.0524990  13.0779997
 118.9579199  32.2455901  12.6586942 115.1959992  31.8074990   3.4349997
 114.9239992  32.0364990   2.5459997 115.2409992  32.6444990   3.8959997
 115.1648360  31.9521034   3.3756186 128.8209992  33.4284990  10.1479997
 127.8789992  33.4874990  10.3099997 129.0969992  34.3344990  10.0109997
 128.7295865  33.5590299  10.1516174 129.1209992  21.7154990  11.5649997
 128.3849992  22.3254990  11.5279997 129.8049992  22.1304990  11.0389997
 129.1125367  21.8552562  11.4888156 122.1239992  19.8014990   9.0309997
 122.0069992  18.8534990   8.9769997 121.2689992  20.1344990   9.3039997
 121.9923691  19.7165842   9.0605072 127.0729992  35.2094990   6.7729997
 127.4979992  34.5024990   6.2879997 127.3899992  36.0114990   6.3559997
 127.1740266  35.2210201   6.6502461 128.2319992  33.1104990   5.2819997
 127.9749992  32.4204990   4.6699997 128.3029992  32.6674990   6.1269997
 128.2064322  32.9561568   5.3125372  78.1809992  34.2964990  81.6459997
  77.3489992  34.7684990  81.6729997  78.7269992  34.8064990  81.0469997
  78.1408710  34.4300317  81.5687570 129.9179992  31.6774990  13.7589997
 130.0579992  31.0854990  13.0199997 130.0859992  32.5504990  13.4029997
 129.9598734  31.7144041  13.6096937 124.3909992  28.6394990   3.5319997
 123.6789992  29.1744990   3.1799997 125.0819992  28.6944990   2.8719997
 124.3869704  28.7201663   3.3945797 124.4449992  27.0964990   0.5699997
 125.1459992  27.1194990   1.2219997 124.7469992  26.4684990  -0.0860003
 124.5818202  27.0147223   0.5705591 131.7599992  28.0174990  11.8249997
 131.1079992  28.7114990  11.9139997 132.2249992  28.2274990  11.0149997
 131.7335357  28.1409544  11.7277056 127.7969992  28.8484990   4.4829997
 127.0649992  29.0774990   5.0559997 128.2439992  28.1354990   4.9379997
 127.7572753  28.7833984   4.6229698 127.6939992  27.0234990  13.5509997
 127.7739992  27.7864990  14.1229997 127.0929992  27.3024990  12.8609997
 127.6236547  27.1657468  13.5360029 119.4419992  29.4794990   6.3659997
 119.1119992  29.1084990   5.5479997 120.0299992  28.8084990   6.7129997
 119.4763182  29.3380648   6.3009898 120.8089992  32.9074990   9.0469997
 120.7139992  32.3284990   8.2909997 121.5379992  32.5364990   9.5429997
 120.8946011  32.7780572   9.0106011 119.8089992  28.2474990   9.9989997
 120.3739992  28.3694990   9.2369997 120.1269992  28.8854990  10.6379997
 119.9293619  28.3504388   9.9810019 126.1179992  33.7514990  10.7329997
 125.8769992  34.4134990  11.3809997 125.9199992  32.9164990  11.1579997
 126.0582662  33.7292704  10.8791008  77.4699992  36.9084990  92.9759997
  78.0099992  36.6924990  93.7349997  76.9879992  36.1034990  92.7859997
  77.4789101  36.7700216  93.0544364 120.6889992  32.6474990  14.7169997
 120.3769992  33.4294990  15.1719997 120.0389992  32.4944990  14.0309997
 120.5584858  32.7337882  14.6865344 126.6679992  28.0114990   2.1689997
 127.2469992  28.1614990   2.9149997 127.0819992  28.4814990   1.4449997
 126.8033358  28.0955966   2.1733935 117.6089992  28.8454990  13.9449997
 117.6789992  29.4964990  14.6439997 116.7179992  28.9484990  13.6099997
 117.4981690  28.9484261  13.9953026 124.3939992  34.7474990   5.6039997
 124.8679992  35.0434990   6.3809997 123.8309992  35.4864990   5.3709997
 124.3827890  34.8878047   5.6788084 118.9279992  34.7184990  15.4799997
 118.9359992  34.5824990  14.5329997 118.0119992  34.6014990  15.7319997
 118.8052528  34.6840475  15.3843226 130.3659992  19.7614990   1.9809997
 129.4659992  19.8994990   2.2769997 130.6179992  20.5924990   1.5799997
 130.2767727  19.8928705   1.9672935 118.4319992  28.5484990   3.9549997
 118.1399992  29.3164990   3.4639997 117.7579992  27.8894990   3.7919997
 118.3008843  28.5644537   3.8657695 131.5559992  34.1274990   0.3579997
 131.6289992  35.0664990   0.5279997 132.4609992  33.8224990   0.3019997
 131.6884170  34.2148294   0.3737045 114.5249992  30.9114990  12.7699997
 114.0239992  30.8834990  11.9549997 114.5309992  30.0064990  13.0799997
 114.4571690  30.7852234  12.7002770 114.2759992  33.6924990   9.6539997
 115.2219992  33.5474990   9.6349997 114.1629992  34.4764990  10.1909997
 114.3903578  33.7786708   9.7240300  82.0669992  35.8284990  94.5959997
  82.8349992  35.3694990  94.9369997  82.0459992  35.6024990  93.6659997
  82.1692135  35.7351680  94.5169473 132.4729992  34.3584990  15.3369997
 132.4239992  33.4024990  15.2989997 131.6469992  34.6254990  15.7379997
 132.3545096  34.2638416  15.3860698 123.4519992  33.9324990  14.2129997
 123.5389992  34.7584990  14.6879997 122.5879992  33.6024990  14.4619997
 123.3471944  34.0009871  14.3116558 123.8659992  37.7044990   4.0189997
 123.7909992  37.5834990   3.0719997 123.8989992  38.6534990   4.1369997
 123.8602083  37.8162639   3.9054973 117.5199992  36.4934990   5.7999997
 117.6719992  36.1454990   6.6779997 116.6689992  36.1364990   5.5439997
 117.4258344  36.3975891   5.8856851 126.9679992  36.8584990   1.0209997
 127.3429992  36.1144990   0.5499997 126.9719992  36.5884990   1.9389997
 127.0198969  36.7200920   1.0806475 126.6369992  36.7844990   3.7699997
 125.7019992  36.8844990   3.9489997 126.9169992  36.0744990   4.3489997
 126.5469471  36.7022944   3.8726678 129.6249992  25.8514990  15.8169997
 129.2179992  26.3314990  15.0959997 129.6659992  24.9454990  15.5089997
 129.5748403  25.7947989  15.6767253 116.7739992  32.2354990  13.8129997
 116.9899992  31.8734990  14.6729997 115.9189992  31.8604990  13.6039997
 116.6879082  32.1353377  13.9022396 119.3929992  20.7054990   9.8089997
 118.5309992  20.6184990   9.4009997 119.3709992  21.5614990  10.2369997
 119.2720557  20.8093078   9.8110202 124.0559992  20.4274990  13.1839997
 124.4759992  20.0124990  13.9369997 123.1229992  20.2484990  13.3009997
 123.9873736  20.3464921  13.3028950  88.6439992  34.2084990  93.3249997
  88.2929992  33.3514990  93.5679997  89.3699992  34.3504990  93.9319997
  88.6941590  34.1105189  93.4402889 127.3819992  24.1824990  14.0369997
 126.8679992  24.0574990  14.8349997 127.2269992  25.0954990  13.7929997
 127.2907802  24.2887433  14.1131504 128.1449992  29.0434990  -0.2020003
 128.1869992  28.8214990  -1.1320003 128.9939992  29.4424990  -0.0120003
 128.2655253  29.0670510  -0.3036196 123.7179992  22.9194990   0.4689997
 123.4639992  22.9384990   1.3909997 123.4609992  22.0484990   0.1669997
 123.6484508  22.8043292   0.5544786 119.4839992  25.6704990  10.9039997
 118.8419992  25.6304990  11.6129997 119.5209992  26.5974990  10.6659997
 119.4011659  25.7902540  10.9688463 119.4809992  25.8914990   5.8159997
 118.5879992  25.5514990   5.7569997 119.9319992  25.5144990   5.0599997
 119.4197185  25.7940220   5.7057698 125.0169992  26.3074990   4.6329997
 124.6079992  27.1224990   4.3409997 125.7369992  26.1674990   4.0189997
 125.0584439  26.4000383   4.5100098 124.1189992  26.4834990  16.1209997
 123.5559992  25.7784990  16.4419997 124.9449992  26.3624990  16.5889997
 124.1536674  26.3707176  16.2281734 126.0209992  25.7534990   7.4469997
 125.8259992  26.3594990   6.7319997 126.2029992  24.9204990   7.0129997
 126.0189195  25.7237936   7.2904079 117.2339992  25.9914990  12.7709997
 117.1959992  26.3914990  13.6399997 116.7429992  25.1744990  12.8609997
 117.1624374  25.9358228  12.9020980 120.5999992  23.3654990  -0.4300003
 120.1689992  22.9204990   0.2989997 119.8819992  23.7364990  -0.9430003
 120.4439176  23.3547063  -0.3995087  90.7629992  35.1534990  76.2049997
  91.0459992  34.3584990  76.6579997  91.5029992  35.3864990  75.6439997
  90.9017295  35.0762349  76.1911469 113.8419992  23.1074990   6.6219997
 114.4729992  23.0784990   7.3409997 114.2919992  22.6824990   5.8909997
 113.9891082  23.0461269   6.6216307 115.1159992  23.8534990   2.0459997
 115.5909992  24.4444990   1.4609997 114.3989992  24.3834990   2.3929997
 115.0840406  24.0061011   2.0128495 125.2849992  27.3914990  12.1179997
 125.6089992  26.7604990  11.4749997 124.8449992  26.8574990  12.7789997
 125.2698707  27.2328261  12.1193195 122.0629992  23.3194990   6.9019997
 121.1519992  23.3764990   7.1909997 122.5679992  23.2594990   7.7129997
 122.0066873  23.3191838   7.0511190 116.8909992  24.9484990   5.7289997
 116.0019992  25.0474990   5.3889997 117.1869992  24.1064990   5.3829997
 116.8094001  24.8482473   5.6357318 120.5439992  24.9484990   3.3859997
 121.4759992  25.0774990   3.5639997 120.3289992  25.6174990   2.7359997
 120.6424472  25.0565817   3.3224873 126.4679992  22.5544990  10.1659997
 125.7909992  22.6854990  10.8299997 125.9819992  22.3994990   9.3559997
 126.3097265  22.5514665  10.1473380 119.2179992  26.1424990   0.9519997
 118.6759992  25.7634990   0.2609997 120.0519992  26.3374990   0.5239997
 119.2564390  26.1169091   0.7994374 129.7549992  38.2254990  16.4429997
 129.9549992  38.6494990  15.6089997 130.4109992  38.5694990  17.0499997
 129.8709937  38.3299993  16.4108645 117.3529992  30.6994990  16.0509997
 118.0849992  30.9544990  16.6129997 116.5729992  30.9044990  16.5669997
 117.3476526  30.7620438  16.1975168  77.3769992  30.7194990  93.9299997
  77.5209992  29.8174990  93.6439997  76.6039992  31.0054990  93.4419997
  77.2922854  30.6346876  93.8249363 123.3829992  26.1064990   8.7889997
 123.9469992  25.5604990   8.2419997 123.2349992  25.5854990   9.5779997
 123.4403037  25.9611798   8.8207212 118.3849992  22.2434990   5.2079997
 118.0669992  21.3404990   5.1719997 119.1659992  22.2454990   4.6549997
 118.4471079  22.1202240   5.1282908 122.0089992  24.4954990  11.2029997
 121.1739992  24.9494990  11.3139997 122.5329992  24.7714990  11.9549997
 121.9656072  24.5948960  11.3198118 122.5529992  30.7084990   2.8879997
 121.8079992  30.2004990   2.5659997 122.4189992  30.7574990   3.8339997
 122.4329334  30.6456144   2.9718892 129.7029992  29.8414990  11.6749997
 130.3449992  30.2974990  11.1309997 128.8729992  29.9544990  11.2119997
 129.6786536  29.9191813  11.5379579 126.4509992  23.5224990   1.0869997
 125.5119992  23.6334990   0.9359997 126.7479992  24.3784990   1.3939997
 126.3626136  23.6534977   1.1078568 124.0729992  30.8924990  14.1249997
 123.7269992  30.5104990  14.9319997 123.8729992  31.8254990  14.1959997
 123.9985987  30.9664013  14.2450443 127.1689992  25.3894990   2.7479997
 128.0609992  25.2514990   3.0669997 127.2259992  26.1804990   2.2109997
 127.2987380  25.4774777   2.7190981 117.6779992  30.0034990   8.6579997
 118.4229992  30.0004990   8.0559997 117.7559992  29.1794990   9.1389997
 117.7903366  29.8917395   8.6407412 124.6789992  32.1664990   1.9129997
 124.3839992  32.9934990   2.2949997 123.9759992  31.5474990   2.1099997
 124.5436379  32.1959182   1.9918636  81.7179992  31.0624990  76.0619997
  81.7819992  30.2684990  76.5929997  82.3709992  30.9444990  75.3729997
  81.8151168  30.9377748  76.0415119 114.6859992  28.4634990  13.9729997
 114.9089992  28.0454990  14.8039997 114.0839992  27.8514990  13.5499997
 114.6351513  28.3234617  14.0296722 121.7029992  27.9804990  16.1859997
 121.4069992  27.8154990  15.2899997 122.6339992  27.7604990  16.1749997
 121.7884401  27.9281891  16.0620189 126.3229992  33.3544990  14.0749997
 125.4219992  33.5374990  13.8079997 126.3569992  33.6134990  14.9959997
 126.2043861  33.4145245  14.1629517 132.0539992  25.5984990   2.4429997
 131.4999992  25.2024990   1.7699997 132.1549992  26.5094990   2.1649997
 131.9918589  25.6673904   2.3133839 132.0169992  31.3994990  15.2799997
 131.1659992  31.6374990  14.9119997 132.6079992  31.3824990  14.5259997
 131.9803831  31.4297623  15.1278448 130.3489992  34.3844990   2.9079997
 129.9769992  33.5594990   3.2169997 130.6269992  34.2014990   2.0099997
 130.3355807  34.2467031   2.8290063 127.5099992  29.1924990   9.9289997
 126.5819992  28.9614990   9.9019997 127.9609992  28.4154990   9.5989997
 127.4438165  29.0557785   9.8806772 120.0529992  33.5214990   6.0619997
 120.5799992  34.2944990   5.8619997 119.1729992  33.7454990   5.7599997
 120.0062121  33.6577344   5.9937460 115.8079992  28.3834990   0.6489997
 116.4239992  29.0104990   1.0289997 114.9459992  28.6994990   0.9209997
 115.7757678  28.5119423   0.7377192 121.4799992  31.1844990   5.6379997
 121.2389992  32.1094990   5.6799997 120.7399992  30.7254990   6.0349997
 121.3469463  31.2490969   5.6974279  84.0319992  30.6884990  93.3629997
  83.7039992  30.9594990  92.5049997  84.1839992  29.7474990  93.2749997
  84.0076970  30.5983694  93.2337953 121.9949992  35.3334990  11.9529997
 122.3579992  36.1874990  11.7199997 122.5269992  35.0414990  12.6939997
 122.1165141  35.4108907  12.0212079 120.1629992  36.2054990   5.1839997
 119.2139992  36.3114990   5.2349997 120.5149992  37.0264990   5.5279997
 120.0805647  36.3310029   5.2374882 125.5389992  31.4324990  11.6539997
 125.1129992  31.2044990  12.4799997 126.1199992  30.6934990  11.4719997
 125.5592088  31.3014393  11.7424454 127.7419992  32.3614990   0.7279997
 128.0949992  31.9814990   1.5319997 126.7929992  32.2674990   0.8149997
 127.6620956  32.2967867   0.8498005 128.1979992  35.9844990  14.1229997
 127.5959992  35.4284990  13.6279997 128.4789992  36.6514990  13.4969997
 128.1535757  35.9985755  13.9705657 132.2449992  36.8404990   0.9289997
 132.9889992  37.4264990   0.7889997 131.5509992  37.4094990   1.2619997
 132.2529809  36.9975830   0.9548572 116.3199992  23.2174990  13.5309997
 115.4269992  23.5554990  13.4629997 116.2209992  22.3614990  13.9489997
 116.1844752  23.1480986  13.5781644 128.6079992  31.0334990   2.9549997
 128.3309992  30.3054990   3.5109997 129.5349992  31.1524990   3.1599997
 128.6954419  30.9499436   3.0588264 115.9709992  35.0214990  11.9659997
 116.1879992  34.0894990  11.9349997 116.2179992  35.2964990  12.8489997
 116.0340948  34.9310976  12.0811268 120.7699992  33.0434990   1.6309997
 120.9169992  32.5234990   2.4209997 120.7669992  33.9504990   1.9379997
 120.7897102  33.0948964   1.7805907  87.0699992  32.1094990  75.7979997
  86.8019992  32.2904990  76.6989997  86.8639992  31.1844990  75.6669997
  87.0054251  32.0091528  75.9036809 117.2229992  30.2954990   2.1419997
 116.5369992  30.6484990   2.7089997 117.7459992  31.0584990   1.8949997
 117.1998402  30.4468912   2.1861783 125.0539992  22.9584990  12.4209997
 125.7529992  23.0324990  13.0709997 124.6739992  22.0934990  12.5749997
 125.0982662  22.8517050  12.5307412 125.8389992  22.6104990   3.5179997
 126.0589992  23.0814990   2.7139997 126.3969992  23.0044990   4.1879997
 125.9446044  22.7282946   3.4985207 123.5079992  34.7404990   2.3809997
 122.6909992  35.2374990   2.4329997 124.0369992  35.2164990   1.7399997
 123.4678125  34.8727000   2.3015289 123.0389992  24.3384990   4.3529997
 123.8509992  24.8424990   4.3989997 122.7939992  24.1934990   5.2669997
 123.1171091  24.3879366   4.4828552 123.5749992  25.3244990  13.5369997
 123.6939992  25.8984990  14.2939997 124.2299992  24.6364990  13.6519997
 123.6798684  25.3100205  13.6561656 123.9229992  21.4194990   5.2909997
 123.5759992  22.0364990   5.9349997 124.5809992  21.9204990   4.8089997
 123.9644430  21.5716860   5.3140046 120.8459992  35.7844990   2.3619997
 121.0069992  36.5844990   1.8619997 120.6489992  36.0914990   3.2469997
 120.8413906  35.9353690   2.4132316 119.5799992  22.4824990   1.9779997
 119.4969992  23.3704990   2.3249997 120.4699992  22.2174990   2.2099997
 119.6889331  22.5681177   2.0568067 129.7789992  23.2314990  14.3719997
 128.8629992  23.4934990  14.2849997 130.1149992  23.2284990  13.4759997
 129.6988499  23.2670174  14.2388748  89.7669992  30.6044990  90.7459997
  90.5119992  31.1934990  90.6259997  89.0089992  31.1864990  90.8089997
  89.7665185  30.7637000  90.7380940 128.3809992  26.9814990   8.4679997
 127.5839992  26.5664990   8.1399997 128.8259992  26.2914990   8.9589997
 128.3320367  26.8313372   8.4894897 117.8389992  32.9094990   1.0379997
 118.4309992  33.6094990   1.3149997 118.2979992  32.4764990   0.3189997
 117.9821652  32.9467686   0.9786515 116.1549992  25.5744990   0.1539997
 116.1099992  26.5134990   0.3329997 115.2669992  25.3384990  -0.1150003
 116.0288166  25.6711698   0.1421507 129.4679992  36.2374990  10.0899997
 129.3119992  36.9164990   9.4329997 130.3999992  36.3094990  10.2929997
 129.5727328  36.3401586  10.0275529 116.9629992  20.3554990   8.8269997
 116.7339992  20.4144990   7.8999997 116.5199992  19.5644990   9.1339997
 116.8717387  20.2566412   8.7415223 115.8929992  34.2964990   4.9879997
 115.0609992  34.7684990   5.0149997 116.4389992  34.8064990   4.3889997
 115.8528710  34.4300317   4.9107570 115.1819992  36.9084990  16.3179997
 115.7219992  36.6924990  17.0779997 114.6999992  36.1034990  16.1279997
 115.1908485  36.7700463  16.3964870 119.7789992  35.8284990  17.9379997
 120.5469992  35.3694990  18.2789997 119.7579992  35.6024990  17.0079997
 119.8812135  35.7351680  17.8589473 123.8709992  35.3364990  -0.6870003
 123.2269992  34.7054990  -0.3650003 124.6329992  34.8054990  -0.9180003
 123.8858708  35.1783171  -0.6741539 126.3559992  34.2084990  16.6669997
 126.0049992  33.3514990  16.9099997 127.0819992  34.3504990  17.2739997
 126.4061590  34.1105189  16.7822889  78.2089992  27.9194990  93.3499997
  78.6169992  27.0624990  93.2289997  77.9489992  27.9334990  94.2709997
  78.2297082  27.8040596  93.4579469 128.4749992  35.1534990  -0.4530003
 128.7579992  34.3584990  -0.0000003 129.2149992  35.3864990  -1.0140003
 128.6137295  35.0762349  -0.4668531 115.0889992  30.7194990  17.2719997
 115.2329992  29.8174990  16.9859997 114.3159992  31.0054990  16.7849997
 115.0042266  30.6346548  17.1670102 119.4299992  31.0624990  -0.5950003
 119.4939992  30.2684990  -0.0650003 120.0829992  30.9444990  -1.2850003
 119.5270483  30.9377496  -0.6156593 121.7439992  30.6884990  16.7049997
 121.4159992  30.9594990  15.8479997 121.8959992  29.7474990  16.6169997
 121.7196412  30.5984058  16.5757804 127.4789992  30.6044990  14.0879997
 128.2239992  31.1934990  13.9689997 126.7209992  31.1864990  14.1509997
 127.4785289  30.7637067  14.0802292 115.9209992  27.9194990  16.6919997
 116.3289992  27.0624990  16.5709997 115.6609992  27.9334990  17.6129997
 115.9417082  27.8040596  16.7999469 120.5789992  29.0354990   1.7109997
 120.1199992  28.5514990   2.3959997 120.8339992  28.3664990   1.0749997
 120.5505997  28.8788491   1.7188734 119.8679992  26.9284990  14.0669997
 119.2499992  27.6024990  14.3469997 120.2119992  27.2494990  13.2329997
 119.8298078  27.0642298  13.9926609 121.6499992  27.2784990  -0.0270003
 121.4699992  27.1234990  -0.9540003 122.5999992  27.3864990   0.0179997
 121.7537804  27.2718821  -0.1478034 124.8879992  29.3994990  17.3439997
 125.8409992  29.4834990  17.3169997 124.7279992  28.6874990  17.9629997
 124.9967320  29.3147292  17.4239933  82.8669992  29.0354990  78.3679997
  82.4079992  28.5514990  79.0539997  83.1219992  28.3664990  77.7319997
  82.8386178  28.8788511  78.3759785 131.0399992  29.6324990  -0.5810003
 130.7669992  29.2084990  -1.3940003 131.0799992  30.5644990  -0.7980003
 131.0080201  29.7003523  -0.7216452 120.2079992  24.2834990  15.1489997
 120.3579992  23.5544990  14.5469997 120.2099992  25.0604990  14.5899997
 120.2287967  24.2887720  14.9910523 120.6199992  22.6524990  12.6419997
 121.1559992  23.1044990  11.9899997 119.7679992  22.5444990  12.2189997
 120.5781795  22.6997444  12.4956211 122.2019992  28.0924990  12.8809997
 122.9529992  27.9364990  12.3079997 121.8629992  28.9444990  12.6059997
 122.2589587  28.1863149  12.7654060 126.6179992  25.9074990  17.9099997
 126.8099992  24.9764990  17.7979997 127.4749992  26.3324990  17.8989997
 126.7602176  25.8375090  17.8931757 127.9339992  28.6964990  15.9869997
 127.6529992  29.4054990  15.4089997 128.8769992  28.6234990  15.8359997
 128.0229272  28.7836704  15.8874976 118.6859992  25.4814990  17.0599997
 117.9189992  24.9484990  16.8499997 119.3649992  25.1714990  16.4609997
 118.6728292  25.3666360  16.9502693 121.4259992  20.1094990  13.0729997
 121.3279992  21.0554990  12.9679997 120.6829992  19.7364990  12.5969997
 121.3122123  20.1886811  12.9943204 122.6899992  24.4304990  16.6369997
 122.4539992  24.2114990  17.5379997 121.9069992  24.2234990  16.1269997
 122.5518382  24.3725340  16.6913991 125.4059992  23.5584990  15.7119997
 124.4579992  23.5904990  15.8439997 125.7179992  22.9324990  16.3659997
 125.3185293  23.4782934  15.8184130  82.1559992  26.9284990  90.7239997
  81.5379992  27.6024990  91.0049997  82.4999992  27.2494990  89.8909997
  82.1178181  27.0643233  90.6498266 127.0399992  22.1924990  17.7169997
 126.9429992  21.2404990  17.7119997 126.7179992  22.4604990  18.5779997
 126.9832468  22.0985896  17.8326192 116.8669992  23.4014990  16.7649997
 117.0779992  22.6954990  16.1549997 116.7549992  22.9644990  17.6089997
 116.8807668  23.2456619  16.7955445 121.6479992  19.4034990  15.7439997
 122.3589992  18.7634990  15.7299997 121.5469992  19.6694990  14.8309997
 121.7316858  19.3518591  15.6185501 122.0009992  21.0854990  17.7979997
 121.8699992  20.6104990  16.9779997 121.4019992  21.8304990  17.7429997
 121.9020829  21.1210949  17.6781823 121.5479992  37.9684990   0.9739997
 122.4809992  38.1264990   1.1179997 121.2829992  38.6444990   0.3489997
 121.6399846  38.0814567   0.9092930 115.1159992  32.6054990   0.4569997
 116.0299992  32.6844990   0.7299997 115.1229992  31.9184990  -0.2090003
 115.2420624  32.5234074   0.4043045 113.7649992  37.9984990   5.5339997
 113.1179992  37.5364990   5.0019997 114.1199992  37.3264990   6.1169997
 113.7243741  37.8444785   5.5399157 114.6349992  36.0784990   7.3389997
 114.3009992  35.1984990   7.5109997 114.8569992  36.4244990   8.2039997
 114.6192565  36.0047410   7.4794263 132.1839992  36.8884990  10.3199997
 132.1619992  37.0734990  11.2579997 132.8739992  37.4564990   9.9789997
 132.2743383  36.9907104  10.4024580 131.7469992  36.4554990  13.2409997
 131.2599992  35.7194990  12.8699997 132.2959992  36.0614990  13.9189997
 131.7546101  36.3016267  13.2819034  87.1759992  29.3994990  94.0019997
  88.1289992  29.4834990  93.9739997  87.0159992  28.6874990  94.6209997
  87.2848161  29.3147198  94.0818689 130.1979992  32.2454990  17.8789997
 129.3319992  32.1404990  18.2739997 130.5739992  33.0034990  18.3259997
 130.1304940  32.3336141  17.9933958 131.4989992  30.5014990   3.3939997
 132.3489992  30.9224990   3.5209997 131.5039992  29.7614990   4.0009997
 131.6161143  30.4591106   3.4934732 131.8929992  28.5554990   5.2169997
 131.1669992  28.0754990   5.6149997 132.4739992  28.7604990   5.9489997
 131.8722504  28.5175592   5.3704199 131.6519992  31.3404990  10.1649997
 132.4859992  30.9624990   9.8839997 131.7639992  32.2834990  10.0459997
 131.7811917  31.4162954  10.1104844 130.1379992  34.2184990  12.4719997
 129.4909992  34.5434990  13.0969997 129.6209992  33.7774990  11.7979997
 129.9794112  34.2034133  12.4665272 132.1609992  28.4564990   1.6079997
 131.6399992  28.8124990   0.8899997 132.1279992  29.1314990   2.2869997
 132.0850955  28.5965023   1.6012634 130.5099992  25.6954990   0.1589997
 130.6069992  26.3624990  -0.5210003 130.3699992  24.8804990  -0.3220003
 130.5043407  25.6765670   0.0008312 129.6799992  27.0764990   5.7799997
 129.5299992  26.1314990   5.7599997 129.3259992  27.3574990   6.6239997
 129.6116351  26.9851656   5.8913202 114.7149992  29.1544990   9.7909997
 114.8989992  29.0724990   8.8549997 115.5639992  29.0304990  10.2139997
 114.8550132  29.1265066   9.7201460 130.5359992  29.0464990  15.4189997
 131.1189992  28.3114990  15.6109997 131.0999992  29.8184990  15.4659997
 130.6919781  29.0503156  15.4516146  82.4959992  24.2834990  91.8069997
  82.6459992  23.5544990  91.2039997  82.4979992  25.0604990  91.2479997
  82.5167664  24.2888971  91.6490525 132.0329992  26.9494990  16.1039997
 131.1689992  26.5704990  15.9379997 132.6369992  26.2104990  16.0289997
 131.9965394  26.7978378  16.0711778 129.3899992  24.6584990   4.2429997
 129.6699992  23.7514990   4.3669997 130.1489992  25.0924990   3.8539997
 129.5309258  24.5930935   4.2073691 130.0019992  25.2404990   9.6789997
 130.9349992  25.4524990   9.6439997 129.7669992  25.3414990  10.6009997
 130.0979517  25.2831844   9.7989113 130.0309992  25.9774990  12.4549997
 129.1879992  26.2454990  12.8199997 130.4739992  26.7994990  12.2439997
 129.9754035  26.1253351  12.4764770 114.3119992  24.4244990  15.9309997
 115.2319992  24.3024990  16.1679997 113.8629992  23.6744990  16.3209997
 114.3770500  24.3064576  16.0161016 132.3139992  19.9574990  17.8079997
 132.6639992  19.3034990  17.2019997 132.4609992  20.7944990  17.3679997
 132.3817192  19.9812545  17.6656712 130.0039992  21.9214990   4.2909997
 130.1859992  21.4724990   5.1159997 129.4039992  21.3374990   3.8269997
 129.9478187  21.7810563   4.3412721 115.5339992  22.7374990   8.8229997
 115.9789992  21.9454990   9.1249997 115.9999992  23.4534990   9.2529997
 115.6579718  22.7259546   8.9225247 113.8379992  25.7364990   9.8919997
 114.3299992  25.5154990   9.1009997 114.1999992  26.5764990  10.1729997
 113.9542923  25.8198480   9.8217389 131.8339992  22.0664990  16.1569997
 130.9169992  22.3374990  16.1209997 131.9569992  21.5314990  15.3729997
 131.7250828  22.0312711  16.0460767  82.9079992  22.6524990  89.2989997
  83.4439992  23.1044990  88.6469997  82.0559992  22.5444990  88.8769997
  82.8661648  22.6997883  89.1526395 131.8699992  21.9894990   0.8189997
 132.2829992  21.2684990   0.3439997 132.5519992  22.6584990   0.8769997
 132.0186060  21.9813741   0.7619233 114.1509992  21.9944990   3.9459997
 113.2259992  22.2024990   3.8169997 114.6049992  22.4784990   3.2559997
 114.0856298  22.0884311   3.8350433 128.9219992  36.9784990   5.8919997
 129.5739992  36.6304990   5.2839997 129.4329992  37.4664990   6.5379997
 129.0802872  36.9968248   5.8960964 114.1149992  20.7324990  12.2899997
 113.4499992  20.4864990  12.9329997 113.6719992  21.3544990  11.7129997
 113.9641168  20.7829225  12.2999830 116.3069992  33.9074990  16.4349997
 115.4859992  34.0824990  15.9739997 116.0549992  33.8344990  17.3549997
 116.1605594  33.9215728  16.4963593 119.2609992  34.8814990  12.6929997
 118.8359992  35.6914990  12.4109997 120.1649992  34.9674990  12.3909997
 119.3250706  35.0039557  12.6135836 123.5719992  36.2804990  15.6529997
 123.7569992  35.9474990  16.5309997 124.4189992  36.5904990  15.3309997
 123.7117291  36.2768214  15.7296140 125.9169992  37.5664990  14.8969997
 126.5939992  36.9334990  14.6569997 126.2389992  37.9674990  15.7039997
 126.0531618  37.5341147  14.9732802 130.8349992  20.1564990  13.9759997
 130.0219992  20.4814990  13.5889997 131.0679992  19.3954990  13.4429997
 130.7551347  20.0981891  13.8509824 116.6629992  38.1384990  12.7409997
 115.9419992  38.5784990  12.2899997 116.2969992  37.8874990  13.5889997
 116.5149632  38.1647235  12.7939649  84.4899992  28.0924990  89.5389997
  85.2409992  27.9364990  88.9659997  84.1509992  28.9444990  89.2629997
  84.5469052  28.1862745  89.4233469 119.1299992  37.7384990  11.7699997
 118.2649992  37.8104990  12.1739997 119.0749992  38.2854990  10.9869997
 119.0042290  37.8223242  11.7193749 123.8409992  37.6264990  10.9459997
 123.3839992  38.1554990  10.2919997 124.0029992  38.2294990  11.6709997
 123.8003919  37.7803990  10.9545740 126.1679992  36.5044990  11.8909997
 125.2639992  36.6694990  11.6249997 126.5969992  37.3574990  11.8249997
 126.1022017  36.6424184  11.8456495 128.7719992  38.0744990  12.1859997
 128.5909992  38.9904990  11.9749997 128.9489992  37.6634990  11.3389997
 128.7711377  38.1443365  12.0427178 116.0779992  36.7614990   9.6509997
 116.0589992  36.3354990  10.5079997 116.8819992  36.4424990   9.2419997
 116.1841393  36.6600297   9.7130155 118.2189992  35.4714990   8.3059997
 117.9999992  34.5544990   8.4759997 119.0429992  35.6114990   8.7719997
 118.3004702  35.3650523   8.3922510 120.7559992  35.9414990   9.1549997
 120.9689992  35.0534990   8.8679997 120.8209992  35.9064990  10.1089997
 120.7939149  35.8153338   9.2447351 124.2649992  21.6054990   8.2989997
 123.5899992  20.9754990   8.5549997 124.8289992  21.1214990   7.6959997
 124.2489363  21.4538886   8.2524810 129.4069992  19.7124990   8.4119997
 130.0109992  20.2604990   7.9099997 128.5379992  20.0314990   8.1709997
 129.3720419  19.8305628   8.3107741 131.1339992  20.8514990   6.7449997
 131.7459992  20.3374990   6.2179997 131.5169992  21.7284990   6.7679997
 131.2693867  20.8997613   6.6760888  88.9059992  25.9074990  94.5669997
  89.0979992  24.9764990  94.4559997  89.7629992  26.3324990  94.5569997
  89.0482320  25.8374743  94.5504433 116.5909992  20.2394990   6.1209997
 115.8139992  20.0044990   5.6139997 117.1219992  19.4424990   6.1299997
 116.5563735  20.0996462   6.0528090 115.4279992  20.0374990   1.9249997
 115.8669992  20.6484990   1.3329997 114.7939992  20.5754990   2.3989997
 115.4023859  20.1939076   1.9080287 121.1709992  20.1654990   5.9339997
 122.0449992  20.5544990   5.9049997 121.0349992  19.9504990   6.8569997
 121.2721953  20.1896654   6.0547599 126.7269992  20.1954990   7.5839997
 126.8039992  20.2914990   6.6339997 126.4519992  19.2884990   7.7119997
 126.7003233  20.0859093   7.4713665 128.0809992  20.2214990   3.2759997
 127.3779992  20.8364990   3.0659997 127.6359992  19.3844990   3.4069997
 127.9246550  20.1924679   3.2649819 115.3289992  35.9854990   2.8219997
 114.6439992  35.9474990   2.1549997 115.3319992  36.8974990   3.1099997
 115.2356806  36.1036669   2.7696961 117.2889992  21.9534990   0.3669997
 117.7799992  21.3234990  -0.1600003 117.9119992  22.2494990   1.0299997
 117.4405304  21.9072387   0.3844922 122.3149992  22.2464990   2.8239997
 122.4929992  21.5994990   3.5069997 122.2609992  23.0804990   3.2909997
 122.3320678  22.2706615   2.9806283 124.1929992  37.1944990   1.2199997
 125.0589992  37.5614990   1.0419997 123.9459992  36.7554990   0.4059997
 124.2781853  37.1854021   1.0855813 130.9019992  36.7574990   3.8989997
 130.7079992  36.0094990   3.3339997 130.8629992  37.5154990   3.3159997
 130.8701645  36.7575797   3.7428131  90.2219992  28.6964990  92.6449997
  89.9409992  29.4054990  92.0669997  91.1649992  28.6234990  92.4939997
  90.3109272  28.7836704  92.5454976 116.5489992  20.7534990  15.6389997
 116.1829992  19.9874990  16.0809997 117.4619992  20.7824990  15.9249997
 116.6223172  20.6525335  15.7381872 118.5219992  20.1034990  17.1739997
 119.4209992  19.8294990  16.9899997 118.1359992  19.3614990  17.6389997
 118.5927307  19.9657207  17.2117080 117.1469992  36.9054990  -0.1530003
 116.8789992  37.1914990   0.7209997 117.9179992  36.3594990  -0.0000003
 117.2145926  36.8707790  -0.0128812 126.9429992  19.4364990  17.3569997
 127.0199992  19.0104990  18.2099997 127.8369992  19.4494990  17.0139997
 127.0743263  19.3799345  17.4274366 130.1199992  35.5084990  16.0489997
 129.3379992  35.3224990  15.5289997 130.0479992  36.4384990  16.2659997
 130.0032975  35.6086973  16.0071822 135.8269992  28.2644990  11.0919997
 135.8679992  27.6394990  11.8149997 136.5299992  28.8884990  11.2739997
 135.9276223  28.2632318  11.2156164 136.7509992  32.7144990   9.6269997
 136.3809992  31.9124990   9.2569997 137.6919992  32.5464990   9.6729997
 136.8275984  32.5819649   9.5825586 133.3609992  26.3744990   5.0189997
 132.9129992  27.2204990   5.0009997 132.7999992  25.7954990   4.5039997
 133.2238546  26.4119004   4.9468874 134.0709992  28.5364990   7.1449997
 134.2849992  27.7664990   7.6719997 134.8089992  28.6264990   6.5419997
 134.2000073  28.4433546   7.1355786 138.1439992  23.5784990   7.5049997
 138.1869992  24.4384990   7.0859997 137.6859992  23.0254990   6.8709997
 138.0880163  23.6214174   7.3620604  80.9739992  25.4814990  93.7179997
  80.2069992  24.9484990  93.5079997  81.6529992  25.1714990  93.1189997
  80.9608292  25.3666360  93.6082693 134.7639992  25.9754990   8.2669997
 135.4179992  25.4254990   8.6989997 134.7879992  25.7014990   7.3499997
 134.8567199  25.8632178   8.2021650 136.9539992  22.4964990  11.5789997
 136.7349992  23.0264990  10.8119997 136.2859992  22.7224990  12.2259997
 136.8336975  22.5995979  11.5615123 139.5229992  30.1714990  11.8659997
 138.7829992  30.7704990  11.9699997 140.2369992  30.7254990  11.5499997
 139.5183146  30.3282611  11.8375150 136.5479992  24.3884990   9.5309997
 137.1609992  25.0214990   9.9039997 137.0599992  23.9164990   8.8749997
 136.7011933  24.4113380   9.4933477 137.9299992  32.1364990  12.6529997
 137.9249992  33.0154990  12.2749997 137.0769992  32.0524990  13.0779997
 137.8139199  32.2455901  12.6586942 134.0519992  31.8074990   3.4349997
 133.7799992  32.0364990   2.5459997 134.0969992  32.6444990   3.8959997
 134.0208360  31.9521034   3.3756186 138.2979992  29.4794990   6.3659997
 137.9679992  29.1084990   5.5479997 138.8859992  28.8084990   6.7129997
 138.3323182  29.3380648   6.3009898 138.6649992  28.2474990   9.9989997
 139.2299992  28.3694990   9.2369997 138.9829992  28.8854990  10.6379997
 138.7853619  28.3504388   9.9810019 139.5449992  32.6474990  14.7169997
 139.2329992  33.4294990  15.1719997 138.8949992  32.4944990  14.0309997
 139.4144858  32.7337882  14.6865344 136.4649992  28.8454990  13.9449997
 136.5349992  29.4964990  14.6439997 135.5739992  28.9484990  13.6099997
 136.3541690  28.9484261  13.9953026  83.7139992  20.1094990  89.7309997
  83.6159992  21.0554990  89.6249997  82.9709992  19.7364990  89.2549997
  83.6002363  20.1885987  89.6522029 137.7839992  34.7184990  15.4799997
 137.7919992  34.5824990  14.5329997 136.8679992  34.6014990  15.7319997
 137.6612528  34.6840475  15.3843226 137.2879992  28.5484990   3.9549997
 136.9959992  29.3164990   3.4639997 136.6139992  27.8894990   3.7919997
 137.1568843  28.5644537   3.8657695 133.3809992  30.9114990  12.7699997
 132.8799992  30.8834990  11.9549997 133.3869992  30.0064990  13.0799997
 133.3131690  30.7852234  12.7002770 133.1319992  33.6924990   9.6539997
 134.0779992  33.5474990   9.6349997 133.0189992  34.4764990  10.1909997
 133.2463578  33.7786708   9.7240300 136.3759992  36.4934990   5.7999997
 136.5279992  36.1454990   6.6779997 135.5249992  36.1364990   5.5439997
 136.2818344  36.3975891   5.8856851 135.6299992  32.2354990  13.8129997
 135.8459992  31.8734990  14.6729997 134.7749992  31.8604990  13.6039997
 135.5439082  32.1353377  13.9022396 138.2489992  20.7054990   9.8089997
 137.3869992  20.6184990   9.4009997 138.2269992  21.5614990  10.2369997
 138.1280557  20.8093078   9.8110202 138.3399992  25.6704990  10.9039997
 137.6979992  25.6304990  11.6129997 138.3769992  26.5974990  10.6659997
 138.2571659  25.7902540  10.9688463 138.3369992  25.8914990   5.8159997
 137.4439992  25.5514990   5.7569997 138.7879992  25.5144990   5.0599997
 138.2757185  25.7940220   5.7057698 136.0899992  25.9914990  12.7709997
 136.0519992  26.3914990  13.6399997 135.5989992  25.1744990  12.8609997
 136.0184374  25.9358228  12.9020980  84.9779992  24.4304990  93.2939997
  84.7419992  24.2114990  94.1959997  84.1949992  24.2234990  92.7849997
  84.8398444  24.3725688  93.3484518 139.4559992  23.3654990  -0.4300003
 139.0249992  22.9204990   0.2989997 138.7379992  23.7364990  -0.9430003
 139.2999176  23.3547063  -0.3995087 132.6979992  23.1074990   6.6219997
 133.3289992  23.0784990   7.3409997 133.1479992  22.6824990   5.8909997
 132.8451082  23.0461269   6.6216307 133.9719992  23.8534990   2.0459997
 134.4469992  24.4444990   1.4609997 133.2549992  24.3834990   2.3929997
 133.9400406  24.0061011   2.0128495 135.7469992  24.9484990   5.7289997
 134.8579992  25.0474990   5.3889997 136.0429992  24.1064990   5.3829997
 135.6654001  24.8482473   5.6357318 139.3999992  24.9484990   3.3859997
 140.3319992  25.0774990   3.5639997 139.1849992  25.6174990   2.7359997
 139.4984472  25.0565817   3.3224873 138.0739992  26.1424990   0.9519997
 137.5319992  25.7634990   0.2609997 138.9079992  26.3374990   0.5239997
 138.1124390  26.1169091   0.7994374 136.2089992  30.6994990  16.0509997
 136.9409992  30.9544990  16.6129997 135.4289992  30.9044990  16.5669997
 136.2036526  30.7620438  16.1975168 137.2409992  22.2434990   5.2079997
 136.9229992  21.3404990   5.1719997 138.0219992  22.2454990   4.6549997
 137.3031079  22.1202240   5.1282908 136.5339992  30.0034990   8.6579997
 137.2789992  30.0004990   8.0559997 136.6119992  29.1794990   9.1389997
 136.6463365  29.8917395   8.6407412 133.5419992  28.4634990  13.9729997
 133.7649992  28.0454990  14.8039997 132.9399992  27.8514990  13.5499997
 133.4911513  28.3234617  14.0296722  87.6939992  23.5584990  92.3699997
  86.7459992  23.5904990  92.5019997  88.0059992  22.9324990  93.0239997
  87.6065293  23.4782934  92.4764130 138.9089992  33.5214990   6.0619997
 139.4359992  34.2944990   5.8619997 138.0289992  33.7454990   5.7599997
 138.8622121  33.6577344   5.9937460 134.6639992  28.3834990   0.6489997
 135.2799992  29.0104990   1.0289997 133.8019992  28.6994990   0.9209997
 134.6317678  28.5119423   0.7377192 139.0189992  36.2054990   5.1839997
 138.0699992  36.3114990   5.2349997 139.3709992  37.0264990   5.5279997
 138.9365647  36.3310029   5.2374882 135.1759992  23.2174990  13.5309997
 134.2829992  23.5554990  13.4629997 135.0769992  22.3614990  13.9489997
 135.0404752  23.1480986  13.5781644 134.8269992  35.0214990  11.9659997
 135.0439992  34.0894990  11.9349997 135.0739992  35.2964990  12.8489997
 134.8900948  34.9310976  12.0811268 136.0789992  30.2954990   2.1419997
 135.3929992  30.6484990   2.7089997 136.6019992  31.0584990   1.8949997
 136.0558402  30.4468912   2.1861784 138.4359992  22.4824990   1.9779997
 138.3529992  23.3704990   2.3249997 139.3259992  22.2174990   2.2099997
 138.5449331  22.5681177   2.0568067 136.6949992  32.9094990   1.0379997
 137.2869992  33.6094990   1.3149997 137.1539992  32.4764990   0.3189997
 136.8381652  32.9467686   0.9786515 135.0109992  25.5744990   0.1539997
 134.9659992  26.5134990   0.3329997 134.1229992  25.3384990  -0.1150003
 134.8848166  25.6711698   0.1421507 135.8189992  20.3554990   8.8269997
 135.5899992  20.4144990   7.8999997 135.3759992  19.5644990   9.1339997
 135.7277387  20.2566412   8.7415223  89.3279992  22.1924990  94.3749997
  89.2309992  21.2404990  94.3689997  89.0059992  22.4604990  95.2359997
  89.2712229  22.0984706  94.4905108 134.7489992  34.2964990   4.9879997
 133.9169992  34.7684990   5.0149997 135.2949992  34.8064990   4.3889997
 134.7088710  34.4300317   4.9107570 134.0379992  36.9084990  16.3179997
 134.5779992  36.6924990  17.0779997 133.5559992  36.1034990  16.1279997
 134.0468485  36.7700463  16.3964870 138.6349992  35.8284990  17.9379997
 139.4029992  35.3694990  18.2789997 138.6139992  35.6024990  17.0079997
 138.7372135  35.7351680  17.8589473 133.9449992  30.7194990  17.2719997
 134.0889992  29.8174990  16.9859997 133.1719992  31.0054990  16.7849997
 133.8602266  30.6346548  17.1670102 138.2859992  31.0624990  -0.5950003
 138.3499992  30.2684990  -0.0650003 138.9389992  30.9444990  -1.2850003
 138.3830482  30.9377496  -0.6156593 134.7769992  27.9194990  16.6919997
 135.1849992  27.0624990  16.5709997 134.5169992  27.9334990  17.6129997
 134.7977082  27.8040596  16.7999469 139.4349992  29.0354990   1.7109997
 138.9759992  28.5514990   2.3959997 139.6899992  28.3664990   1.0749997
 139.4065997  28.8788491   1.7188734 138.7239992  26.9284990  14.0669997
 138.1059992  27.6024990  14.3469997 139.0679992  27.2494990  13.2329997
 138.6858078  27.0642298  13.9926609 139.0639992  24.2834990  15.1489997
 139.2139992  23.5544990  14.5469997 139.0659992  25.0604990  14.5899997
 139.0847967  24.2887720  14.9910523 139.4759992  22.6524990  12.6419997
 140.0119992  23.1044990  11.9899997 138.6239992  22.5444990  12.2189997
 139.4341795  22.6997444  12.4956211  79.1549992  23.4014990  93.4229997
  79.3659992  22.6954990  92.8119997  79.0429992  22.9644990  94.2669997
  79.1687674  23.2456376  93.4534199 137.5419992  25.4814990  17.0599997
 136.7749992  24.9484990  16.8499997 138.2209992  25.1714990  16.4609997
 137.5288292  25.3666360  16.9502693 135.7229992  23.4014990  16.7649997
 135.9339992  22.6954990  16.1549997 135.6109992  22.9644990  17.6089997
 135.7367668  23.2456619  16.7955445 133.9719992  32.6054990   0.4569997
 134.8859992  32.6844990   0.7299997 133.9789992  31.9184990  -0.2090003
 134.0980624  32.5234074   0.4043045 132.6209992  37.9984990   5.5339997
 131.9739992  37.5364990   5.0019997 132.9759992  37.3264990   6.1169997
 132.5803741  37.8444785   5.5399157 133.4909992  36.0784990   7.3389997
 133.1569992  35.1984990   7.5109997 133.7129992  36.4244990   8.2039997
 133.4752565  36.0047410   7.4794263 133.5709992  29.1544990   9.7909997
 133.7549992  29.0724990   8.8549997 134.4199992  29.0304990  10.2139997
 133.7110132  29.1265066   9.7201460 133.1679992  24.4244990  15.9309997
 134.0879992  24.3024990  16.1679997 132.7189992  23.6744990  16.3209997
 133.2330500  24.3064576  16.0161016 134.3899992  22.7374990   8.8229997
 134.8349992  21.9454990   9.1249997 134.8559992  23.4534990   9.2529997
 134.5139718  22.7259546   8.9225247 132.6939992  25.7364990   9.8919997
 133.1859992  25.5154990   9.1009997 133.0559992  26.5764990  10.1729997
 132.8102923  25.8198480   9.8217389 133.0069992  21.9944990   3.9459997
 132.0819992  22.2024990   3.8169997 133.4609992  22.4784990   3.2559997
 132.9416298  22.0884311   3.8350433  83.9359992  19.4034990  92.4019997
  84.6469992  18.7634990  92.3879997  83.8349992  19.6694990  91.4879997
  84.0196732  19.3518451  92.2765475 132.9709992  20.7324990  12.2899997
 132.3059992  20.4864990  12.9329997 132.5279992  21.3544990  11.7129997
 132.8201168  20.7829225  12.2999830 135.1629992  33.9074990  16.4349997
 134.3419992  34.0824990  15.9739997 134.9109992  33.8344990  17.3549997
 135.0165594  33.9215728  16.4963593 138.1169992  34.8814990  12.6929997
 137.6919992  35.6914990  12.4109997 139.0209992  34.9674990  12.3909997
 138.1810706  35.0039557  12.6135836 135.5189992  38.1384990  12.7409997
 134.7979992  38.5784990  12.2899997 135.1529992  37.8874990  13.5889997
 135.3709632  38.1647235  12.7939649 137.9859992  37.7384990  11.7699997
 137.1209992  37.8104990  12.1739997 137.9309992  38.2854990  10.9869997
 137.8602289  37.8223242  11.7193749 134.9339992  36.7614990   9.6509997
 134.9149992  36.3354990  10.5079997 135.7379992  36.4424990   9.2419997
 135.0401393  36.6600297   9.7130155 137.0749992  35.4714990   8.3059997
 136.8559992  34.5544990   8.4759997 137.8989992  35.6114990   8.7719997
 137.1564702  35.3650523   8.3922510 135.4469992  20.2394990   6.1209997
 134.6699992  20.0044990   5.6139997 135.9779992  19.4424990   6.1299997
 135.4123735  20.0996462   6.0528090 134.2839992  20.0374990   1.9249997
 134.7229992  20.6484990   1.3329997 133.6499992  20.5754990   2.3989997
 134.2583859  20.1939076   1.9080287 134.1849992  35.9854990   2.8219997
 133.4999992  35.9474990   2.1549997 134.1879992  36.8974990   3.1099997
 134.0916806  36.1036669   2.7696961  84.2889992  21.0854990  94.4559997
  84.1579992  20.6104990  93.6349997  83.6899992  21.8304990  94.3999997
  84.1901524  21.1211968  94.3361553 136.1449992  21.9534990   0.3669997
 136.6359992  21.3234990  -0.1600003 136.7679992  22.2494990   1.0299997
 136.2965304  21.9072387   0.3844922 135.4049992  20.7534990  15.6389997
 135.0389992  19.9874990  16.0809997 136.3179992  20.7824990  15.9249997
 135.4783172  20.6525335  15.7381872 137.3779992  20.1034990  17.1739997
 138.2769992  19.8294990  16.9899997 136.9919992  19.3614990  17.6389997
 137.4487307  19.9657207  17.2117080 136.0029992  36.9054990  -0.1530003
 135.7349992  37.1914990   0.7209997 136.7739992  36.3594990  -0.0000003
 136.0705926  36.8707790  -0.0128812  12.5339992  48.2514990   6.0799997
  12.6229992  49.1954990   5.9469997  11.8949992  47.9764990   5.4219997
  12.4598378  48.3433846   5.9729258  11.4669992  47.5064990   9.4989997
  11.4279992  46.8604990  10.2039997  11.1439992  47.0394990   8.7269997
  11.4180469  47.3550005   9.4912803   3.8349992  47.1204990  11.0919997
   3.8759992  46.4954990  11.8149997   4.5379992  47.7444990  11.2739997
   3.9356223  47.1192318  11.2156164  15.1729992  50.4454990   7.7999997
  14.7319992  49.7254990   8.2509997  15.1599992  51.1664990   8.4299997
  15.1109215  50.4444303   7.9468088   4.7589992  51.5704990   9.6269997
   4.3889992  50.7684990   9.2569997   5.6999992  51.4024990   9.6729997
   4.8355984  51.4379649   9.5825586   1.3689992  45.2304990   5.0189997
   0.9209992  46.0764990   5.0009997   0.8079992  44.6514990   4.5039997
   1.2318546  45.2679004   4.9468874  76.0529992  37.9984990  82.1919997
  75.4059992  37.5364990  81.6589997  76.4079992  37.3264990  82.7749997
  76.0123861  37.8444707  82.1977939   2.0789992  47.3924990   7.1449997
   2.2929992  46.6224990   7.6719997   2.8169992  47.4824990   6.5419997
   2.2080073  47.2993546   7.1355786  12.2839992  55.5494990   8.0119997
  12.9039992  54.8734990   7.7389997  12.0759992  55.3314990   8.9209997
  12.3407679  55.4275032   8.0974518   9.8559992  49.9384990   9.9049997
  10.1599992  49.2524990   9.3099997  10.5779992  50.0574990  10.5229997
   9.9951240  49.8607325   9.9070941  18.5189992  41.5404990  10.7649997
  18.5679992  42.1504990  11.5009997  18.9449992  42.0014990  10.0419997
  18.5832851  41.6863266  10.7680532  12.9969992  44.3324990  10.2319997
  13.1389992  43.3864990  10.2519997  12.8909992  44.5394990   9.3039997
  13.0021051  44.2309706  10.1092249   6.1519992  42.4344990   7.5049997
   6.1949992  43.2944990   7.0859997   5.6939992  41.8814990   6.8709997
   6.0960163  42.4774174   7.3620604  13.8739992  42.5654990   5.9049997
  14.5199992  42.2364990   6.5299997  14.3839992  43.0824990   5.2829997
  14.0314289  42.5904333   5.9063681   2.7719992  44.8314990   8.2669997
   3.4259992  44.2814990   8.6989997   2.7959992  44.5574990   7.3499997
   2.8647199  44.7192178   8.2021650   7.9279992  46.3814990   7.4819997
   8.5439992  45.8544990   7.9909997   7.3419992  45.7414990   7.0779997
   7.9330652  46.2228919   7.4970277  18.9109992  43.0184990  13.0009997
  18.2219992  43.6764990  12.9059997  18.9259992  42.8204990  13.9379997
  18.8187756  43.0817614  13.1145795  76.9229992  36.0784990  83.9969997
  76.5889992  35.1984990  84.1689997  77.1449992  36.4244990  84.8609997
  76.9072677  36.0047365  84.1374252   4.9619992  41.3524990  11.5789997
   4.7429992  41.8824990  10.8119997   4.2939992  41.5784990  12.2259997
   4.8416975  41.4555979  11.5615123  12.3309992  50.8524990   5.1229997
  12.0349992  50.5294990   4.2709997  12.0069992  51.7524990   5.1639997
  12.2467458  50.9299678   5.0120598   7.5309992  49.0274990  11.8659997
   6.7909992  49.6264990  11.9699997   8.2449992  49.5814990  11.5499997
   7.5263146  49.1842611  11.8375150  15.6379992  41.8564990   7.8859997
  15.4229992  41.0904990   8.4189997  16.2939992  42.3284990   8.3989997
  15.6972673  41.8155739   8.0281972   4.5559992  43.2444990   9.5309997
   5.1689992  43.8774990   9.9039997   5.0679992  42.7724990   8.8749997
   4.7091933  43.2673380   9.4933477   5.9379992  50.9924990  12.6529997
   5.9329992  51.8714990  12.2749997   5.0849992  50.9084990  13.0779997
   5.8219199  51.1015901  12.6586942   2.0599992  50.6634990   3.4349997
   1.7879992  50.8924990   2.5459997   2.1049992  51.5004990   3.8959997
   2.0288360  50.8081034   3.3756186  15.6849992  52.2844990  10.1479997
  14.7429992  52.3434990  10.3099997  15.9609992  53.1904990  10.0109997
  15.5935865  52.4150299  10.1516174  15.9849992  40.5714990  11.5649997
  15.2489992  41.1814990  11.5279997  16.6689992  40.9864990  11.0389997
  15.9765367  40.7112562  11.4888156   8.9879992  38.6574990   9.0309997
   8.8709992  37.7094990   8.9769997   8.1329992  38.9904990   9.3039997
   8.8563691  38.5725842   9.0605072  94.4719992  36.8884990  86.9769997
  94.4499992  37.0734990  87.9159997  95.1619992  37.4564990  86.6359997
  94.5623439  36.9906898  87.0594774  13.9369992  54.0654990   6.7729997
  14.3619992  53.3584990   6.2879997  14.2539992  54.8674990   6.3559997
  14.0380266  54.0770201   6.6502461  15.0959992  51.9664990   5.2819997
  14.8389992  51.2764990   4.6699997  15.1669992  51.5234990   6.1269997
  15.0704322  51.8121568   5.3125372  16.7819992  50.5334990  13.7589997
  16.9219992  49.9414990  13.0199997  16.9499992  51.4064990  13.4029997
  16.8238734  50.5704041  13.6096937  11.2549992  47.4954990   3.5319997
  10.5429992  48.0304990   3.1799997  11.9459992  47.5504990   2.8719997
  11.2509704  47.5761663   3.3945797  11.3089992  45.9524990   0.5699997
  12.0099992  45.9754990   1.2219997  11.6109992  45.3244990  -0.0860003
  11.4458202  45.8707223   0.5705591  18.6239992  46.8734990  11.8249997
  17.9719992  47.5674990  11.9139997  19.0889992  47.0834990  11.0149997
  18.5975357  46.9969544  11.7277056  14.6609992  47.7044990   4.4829997
  13.9289992  47.9334990   5.0559997  15.1079992  46.9914990   4.9379997
  14.6212753  47.6393984   4.6229698  14.5579992  45.8794990  13.5509997
  14.6379992  46.6424990  14.1229997  13.9569992  46.1584990  12.8609997
  14.4876547  46.0217468  13.5360029   6.3059992  48.3354990   6.3659997
   5.9759992  47.9644990   5.5479997   6.8939992  47.6644990   6.7129997
   6.3403182  48.1940648   6.3009898   7.6729992  51.7634990   9.0469997
   7.5779992  51.1844990   8.2909997   8.4019992  51.3924990   9.5429997
   7.7586011  51.6340572   9.0106011  94.0349992  36.4554990  89.8989997
  93.5479992  35.7194990  89.5279997  94.5839992  36.0614990  90.5769997
  94.0426101  36.3016267  89.9399034   6.6729992  47.1034990   9.9989997
   7.2379992  47.2254990   9.2369997   6.9909992  47.7414990  10.6379997
   6.7933619  47.2064388   9.9810019  12.9819992  52.6074990  10.7329997
  12.7409992  53.2694990  11.3809997  12.7839992  51.7724990  11.1579997
  12.9222662  52.5852704  10.8791008   7.5529992  51.5034990  14.7169997
   7.2409992  52.2854990  15.1719997   6.9029992  51.3504990  14.0309997
   7.4224858  51.5897882  14.6865344  13.5319992  46.8674990   2.1689997
  14.1109992  47.0174990   2.9149997  13.9459992  47.3374990   1.4449997
  13.6673358  46.9515966   2.1733935   4.4729992  47.7014990  13.9449997
   4.5429992  48.3524990  14.6439997   3.5819992  47.8044990  13.6099997
   4.3621690  47.8044261  13.9953026  11.2579992  53.6034990   5.6039997
  11.7319992  53.8994990   6.3809997  10.6949992  54.3424990   5.3709997
  11.2467890  53.7438047   5.6788084   5.7919992  53.5744990  15.4799997
   5.7999992  53.4384990  14.5329997   4.8759992  53.4574990  15.7319997
   5.6692528  53.5400475  15.3843226  17.2299992  38.6174990   1.9809997
  16.3299992  38.7554990   2.2769997  17.4819992  39.4484990   1.5799997
  17.1407727  38.7488705   1.9672935   5.2959992  47.4044990   3.9549997
   5.0039992  48.1724990   3.4639997   4.6219992  46.7454990   3.7919997
   5.1648843  47.4204537   3.8657695  18.4199992  52.9834990   0.3579997
  18.4929992  53.9224990   0.5279997  19.3249992  52.6784990   0.3019997
  18.5524170  53.0708294   0.3737045  92.4859992  32.2454990  94.5369997
  91.6199992  32.1404990  94.9309997  92.8619992  33.0034990  94.9839997
  92.4183768  32.3336151  94.6513258   1.3889992  49.7674990  12.7699997
   0.8879992  49.7394990  11.9549997   1.3949992  48.8624990  13.0799997
   1.3211690  49.6412234  12.7002770   1.1399992  52.5484990   9.6539997
   2.0859992  52.4034990   9.6349997   1.0269992  53.3324990  10.1909997
   1.2543578  52.6346708   9.7240300  19.3369992  53.2144990  15.3369997
  19.2879992  52.2584990  15.2989997  18.5109992  53.4814990  15.7379997
  19.2185096  53.1198416  15.3860698  10.3159992  52.7884990  14.2129997
  10.4029992  53.6144990  14.6879997   9.4519992  52.4584990  14.4619997
  10.2111944  52.8569871  14.3116558  10.7299992  56.5604990   4.0189997
  10.6549992  56.4394990   3.0719997  10.7629992  57.5094990   4.1369997
  10.7242083  56.6722639   3.9054973   4.3839992  55.3494990   5.7999997
   4.5359992  55.0014990   6.6779997   3.5329992  54.9924990   5.5439997
   4.2898344  55.2535891   5.8856851  13.8319992  55.7144990   1.0209997
  14.2069992  54.9704990   0.5499997  13.8359992  55.4444990   1.9389997
  13.8838969  55.5760920   1.0806475  13.5009992  55.6404990   3.7699997
  12.5659992  55.7404990   3.9489997  13.7809992  54.9304990   4.3489997
  13.4109471  55.5582944   3.8726678  16.4889992  44.7074990  15.8169997
  16.0819992  45.1874990  15.0959997  16.5299992  43.8014990  15.5089997
  16.4388403  44.6507989  15.6767253   3.6379992  51.0914990  13.8129997
   3.8539992  50.7294990  14.6729997   2.7829992  50.7164990  13.6039997
   3.5519082  50.9913377  13.9022396  93.7869992  30.5014990  80.0509997
  94.6369992  30.9224990  80.1789997  93.7919992  29.7614990  80.6589997
  93.9039745  30.4591347  80.1506479   6.2569992  39.5614990   9.8089997
   5.3949992  39.4744990   9.4009997   6.2349992  40.4174990  10.2369997
   6.1360557  39.6653078   9.8110202  10.9199992  39.2834990  13.1839997
  11.3399992  38.8684990  13.9369997   9.9869992  39.1044990  13.3009997
  10.8513736  39.2024921  13.3028950  14.2459992  43.0384990  14.0369997
  13.7319992  42.9134990  14.8349997  14.0909992  43.9514990  13.7929997
  14.1547802  43.1447433  14.1131504  15.0089992  47.8994990  -0.2020003
  15.0509992  47.6774990  -1.1320003  15.8579992  48.2984990  -0.0120003
  15.1295253  47.9230510  -0.3036196  10.5819992  41.7754990   0.4689997
  10.3279992  41.7944990   1.3909997  10.3249992  40.9044990   0.1669997
  10.5124508  41.6603292   0.5544786   6.3479992  44.5264990  10.9039997
   5.7059992  44.4864990  11.6129997   6.3849992  45.4534990  10.6659997
   6.2651659  44.6462540  10.9688463   6.3449992  44.7474990   5.8159997
   5.4519992  44.4074990   5.7569997   6.7959992  44.3704990   5.0599997
   6.2837185  44.6500220   5.7057698  11.8809992  45.1634990   4.6329997
  11.4719992  45.9784990   4.3409997  12.6009992  45.0234990   4.0189997
  11.9224439  45.2560383   4.5100098  10.9829992  45.3394990  16.1209997
  10.4199992  44.6344990  16.4419997  11.8089992  45.2184990  16.5889997
  11.0176674  45.2267176  16.2281734  12.8849992  44.6094990   7.4469997
  12.6899992  45.2154990   6.7319997  13.0669992  43.7764990   7.0129997
  12.8829195  44.5797936   7.2904079  94.1809992  28.5554990  81.8749997
  93.4549992  28.0754990  82.2729997  94.7619992  28.7604990  82.6069997
  94.1602504  28.5175592  82.0284199   4.0979992  44.8474990  12.7709997
   4.0599992  45.2474990  13.6399997   3.6069992  44.0304990  12.8609997
   4.0264374  44.7918228  12.9020980   7.4639992  42.2214990  -0.4300003
   7.0329992  41.7764990   0.2989997   6.7459992  42.5924990  -0.9430003
   7.3079176  42.2107063  -0.3995087   0.7059992  41.9634990   6.6219997
   1.3369992  41.9344990   7.3409997   1.1559992  41.5384990   5.8909997
   0.8531082  41.9021269   6.6216307   1.9799992  42.7094990   2.0459997
   2.4549992  43.3004990   1.4609997   1.2629992  43.2394990   2.3929997
   1.9480406  42.8621011   2.0128495  12.1489992  46.2474990  12.1179997
  12.4729992  45.6164990  11.4749997  11.7089992  45.7134990  12.7789997
  12.1338707  46.0888261  12.1193195   8.9269992  42.1754990   6.9019997
   8.0159992  42.2324990   7.1909997   9.4319992  42.1154990   7.7129997
   8.8706873  42.1751838   7.0511190   3.7549992  43.8044990   5.7289997
   2.8659992  43.9034990   5.3889997   4.0509992  42.9624990   5.3829997
   3.6734001  43.7042473   5.6357318   7.4079992  43.8044990   3.3859997
   8.3399992  43.9334990   3.5639997   7.1929992  44.4734990   2.7359997
   7.5064472  43.9125817   3.3224873  13.3319992  41.4104990  10.1659997
  12.6549992  41.5414990  10.8299997  12.8459992  41.2554990   9.3559997
  13.1737265  41.4074665  10.1473380   6.0819992  44.9984990   0.9519997
   5.5399992  44.6194990   0.2609997   6.9159992  45.1934990   0.5239997
   6.1204390  44.9729091   0.7994374  93.9399992  31.3404990  86.8229997
  94.7739992  30.9624990  86.5419997  94.0519992  32.2834990  86.7039997
  94.0691917  31.4162954  86.7684844  16.6189992  57.0814990  16.4429997
  16.8189992  57.5054990  15.6089997  17.2749992  57.4254990  17.0499997
  16.7349937  57.1859993  16.4108645   4.2169992  49.5554990  16.0509997
   4.9489992  49.8104990  16.6129997   3.4369992  49.7604990  16.5669997
   4.2116526  49.6180438  16.1975168  10.2469992  44.9624990   8.7889997
  10.8109992  44.4164990   8.2419997  10.0989992  44.4414990   9.5779997
  10.3043037  44.8171798   8.8207212   5.2489992  41.0994990   5.2079997
   4.9309992  40.1964990   5.1719997   6.0299992  41.1014990   4.6549997
   5.3111079  40.9762240   5.1282908   8.8729992  43.3514990  11.2029997
   8.0379992  43.8054990  11.3139997   9.3969992  43.6274990  11.9549997
   8.8296072  43.4508960  11.3198118   9.4169992  49.5644990   2.8879997
   8.6719992  49.0564990   2.5659997   9.2829992  49.6134990   3.8339997
   9.2969334  49.5016144   2.9718892  16.5669992  48.6974990  11.6749997
  17.2089992  49.1534990  11.1309997  15.7369992  48.8104990  11.2119997
  16.5426536  48.7751813  11.5379579  13.3149992  42.3784990   1.0869997
  12.3759992  42.4894990   0.9359997  13.6119992  43.2344990   1.3939997
  13.2266136  42.5094977   1.1078568  10.9369992  49.7484990  14.1249997
  10.5909992  49.3664990  14.9319997  10.7369992  50.6814990  14.1959997
  10.8625987  49.8224013  14.2450443  14.0329992  44.2454990   2.7479997
  14.9249992  44.1074990   3.0669997  14.0899992  45.0364990   2.2109997
  14.1627380  44.3334777   2.7190981  92.4259992  34.2184990  89.1299997
  91.7789992  34.5434990  89.7549997  91.9089992  33.7774990  88.4549997
  92.2674068  34.2034726  89.1244918   4.5419992  48.8594990   8.6579997
   5.2869992  48.8564990   8.0559997   4.6199992  48.0354990   9.1389997
   4.6543365  48.7477395   8.6407412  11.5429992  51.0224990   1.9129997
  11.2479992  51.8494990   2.2949997  10.8399992  50.4034990   2.1099997
  11.4076379  51.0519182   1.9918636   1.5499992  47.3194990  13.9729997
   1.7729992  46.9014990  14.8039997   0.9479992  46.7074990  13.5499997
   1.4991513  47.1794617  14.0296722   8.5669992  46.8364990  16.1859997
   8.2709992  46.6714990  15.2899997   9.4979992  46.6164990  16.1749997
   8.6524401  46.7841891  16.0620189  13.1869992  52.2104990  14.0749997
  12.2859992  52.3934990  13.8079997  13.2209992  52.4694990  14.9959997
  13.0683861  52.2705245  14.1629517  18.9179992  44.4544990   2.4429997
  18.3639992  44.0584990   1.7699997  19.0189992  45.3654990   2.1649997
  18.8558589  44.5233904   2.3133839  18.8809992  50.2554990  15.2799997
  18.0299992  50.4934990  14.9119997  19.4719992  50.2384990  14.5259997
  18.8443831  50.2857623  15.1278448  17.2129992  53.2404990   2.9079997
  16.8409992  52.4154990   3.2169997  17.4909992  53.0574990   2.0099997
  17.1995807  53.1027031   2.8290063  14.3739992  48.0484990   9.9289997
  13.4459992  47.8174990   9.9019997  14.8249992  47.2714990   9.5989997
  14.3078165  47.9117785   9.8806772   6.9169992  52.3774990   6.0619997
   7.4439992  53.1504990   5.8619997   6.0369992  52.6014990   5.7599997
   6.8702121  52.5137344   5.9937460  92.7979992  25.6954990  76.8169997
  92.8949992  26.3624990  76.1369997  92.6579992  24.8804990  76.3349997
  92.7923428  25.6765667  76.6588311   2.6719992  47.2394990   0.6489997
   3.2879992  47.8664990   1.0289997   1.8099992  47.5554990   0.9209997
   2.6397678  47.3679423   0.7377192   8.3439992  50.0404990   5.6379997
   8.1029992  50.9654990   5.6799997   7.6039992  49.5814990   6.0349997
   8.2109463  50.1050969   5.6974279   8.8589992  54.1894990  11.9529997
   9.2219992  55.0434990  11.7199997   9.3909992  53.8974990  12.6939997
   8.9805141  54.2668907  12.0212079   7.0269992  55.0614990   5.1839997
   6.0779992  55.1674990   5.2349997   7.3789992  55.8824990   5.5279997
   6.9445647  55.1870029   5.2374882  12.4029992  50.2884990  11.6539997
  11.9769992  50.0604990  12.4799997  12.9839992  49.5494990  11.4719997
  12.4232088  50.1574393  11.7424454  14.6059992  51.2174990   0.7279997
  14.9589992  50.8374990   1.5319997  13.6569992  51.1234990   0.8149997
  14.5260956  51.1527867   0.8498005  15.0619992  54.8404990  14.1229997
  14.4599992  54.2844990  13.6279997  15.3429992  55.5074990  13.4969997
  15.0175757  54.8545755  13.9705657  19.1089992  55.6964990   0.9289997
  19.8529992  56.2824990   0.7889997  18.4149992  56.2654990   1.2619997
  19.1169809  55.8535830   0.9548572   3.1839992  42.0734990  13.5309997
   2.2909992  42.4114990  13.4629997   3.0849992  41.2174990  13.9489997
   3.0484752  42.0040986  13.5781644  15.4719992  49.8894990   2.9549997
  15.1949992  49.1614990   3.5109997  16.3989992  50.0084990   3.1599997
  15.5594419  49.8059436   3.0588264  91.9679992  27.0764990  82.4379997
  91.8179992  26.1314990  82.4179997  91.6139992  27.3574990  83.2819997
  91.8996351  26.9851656  82.5493202   2.8349992  53.8774990  11.9659997
   3.0519992  52.9454990  11.9349997   3.0819992  54.1524990  12.8489997
   2.8980948  53.7870976  12.0811268   7.6339992  51.8994990   1.6309997
   7.7809992  51.3794990   2.4209997   7.6309992  52.8064990   1.9379997
   7.6537102  51.9508964   1.7805907   4.0869992  49.1514990   2.1419997
   3.4009992  49.5044990   2.7089997   4.6099992  49.9144990   1.8949997
   4.0638402  49.3028912   2.1861784  11.9179992  41.8144990  12.4209997
  12.6169992  41.8884990  13.0709997  11.5379992  40.9494990  12.5749997
  11.9622662  41.7077050  12.5307412  12.7029992  41.4664990   3.5179997
  12.9229992  41.9374990   2.7139997  13.2609992  41.8604990   4.1879997
  12.8086044  41.5842946   3.4985207  10.3719992  53.5964990   2.3809997
   9.5549992  54.0934990   2.4329997  10.9009992  54.0724990   1.7399997
  10.3318125  53.7287000   2.3015289   9.9029992  43.1944990   4.3529997
  10.7149992  43.6984990   4.3989997   9.6579992  43.0494990   5.2669997
   9.9811091  43.2439366   4.4828552  10.4389992  44.1804990  13.5369997
  10.5579992  44.7544990  14.2939997  11.0939992  43.4924990  13.6519997
  10.5438684  44.1660205  13.6561656  10.7869992  40.2754990   5.2909997
  10.4399992  40.8924990   5.9349997  11.4449992  40.7764990   4.8089997
  10.8284430  40.4276860   5.3140046   7.7099992  54.6404990   2.3619997
   7.8709992  55.4404990   1.8619997   7.5129992  54.9474990   3.2469997
   7.7053906  54.7913690   2.4132316  77.0029992  29.1544990  86.4479997
  77.1869992  29.0724990  85.5129997  77.8519992  29.0304990  86.8719997
  77.1430259  29.1264915  86.3771771   6.4439992  41.3384990   1.9779997
   6.3609992  42.2264990   2.3249997   7.3339992  41.0734990   2.2099997
   6.5529331  41.4241177   2.0568067  16.6429992  42.0874990  14.3719997
  15.7269992  42.3494990  14.2849997  16.9789992  42.0844990  13.4759997
  16.5628499  42.1230174  14.2388748  15.2449992  45.8374990   8.4679997
  14.4479992  45.4224990   8.1399997  15.6899992  45.1474990   8.9589997
  15.1960367  45.6873372   8.4894897   4.7029992  51.7654990   1.0379997
   5.2949992  52.4654990   1.3149997   5.1619992  51.3324990   0.3189997
   4.8461652  51.8027686   0.9786515   3.0189992  44.4304990   0.1539997
   2.9739992  45.3694990   0.3329997   2.1309992  44.1944990  -0.1150003
   2.8928166  44.5271698   0.1421507  16.3319992  55.0934990  10.0899997
  16.1759992  55.7724990   9.4329997  17.2639992  55.1654990  10.2929997
  16.4367328  55.1961586  10.0275529   3.8269992  39.2114990   8.8269997
   3.5979992  39.2704990   7.8999997   3.3839992  38.4204990   9.1339997
   3.7357387  39.1126412   8.7415223   2.7569992  53.1524990   4.9879997
   1.9249992  53.6244990   5.0149997   3.3029992  53.6624990   4.3889997
   2.7168710  53.2860317   4.9107570   2.0459992  55.7644990  16.3179997
   2.5859992  55.5484990  17.0779997   1.5639992  54.9594990  16.1279997
   2.0548485  55.6260463  16.3964870   6.6429992  54.6844990  17.9379997
   7.4109992  54.2254990  18.2789997   6.6219992  54.4584990  17.0079997
   6.7452135  54.5911680  17.8589473  92.8239992  29.0464990  92.0769997
  93.4069992  28.3114990  92.2679997  93.3879992  29.8184990  92.1229997
  92.9800326  29.0502746  92.1093579  10.7349992  54.1924990  -0.6870003
  10.0909992  53.5614990  -0.3650003  11.4969992  53.6614990  -0.9180003
  10.7498708  54.0343171  -0.6741539  13.2199992  53.0644990  16.6669997
  12.8689992  52.2074990  16.9099997  13.9459992  53.2064990  17.2739997
  13.2701590  52.9665189  16.7822889  15.3389992  54.0094990  -0.4530003
  15.6219992  53.2144990  -0.0000003  16.0789992  54.2424990  -1.0140003
  15.4777295  53.9322349  -0.4668531   1.9529992  49.5754990  17.2719997
   2.0969992  48.6734990  16.9859997   1.1799992  49.8614990  16.7849997
   1.8682266  49.4906548  17.1670102   6.2939992  49.9184990  -0.5950003
   6.3579992  49.1244990  -0.0650003   6.9469992  49.8004990  -1.2850003
   6.3910483  49.7937496  -0.6156593   8.6079992  49.5444990  16.7049997
   8.2799992  49.8154990  15.8479997   8.7599992  48.6034990  16.6169997
   8.5836412  49.4544058  16.5757804  14.3429992  49.4604990  14.0879997
  15.0879992  50.0494990  13.9689997  13.5849992  50.0424990  14.1509997
  14.3425289  49.6197067  14.0802292   2.7849992  46.7754990  16.6919997
   3.1929992  45.9184990  16.5709997   2.5249992  46.7894990  17.6129997
   2.8057082  46.6600596  16.7999469   7.4429992  47.8914990   1.7109997
   6.9839992  47.4074990   2.3959997   7.6979992  47.2224990   1.0749997
   7.4145997  47.7348491   1.7188734   6.7319992  45.7844990  14.0669997
   6.1139992  46.4584990  14.3469997   7.0759992  46.1054990  13.2329997
   6.6938078  45.9202298  13.9926609  94.3209992  26.9494990  92.7609997
  93.4569992  26.5704990  92.5959997  94.9249992  26.2104990  92.6869997
  94.2844912  26.7977937  92.7284360   8.5139992  46.1344990  -0.0270003
   8.3339992  45.9794990  -0.9540003   9.4639992  46.2424990   0.0179997
   8.6177804  46.1278821  -0.1478034  11.7519992  48.2554990  17.3439997
  12.7049992  48.3394990  17.3169997  11.5919992  47.5434990  17.9629997
  11.8607320  48.1707292  17.4239933  17.9039992  48.4884990  -0.5810003
  17.6309992  48.0644990  -1.3940003  17.9439992  49.4204990  -0.7980003
  17.8720201  48.5563523  -0.7216452   7.0719992  43.1394990  15.1489997
   7.2219992  42.4104990  14.5469997   7.0739992  43.9164990  14.5899997
   7.0927967  43.1447720  14.9910523   7.4839992  41.5084990  12.6419997
   8.0199992  41.9604990  11.9899997   6.6319992  41.4004990  12.2189997
   7.4421795  41.5557444  12.4956211   9.0659992  46.9484990  12.8809997
   9.8169992  46.7924990  12.3079997   8.7269992  47.8004990  12.6059997
   9.1229587  47.0423149  12.7654060  13.4819992  44.7634990  17.9099997
  13.6739992  43.8324990  17.7979997  14.3389992  45.1884990  17.8989997
  13.6242176  44.6935090  17.8931757  14.7979992  47.5524990  15.9869997
  14.5169992  48.2614990  15.4089997  15.7409992  47.4794990  15.8359997
  14.8869272  47.6396704  15.8874976   5.5499992  44.3374990  17.0599997
   4.7829992  43.8044990  16.8499997   6.2289992  44.0274990  16.4609997
   5.5368292  44.2226360  16.9502693   8.2899992  38.9654990  13.0729997
   8.1919992  39.9114990  12.9679997   7.5469992  38.5924990  12.5969997
   8.1762123  39.0446811  12.9943204  91.6779992  24.6584990  80.8999997
  91.9579992  23.7514990  81.0249997  92.4369992  25.0924990  80.5109997
  91.8189471  24.5930654  80.8645052   9.5539992  43.2864990  16.6369997
   9.3179992  43.0674990  17.5379997   8.7709992  43.0794990  16.1269997
   9.4158382  43.2285340  16.6913991  12.2699992  42.4144990  15.7119997
  11.3219992  42.4464990  15.8439997  12.5819992  41.7884990  16.3659997
  12.1825293  42.3342934  15.8184130  13.9039992  41.0484990  17.7169997
  13.8069992  40.0964990  17.7119997  13.5819992  41.3164990  18.5779997
  13.8472468  40.9545896  17.8326192   3.7309992  42.2574990  16.7649997
   3.9419992  41.5514990  16.1549997   3.6189992  41.8204990  17.6089997
   3.7447668  42.1016619  16.7955445   8.5119992  38.2594990  15.7439997
   9.2229992  37.6194990  15.7299997   8.4109992  38.5254990  14.8309997
   8.5956858  38.2078591  15.6185501   8.8649992  39.9414990  17.7979997
   8.7339992  39.4664990  16.9779997   8.2659992  40.6864990  17.7429997
   8.7660829  39.9770949  17.6781823   8.4119992  56.8244990   0.9739997
   9.3449992  56.9824990   1.1179997   8.1469992  57.5004990   0.3489997
   8.5039846  56.9374567   0.9092930   1.9799992  51.4614990   0.4569997
   2.8939992  51.5404990   0.7299997   1.9869992  50.7744990  -0.2090003
   2.1060624  51.3794074   0.4043045   0.6289992  56.8544990   5.5339997
  -0.0180008  56.3924990   5.0019997   0.9839992  56.1824990   6.1169997
   0.5883741  56.7004785   5.5399157   1.4989992  54.9344990   7.3389997
   1.1649992  54.0544990   7.5109997   1.7209992  55.2804990   8.2039997
   1.4832565  54.8607410   7.4794263  92.2899992  25.2404990  86.3359997
  93.2229992  25.4524990  86.3019997  92.0549992  25.3414990  87.2589997
  92.3858357  25.2831303  86.4560232  19.0479992  55.7444990  10.3199997
  19.0259992  55.9294990  11.2579997  19.7379992  56.3124990   9.9789997
  19.1383383  55.8467104  10.4024580  18.6109992  55.3114990  13.2409997
  18.1239992  54.5754990  12.8699997  19.1599992  54.9174990  13.9189997
  18.6186101  55.1576267  13.2819034  17.0619992  51.1014990  17.8789997
  16.1959992  50.9964990  18.2739997  17.4379992  51.8594990  18.3259997
  16.9944940  51.1896141  17.9933958  18.3629992  49.3574990   3.3939997
  19.2129992  49.7784990   3.5209997  18.3679992  48.6174990   4.0009997
  18.4801143  49.3151106   3.4934732  18.7569992  47.4114990   5.2169997
  18.0309992  46.9314990   5.6149997  19.3379992  47.6164990   5.9489997
  18.7362504  47.3735592   5.3704199  18.5159992  50.1964990  10.1649997
  19.3499992  49.8184990   9.8839997  18.6279992  51.1394990  10.0459997
  18.6451917  50.2722954  10.1104844  17.0019992  53.0744990  12.4719997
  16.3549992  53.3994990  13.0969997  16.4849992  52.6334990  11.7979997
  16.8434112  53.0594133  12.4665272  19.0249992  47.3124990   1.6079997
  18.5039992  47.6684990   0.8899997  18.9919992  47.9874990   2.2869997
  18.9490955  47.4525023   1.6012634  17.3739992  44.5514990   0.1589997
  17.4709992  45.2184990  -0.5210003  17.2339992  43.7364990  -0.3220003
  17.3683407  44.5325670   0.0008312  16.5439992  45.9324990   5.7799997
  16.3939992  44.9874990   5.7599997  16.1899992  46.2134990   6.6239997
  16.4756351  45.8411656   5.8913202  92.3189992  25.9774990  89.1119997
  91.4759992  26.2454990  89.4779997  92.7619992  26.7994990  88.9009997
  92.2634358  26.1253294  89.1335999   1.5789992  48.0104990   9.7909997
   1.7629992  47.9284990   8.8549997   2.4279992  47.8864990  10.2139997
   1.7190132  47.9825066   9.7201460  17.3999992  47.9024990  15.4189997
  17.9829992  47.1674990  15.6109997  17.9639992  48.6744990  15.4659997
  17.5559781  47.9063156  15.4516146  18.8969992  45.8054990  16.1039997
  18.0329992  45.4264990  15.9379997  19.5009992  45.0664990  16.0289997
  18.8605394  45.6538378  16.0711778  16.2539992  43.5144990   4.2429997
  16.5339992  42.6074990   4.3669997  17.0129992  43.9484990   3.8539997
  16.3949258  43.4490935   4.2073691  16.8659992  44.0964990   9.6789997
  17.7989992  44.3084990   9.6439997  16.6309992  44.1974990  10.6009997
  16.9619517  44.1391844   9.7989113  16.8949992  44.8334990  12.4549997
  16.0519992  45.1014990  12.8199997  17.3379992  45.6554990  12.2439997
  16.8394035  44.9813351  12.4764770   1.1759992  43.2804990  15.9309997
   2.0959992  43.1584990  16.1679997   0.7269992  42.5304990  16.3209997
   1.2410500  43.1624576  16.0161016  19.1779992  38.8134990  17.8079997
  19.5279992  38.1594990  17.2019997  19.3249992  39.6504990  17.3679997
  19.2457192  38.8372545  17.6656712  16.8679992  40.7774990   4.2909997
  17.0499992  40.3284990   5.1159997  16.2679992  40.1934990   3.8269997
  16.8118187  40.6370563   4.3412721   2.3979992  41.5934990   8.8229997
   2.8429992  40.8014990   9.1249997   2.8639992  42.3094990   9.2529997
   2.5219718  41.5819546   8.9225247  76.5999992  24.4244990  92.5889997
  77.5199992  24.3024990  92.8249997  76.1509992  23.6744990  92.9779997
  76.6651561  24.3063720  92.6739015   0.7019992  44.5924990   9.8919997
   1.1939992  44.3714990   9.1009997   1.0639992  45.4324990  10.1729997
   0.8182923  44.6758480   9.8217389  18.6979992  40.9224990  16.1569997
  17.7809992  41.1934990  16.1209997  18.8209992  40.3874990  15.3729997
  18.5890828  40.8872711  16.0460767  18.7339992  40.8454990   0.8189997
  19.1469992  40.1244990   0.3439997  19.4159992  41.5144990   0.8769997
  18.8826060  40.8373741   0.7619233   1.0149992  40.8504990   3.9459997
   0.0899992  41.0584990   3.8169997   1.4689992  41.3344990   3.2559997
   0.9496298  40.9444311   3.8350433  15.7859992  55.8344990   5.8919997
  16.4379992  55.4864990   5.2839997  16.2969992  56.3224990   6.5379997
  15.9442872  55.8528248   5.8960964   0.9789992  39.5884990  12.2899997
   0.3139992  39.3424990  12.9329997   0.5359992  40.2104990  11.7129997
   0.8281168  39.6389225  12.2999830   3.1709992  52.7634990  16.4349997
   2.3499992  52.9384990  15.9739997   2.9189992  52.6904990  17.3549997
   3.0245594  52.7775728  16.4963593   6.1249992  53.7374990  12.6929997
   5.6999992  54.5474990  12.4109997   7.0289992  53.8234990  12.3909997
   6.1890706  53.8599557  12.6135836  10.4359992  55.1364990  15.6529997
  10.6209992  54.8034990  16.5309997  11.2829992  55.4464990  15.3309997
  10.5757291  55.1328214  15.7296140  12.7809992  56.4224990  14.8969997
  13.4579992  55.7894990  14.6569997  13.1029992  56.8234990  15.7039997
  12.9171618  56.3901147  14.9732802  94.6019992  19.9574990  94.4659997
  94.9519992  19.3034990  93.8599997  94.7489992  20.7944990  94.0259997
  94.6697192  19.9812545  94.3236712  17.6989992  39.0124990  13.9759997
  16.8859992  39.3374990  13.5889997  17.9319992  38.2514990  13.4429997
  17.6191347  38.9541891  13.8509824   3.5269992  56.9944990  12.7409997
   2.8059992  57.4344990  12.2899997   3.1609992  56.7434990  13.5889997
   3.3789632  57.0207235  12.7939649   5.9939992  56.5944990  11.7699997
   5.1289992  56.6664990  12.1739997   5.9389992  57.1414990  10.9869997
   5.8682290  56.6783242  11.7193749  10.7049992  56.4824990  10.9459997
  10.2479992  57.0114990  10.2919997  10.8669992  57.0854990  11.6709997
  10.6643919  56.6363990  10.9545740  13.0319992  55.3604990  11.8909997
  12.1279992  55.5254990  11.6249997  13.4609992  56.2134990  11.8249997
  12.9662017  55.4984184  11.8456495  15.6359992  56.9304990  12.1859997
  15.4549992  57.8464990  11.9749997  15.8129992  56.5194990  11.3389997
  15.6351377  57.0003365  12.0427178   2.9419992  55.6174990   9.6509997
   2.9229992  55.1914990  10.5079997   3.7459992  55.2984990   9.2419997
   3.0481393  55.5160297   9.7130155   5.0829992  54.3274990   8.3059997
   4.8639992  53.4104990   8.4759997   5.9069992  54.4674990   8.7719997
   5.1644702  54.2210523   8.3922510   7.6199992  54.7974990   9.1549997
   7.8329992  53.9094990   8.8679997   7.6849992  54.7624990  10.1089997
   7.6579149  54.6713338   9.2447351  11.1289992  40.4614990   8.2989997
  10.4539992  39.8314990   8.5549997  11.6929992  39.9774990   7.6959997
  11.1129363  40.3098886   8.2524810  92.2919992  21.9214990  80.9489997
  92.4739992  21.4724990  81.7739997  91.6919992  21.3374990  80.4849997
  92.2358187  21.7810563  80.9992721  16.2709992  38.5684990   8.4119997
  16.8749992  39.1164990   7.9099997  15.4019992  38.8874990   8.1709997
  16.2360419  38.6865628   8.3107741  17.9979992  39.7074990   6.7449997
  18.6099992  39.1934990   6.2179997  18.3809992  40.5844990   6.7679997
  18.1333867  39.7557613   6.6760888   3.4549992  39.0954990   6.1209997
   2.6779992  38.8604990   5.6139997   3.9859992  38.2984990   6.1299997
   3.4203735  38.9556462   6.0528090   2.2919992  38.8934990   1.9249997
   2.7309992  39.5044990   1.3329997   1.6579992  39.4314990   2.3989997
   2.2663859  39.0499076   1.9080287   8.0349992  39.0214990   5.9339997
   8.9089992  39.4104990   5.9049997   7.8989992  38.8064990   6.8569997
   8.1361953  39.0456654   6.0547599  13.5909992  39.0514990   7.5839997
  13.6679992  39.1474990   6.6339997  13.3159992  38.1444990   7.7119997
  13.5643233  38.9419093   7.4713665  14.9449992  39.0774990   3.2759997
  14.2419992  39.6924990   3.0659997  14.4999992  38.2404990   3.4069997
  14.7886550  39.0484679   3.2649819   2.1929992  54.8414990   2.8219997
   1.5079992  54.8034990   2.1549997   2.1959992  55.7534990   3.1099997
   2.0996806  54.9596669   2.7696961   4.1529992  40.8094990   0.3669997
   4.6439992  40.1794990  -0.1600003   4.7759992  41.1054990   1.0299997
   4.3045304  40.7632387   0.3844922   9.1789992  41.1024990   2.8239997
   9.3569992  40.4554990   3.5069997   9.1249992  41.9364990   3.2909997
   9.1960678  41.1266615   2.9806283  77.8219992  22.7374990  85.4799997
  78.2669992  21.9454990  85.7819997  78.2879992  23.4534990  85.9109997
  77.9459059  22.7259485  85.5796061  11.0569992  56.0504990   1.2199997
  11.9229992  56.4174990   1.0419997  10.8099992  55.6114990   0.4059997
  11.1421853  56.0414021   1.0855813  17.7659992  55.6134990   3.8989997
  17.5719992  54.8654990   3.3339997  17.7269992  56.3714990   3.3159997
  17.7341645  55.6135797   3.7428131   3.4129992  39.6094990  15.6389997
   3.0469992  38.8434990  16.0809997   4.3259992  39.6384990  15.9249997
   3.4863172  39.5085335  15.7381872   5.3859992  38.9594990  17.1739997
   6.2849992  38.6854990  16.9899997   4.9999992  38.2174990  17.6389997
   5.4567307  38.8217207  17.2117080   4.0109992  55.7614990  -0.1530003
   3.7429992  56.0474990   0.7209997   4.7819992  55.2154990  -0.0000003
   4.0785926  55.7267790  -0.0128812  13.8069992  38.2924990  17.3569997
  13.8839992  37.8664990  18.2099997  14.7009992  38.3054990  17.0139997
  13.9383263  38.2359345  17.4274366  16.9839992  54.3644990  16.0489997
  16.2019992  54.1784990  15.5289997  16.9119992  55.2944990  16.2659997
  16.8672975  54.4646973  16.0071822  31.3899992  48.2514990   6.0799997
  31.4789992  49.1954990   5.9469997  30.7509992  47.9764990   5.4219997
  31.3158378  48.3433846   5.9729258  30.3229992  47.5064990   9.4989997
  30.2839992  46.8604990  10.2039997  29.9999992  47.0394990   8.7269997
  30.2740469  47.3550005   9.4912803  22.6909992  47.1204990  11.0919997
  22.7319992  46.4954990  11.8149997  23.3939992  47.7444990  11.2739997
  22.7916223  47.1192318  11.2156164  76.1259992  25.7364990  86.5489997
  76.6179992  25.5154990  85.7589997  76.4879992  26.5764990  86.8299997
  76.2423429  25.8198220  86.4787918  34.0289992  50.4454990   7.7999997
  33.5879992  49.7254990   8.2509997  34.0159992  51.1664990   8.4299997
  33.9669215  50.4444303   7.9468088  23.6149992  51.5704990   9.6269997
  23.2449992  50.7684990   9.2569997  24.5559992  51.4024990   9.6729997
  23.6915984  51.4379649   9.5825586  20.2249992  45.2304990   5.0189997
  19.7769992  46.0764990   5.0009997  19.6639992  44.6514990   4.5039997
  20.0878546  45.2679004   4.9468874  20.9349992  47.3924990   7.1449997
  21.1489992  46.6224990   7.6719997  21.6729992  47.4824990   6.5419997
  21.0640073  47.2993546   7.1355786  31.1399992  55.5494990   8.0119997
  31.7599992  54.8734990   7.7389997  30.9319992  55.3314990   8.9209997
  31.1967679  55.4275032   8.0974518  28.7119992  49.9384990   9.9049997
  29.0159992  49.2524990   9.3099997  29.4339992  50.0574990  10.5229997
  28.8511240  49.8607325   9.9070941  37.3749992  41.5404990  10.7649997
  37.4239992  42.1504990  11.5009997  37.8009992  42.0014990  10.0419997
  37.4392851  41.6863266  10.7680532  31.8529992  44.3324990  10.2319997
  31.9949992  43.3864990  10.2519997  31.7469992  44.5394990   9.3039997
  31.8581051  44.2309706  10.1092249  25.0079992  42.4344990   7.5049997
  25.0509992  43.2944990   7.0859997  24.5499992  41.8814990   6.8709997
  24.9520163  42.4774174   7.3620604  32.7299992  42.5654990   5.9049997
  33.3759992  42.2364990   6.5299997  33.2399992  43.0824990   5.2829997
  32.8874289  42.5904333   5.9063681  94.1219992  22.0664990  92.8149997
  93.2049992  22.3374990  92.7789997  94.2449992  21.5314990  92.0309997
  94.0130828  22.0312711  92.7040767  21.6279992  44.8314990   8.2669997
  22.2819992  44.2814990   8.6989997  21.6519992  44.5574990   7.3499997
  21.7207199  44.7192179   8.2021650  26.7839992  46.3814990   7.4819997
  27.3999992  45.8544990   7.9909997  26.1979992  45.7414990   7.0779997
  26.7890652  46.2228919   7.4970277  37.7669992  43.0184990  13.0009997
  37.0779992  43.6764990  12.9059997  37.7819992  42.8204990  13.9379997
  37.6747756  43.0817614  13.1145795  23.8179992  41.3524990  11.5789997
  23.5989992  41.8824990  10.8119997  23.1499992  41.5784990  12.2259997
  23.6976975  41.4555979  11.5615123  31.1869992  50.8524990   5.1229997
  30.8909992  50.5294990   4.2709997  30.8629992  51.7524990   5.1639997
  31.1027458  50.9299678   5.0120598  26.3869992  49.0274990  11.8659997
  25.6469992  49.6264990  11.9699997  27.1009992  49.5814990  11.5499997
  26.3823146  49.1842611  11.8375150  34.4939992  41.8564990   7.8859997
  34.2789992  41.0904990   8.4189997  35.1499992  42.3284990   8.3989997
  34.5532673  41.8155739   8.0281972  23.4119992  43.2444990   9.5309997
  24.0249992  43.8774990   9.9039997  23.9239992  42.7724990   8.8749997
  23.5651933  43.2673380   9.4933477  24.7939992  50.9924990  12.6529997
  24.7889992  51.8714990  12.2749997  23.9409992  50.9084990  13.0779997
  24.6779199  51.1015901  12.6586942  20.9159992  50.6634990   3.4349997
  20.6439992  50.8924990   2.5459997  20.9609992  51.5004990   3.8959997
  20.8848360  50.8081034   3.3756186  76.4389992  21.9944990  80.6039997
  75.5139992  22.2024990  80.4739997  76.8929992  22.4784990  79.9139997
  76.3737401  22.0883895  80.4929433  34.5409992  52.2844990  10.1479997
  33.5989992  52.3434990  10.3099997  34.8169992  53.1904990  10.0109997
  34.4495865  52.4150299  10.1516174  34.8409992  40.5714990  11.5649997
  34.1049992  41.1814990  11.5279997  35.5249992  40.9864990  11.0389997
  34.8325367  40.7112562  11.4888156  27.8439992  38.6574990   9.0309997
  27.7269992  37.7094990   8.9769997  26.9889992  38.9904990   9.3039997
  27.7123691  38.5725842   9.0605072  32.7929992  54.0654990   6.7729997
  33.2179992  53.3584990   6.2879997  33.1099992  54.8674990   6.3559997
  32.8940266  54.0770201   6.6502461  33.9519992  51.9664990   5.2819997
  33.6949992  51.2764990   4.6699997  34.0229992  51.5234990   6.1269997
  33.9264322  51.8121568   5.3125372  35.6379992  50.5334990  13.7589997
  35.7779992  49.9414990  13.0199997  35.8059992  51.4064990  13.4029997
  35.6798734  50.5704041  13.6096937  30.1109992  47.4954990   3.5319997
  29.3989992  48.0304990   3.1799997  30.8019992  47.5504990   2.8719997
  30.1069704  47.5761663   3.3945797  30.1649992  45.9524990   0.5699997
  30.8659992  45.9754990   1.2219997  30.4669992  45.3244990  -0.0860003
  30.3018202  45.8707223   0.5705591  37.4799992  46.8734990  11.8249997
  36.8279992  47.5674990  11.9139997  37.9449992  47.0834990  11.0149997
  37.4535357  46.9969544  11.7277056  33.5169992  47.7044990   4.4829997
  32.7849992  47.9334990   5.0559997  33.9639992  46.9914990   4.9379997
  33.4772753  47.6393984   4.6229698  91.2099992  36.9784990  82.5489997
  91.8619992  36.6304990  81.9409997  91.7209992  37.4664990  83.1949997
  91.3682872  36.9968248  82.5530964  33.4139992  45.8794990  13.5509997
  33.4939992  46.6424990  14.1229997  32.8129992  46.1584990  12.8609997
  33.3436547  46.0217468  13.5360029  25.1619992  48.3354990   6.3659997
  24.8319992  47.9644990   5.5479997  25.7499992  47.6644990   6.7129997
  25.1963182  48.1940648   6.3009898  26.5289992  51.7634990   9.0469997
  26.4339992  51.1844990   8.2909997  27.2579992  51.3924990   9.5429997
  26.6146011  51.6340572   9.0106011  25.5289992  47.1034990   9.9989997
  26.0939992  47.2254990   9.2369997  25.8469992  47.7414990  10.6379997
  25.6493619  47.2064388   9.9810019  31.8379992  52.6074990  10.7329997
  31.5969992  53.2694990  11.3809997  31.6399992  51.7724990  11.1579997
  31.7782662  52.5852704  10.8791008  26.4089992  51.5034990  14.7169997
  26.0969992  52.2854990  15.1719997  25.7589992  51.3504990  14.0309997
  26.2784858  51.5897882  14.6865344  32.3879992  46.8674990   2.1689997
  32.9669992  47.0174990   2.9149997  32.8019992  47.3374990   1.4449997
  32.5233358  46.9515966   2.1733935  23.3289992  47.7014990  13.9449997
  23.3989992  48.3524990  14.6439997  22.4379992  47.8044990  13.6099997
  23.2181690  47.8044261  13.9953026  30.1139992  53.6034990   5.6039997
  30.5879992  53.8994990   6.3809997  29.5509992  54.3424990   5.3709997
  30.1027890  53.7438047   5.6788084  24.6479992  53.5744990  15.4799997
  24.6559992  53.4384990  14.5329997  23.7319992  53.4574990  15.7319997
  24.5252528  53.5400475  15.3843226  76.4029992  20.7324990  88.9479997
  75.7379992  20.4864990  89.5909997  75.9599992  21.3544990  88.3709997
  76.2521168  20.7829225  88.9579830  36.0859992  38.6174990   1.9809997
  35.1859992  38.7554990   2.2769997  36.3379992  39.4484990   1.5799997
  35.9967727  38.7488705   1.9672935  24.1519992  47.4044990   3.9549997
  23.8599992  48.1724990   3.4639997  23.4779992  46.7454990   3.7919997
  24.0208843  47.4204537   3.8657695  37.2759992  52.9834990   0.3579997
  37.3489992  53.9224990   0.5279997  38.1809992  52.6784990   0.3019997
  37.4084170  53.0708294   0.3737045  20.2449992  49.7674990  12.7699997
  19.7439992  49.7394990  11.9549997  20.2509992  48.8624990  13.0799997
  20.1771690  49.6412234  12.7002770  19.9959992  52.5484990   9.6539997
  20.9419992  52.4034990   9.6349997  19.8829992  53.3324990  10.1909997
  20.1103578  52.6346708   9.7240300  38.1929992  53.2144990  15.3369997
  38.1439992  52.2584990  15.2989997  37.3669992  53.4814990  15.7379997
  38.0745096  53.1198416  15.3860698  29.1719992  52.7884990  14.2129997
  29.2589992  53.6144990  14.6879997  28.3079992  52.4584990  14.4619997
  29.0671944  52.8569871  14.3116558  29.5859992  56.5604990   4.0189997
  29.5109992  56.4394990   3.0719997  29.6189992  57.5094990   4.1369997
  29.5802083  56.6722639   3.9054973  23.2399992  55.3494990   5.7999997
  23.3919992  55.0014990   6.6779997  22.3889992  54.9924990   5.5439997
  23.1458344  55.2535891   5.8856851  32.6879992  55.7144990   1.0209997
  33.0629992  54.9704990   0.5499997  32.6919992  55.4444990   1.9389997
  32.7398969  55.5760920   1.0806475  78.5949992  33.9074990  93.0919997
  77.7739992  34.0824990  92.6319997  78.3429992  33.8344990  94.0129997
  78.4486173  33.9215806  93.1534954  32.3569992  55.6404990   3.7699997
  31.4219992  55.7404990   3.9489997  32.6369992  54.9304990   4.3489997
  32.2669471  55.5582944   3.8726678  35.3449992  44.7074990  15.8169997
  34.9379992  45.1874990  15.0959997  35.3859992  43.8014990  15.5089997
  35.2948403  44.6507989  15.6767253  22.4939992  51.0914990  13.8129997
  22.7099992  50.7294990  14.6729997  21.6389992  50.7164990  13.6039997
  22.4079082  50.9913377  13.9022396  25.1129992  39.5614990   9.8089997
  24.2509992  39.4744990   9.4009997  25.0909992  40.4174990  10.2369997
  24.9920557  39.6653078   9.8110202  29.7759992  39.2834990  13.1839997
  30.1959992  38.8684990  13.9369997  28.8429992  39.1044990  13.3009997
  29.7073736  39.2024921  13.3028950  33.1019992  43.0384990  14.0369997
  32.5879992  42.9134990  14.8349997  32.9469992  43.9514990  13.7929997
  33.0107802  43.1447433  14.1131504  33.8649992  47.8994990  -0.2020003
  33.9069992  47.6774990  -1.1320003  34.7139992  48.2984990  -0.0120003
  33.9855253  47.9230510  -0.3036196  29.4379992  41.7754990   0.4689997
  29.1839992  41.7944990   1.3909997  29.1809992  40.9044990   0.1669997
  29.3684508  41.6603292   0.5544786  25.2039992  44.5264990  10.9039997
  24.5619992  44.4864990  11.6129997  25.2409992  45.4534990  10.6659997
  25.1211659  44.6462540  10.9688463  25.2009992  44.7474990   5.8159997
  24.3079992  44.4074990   5.7569997  25.6519992  44.3704990   5.0599997
  25.1397185  44.6500220   5.7057698  81.5489992  34.8814990  89.3509997
  81.1239992  35.6914990  89.0679997  82.4529992  34.9674990  89.0489997
  81.6131002  35.0038728  89.2714798  30.7369992  45.1634990   4.6329997
  30.3279992  45.9784990   4.3409997  31.4569992  45.0234990   4.0189997
  30.7784439  45.2560383   4.5100098  29.8389992  45.3394990  16.1209997
  29.2759992  44.6344990  16.4419997  30.6649992  45.2184990  16.5889997
  29.8736674  45.2267176  16.2281734  31.7409992  44.6094990   7.4469997
  31.5459992  45.2154990   6.7319997  31.9229992  43.7764990   7.0129997
  31.7389195  44.5797936   7.2904079  22.9539992  44.8474990  12.7709997
  22.9159992  45.2474990  13.6399997  22.4629992  44.0304990  12.8609997
  22.8824374  44.7918228  12.9020980  26.3199992  42.2214990  -0.4300003
  25.8889992  41.7764990   0.2989997  25.6019992  42.5924990  -0.9430003
  26.1639176  42.2107063  -0.3995087  19.5619992  41.9634990   6.6219997
  20.1929992  41.9344990   7.3409997  20.0119992  41.5384990   5.8909997
  19.7091082  41.9021269   6.6216307  20.8359992  42.7094990   2.0459997
  21.3109992  43.3004990   1.4609997  20.1189992  43.2394990   2.3929997
  20.8040406  42.8621011   2.0128495  31.0049992  46.2474990  12.1179997
  31.3289992  45.6164990  11.4749997  30.5649992  45.7134990  12.7789997
  30.9898707  46.0888261  12.1193195  27.7829992  42.1754990   6.9019997
  26.8719992  42.2324990   7.1909997  28.2879992  42.1154990   7.7129997
  27.7266873  42.1751838   7.0511190  22.6109992  43.8044990   5.7289997
  21.7219992  43.9034990   5.3889997  22.9069992  42.9624990   5.3829997
  22.5294001  43.7042473   5.6357318  85.8599992  36.2804990  92.3099997
  86.0449992  35.9474990  93.1879997  86.7069992  36.5904990  91.9879997
  85.9997291  36.2768214  92.3866140  26.2639992  43.8044990   3.3859997
  27.1959992  43.9334990   3.5639997  26.0489992  44.4734990   2.7359997
  26.3624472  43.9125817   3.3224873  32.1879992  41.4104990  10.1659997
  31.5109992  41.5414990  10.8299997  31.7019992  41.2554990   9.3559997
  32.0297265  41.4074665  10.1473380  24.9379992  44.9984990   0.9519997
  24.3959992  44.6194990   0.2609997  25.7719992  45.1934990   0.5239997
  24.9764390  44.9729091   0.7994374  35.4749992  57.0814990  16.4429997
  35.6749992  57.5054990  15.6089997  36.1309992  57.4254990  17.0499997
  35.5909937  57.1859993  16.4108645  23.0729992  49.5554990  16.0509997
  23.8049992  49.8104990  16.6129997  22.2929992  49.7604990  16.5669997
  23.0676526  49.6180438  16.1975168  29.1029992  44.9624990   8.7889997
  29.6669992  44.4164990   8.2419997  28.9549992  44.4414990   9.5779997
  29.1603037  44.8171798   8.8207212  24.1049992  41.0994990   5.2079997
  23.7869992  40.1964990   5.1719997  24.8859992  41.1014990   4.6549997
  24.1671079  40.9762240   5.1282908  27.7289992  43.3514990  11.2029997
  26.8939992  43.8054990  11.3139997  28.2529992  43.6274990  11.9549997
  27.6856072  43.4508960  11.3198118  28.2729992  49.5644990   2.8879997
  27.5279992  49.0564990   2.5659997  28.1389992  49.6134990   3.8339997
  28.1529334  49.5016144   2.9718892  35.4229992  48.6974990  11.6749997
  36.0649992  49.1534990  11.1309997  34.5929992  48.8104990  11.2119997
  35.3986536  48.7751813  11.5379579  88.2049992  37.5664990  91.5539997
  88.8819992  36.9334990  91.3139997  88.5269992  37.9674990  92.3619997
  88.3411280  37.5340638  91.6303190  32.1709992  42.3784990   1.0869997
  31.2319992  42.4894990   0.9359997  32.4679992  43.2344990   1.3939997
  32.0826136  42.5094977   1.1078568  29.7929992  49.7484990  14.1249997
  29.4469992  49.3664990  14.9319997  29.5929992  50.6814990  14.1959997
  29.7185987  49.8224013  14.2450443  32.8889992  44.2454990   2.7479997
  33.7809992  44.1074990   3.0669997  32.9459992  45.0364990   2.2109997
  33.0187380  44.3334777   2.7190981  23.3979992  48.8594990   8.6579997
  24.1429992  48.8564990   8.0559997  23.4759992  48.0354990   9.1389997
  23.5103365  48.7477395   8.6407412  30.3989992  51.0224990   1.9129997
  30.1039992  51.8494990   2.2949997  29.6959992  50.4034990   2.1099997
  30.2636379  51.0519182   1.9918636  20.4059992  47.3194990  13.9729997
  20.6289992  46.9014990  14.8039997  19.8039992  46.7074990  13.5499997
  20.3551513  47.1794617  14.0296722  27.4229992  46.8364990  16.1859997
  27.1269992  46.6714990  15.2899997  28.3539992  46.6164990  16.1749997
  27.5084401  46.7841891  16.0620189  32.0429992  52.2104990  14.0749997
  31.1419992  52.3934990  13.8079997  32.0769992  52.4694990  14.9959997
  31.9243861  52.2705245  14.1629517  37.7739992  44.4544990   2.4429997
  37.2199992  44.0584990   1.7699997  37.8749992  45.3654990   2.1649997
  37.7118589  44.5233904   2.3133839  37.7369992  50.2554990  15.2799997
  36.8859992  50.4934990  14.9119997  38.3279992  50.2384990  14.5259997
  37.7003831  50.2857623  15.1278448  93.1229992  20.1564990  90.6339997
  92.3099992  20.4814990  90.2459997  93.3559992  19.3954990  90.1009997
  93.0432566  20.0981570  90.5089196  36.0689992  53.2404990   2.9079997
  35.6969992  52.4154990   3.2169997  36.3469992  53.0574990   2.0099997
  36.0555807  53.1027031   2.8290063  33.2299992  48.0484990   9.9289997
  32.3019992  47.8174990   9.9019997  33.6809992  47.2714990   9.5989997
  33.1638165  47.9117785   9.8806772  25.7729992  52.3774990   6.0619997
  26.2999992  53.1504990   5.8619997  24.8929992  52.6014990   5.7599997
  25.7262121  52.5137344   5.9937460  21.5279992  47.2394990   0.6489997
  22.1439992  47.8664990   1.0289997  20.6659992  47.5554990   0.9209997
  21.4957678  47.3679423   0.7377192  27.1999992  50.0404990   5.6379997
  26.9589992  50.9654990   5.6799997  26.4599992  49.5814990   6.0349997
  27.0669463  50.1050969   5.6974279  27.7149992  54.1894990  11.9529997
  28.0779992  55.0434990  11.7199997  28.2469992  53.8974990  12.6939997
  27.8365141  54.2668907  12.0212079  25.8829992  55.0614990   5.1839997
  24.9339992  55.1674990   5.2349997  26.2349992  55.8824990   5.5279997
  25.8005647  55.1870029   5.2374882  31.2589992  50.2884990  11.6539997
  30.8329992  50.0604990  12.4799997  31.8399992  49.5494990  11.4719997
  31.2792088  50.1574393  11.7424454  33.4619992  51.2174990   0.7279997
  33.8149992  50.8374990   1.5319997  32.5129992  51.1234990   0.8149997
  33.3820956  51.1527867   0.8498005  33.9179992  54.8404990  14.1229997
  33.3159992  54.2844990  13.6279997  34.1989992  55.5074990  13.4969997
  33.8735757  54.8545755  13.9705657  78.9509992  38.1384990  89.3979997
  78.2299992  38.5784990  88.9469997  78.5849992  37.8874990  90.2469997
  78.8029785  38.1647691  89.4509849  37.9649992  55.6964990   0.9289997
  38.7089992  56.2824990   0.7889997  37.2709992  56.2654990   1.2619997
  37.9729809  55.8535830   0.9548572  22.0399992  42.0734990  13.5309997
  21.1469992  42.4114990  13.4629997  21.9409992  41.2174990  13.9489997
  21.9044752  42.0040986  13.5781644  34.3279992  49.8894990   2.9549997
  34.0509992  49.1614990   3.5109997  35.2549992  50.0084990   3.1599997
  34.4154419  49.8059436   3.0588264  21.6909992  53.8774990  11.9659997
  21.9079992  52.9454990  11.9349997  21.9379992  54.1524990  12.8489997
  21.7540948  53.7870976  12.0811268  26.4899992  51.8994990   1.6309997
  26.6369992  51.3794990   2.4209997  26.4869992  52.8064990   1.9379997
  26.5097102  51.9508964   1.7805907  22.9429992  49.1514990   2.1419997
  22.2569992  49.5044990   2.7089997  23.4659992  49.9144990   1.8949997
  22.9198402  49.3028912   2.1861783  30.7739992  41.8144990  12.4209997
  31.4729992  41.8884990  13.0709997  30.3939992  40.9494990  12.5749997
  30.8182662  41.7077050  12.5307412  31.5589992  41.4664990   3.5179997
  31.7789992  41.9374990   2.7139997  32.1169992  41.8604990   4.1879997
  31.6646044  41.5842946   3.4985207  29.2279992  53.5964990   2.3809997
  28.4109992  54.0934990   2.4329997  29.7569992  54.0724990   1.7399997
  29.1878125  53.7287000   2.3015289  28.7589992  43.1944990   4.3529997
  29.5709992  43.6984990   4.3989997  28.5139992  43.0494990   5.2669997
  28.8371091  43.2439366   4.4828552  81.4179992  37.7384990  88.4279997
  80.5529992  37.8104990  88.8319997  81.3629992  38.2854990  87.6439997
  81.2922066  37.8222678  88.3773371  29.2949992  44.1804990  13.5369997
  29.4139992  44.7544990  14.2939997  29.9499992  43.4924990  13.6519997
  29.3998684  44.1660205  13.6561656  29.6429992  40.2754990   5.2909997
  29.2959992  40.8924990   5.9349997  30.3009992  40.7764990   4.8089997
  29.6844430  40.4276860   5.3140046  26.5659992  54.6404990   2.3619997
  26.7269992  55.4404990   1.8619997  26.3689992  54.9474990   3.2469997
  26.5613906  54.7913690   2.4132316  25.2999992  41.3384990   1.9779997
  25.2169992  42.2264990   2.3249997  26.1899992  41.0734990   2.2099997
  25.4089331  41.4241177   2.0568067  35.4989992  42.0874990  14.3719997
  34.5829992  42.3494990  14.2849997  35.8349992  42.0844990  13.4759997
  35.4188499  42.1230174  14.2388748  34.1009992  45.8374990   8.4679997
  33.3039992  45.4224990   8.1399997  34.5459992  45.1474990   8.9589997
  34.0520367  45.6873372   8.4894897  23.5589992  51.7654990   1.0379997
  24.1509992  52.4654990   1.3149997  24.0179992  51.3324990   0.3189997
  23.7021652  51.8027686   0.9786515  21.8749992  44.4304990   0.1539997
  21.8299992  45.3694990   0.3329997  20.9869992  44.1944990  -0.1150003
  21.7488166  44.5271698   0.1421507  35.1879992  55.0934990  10.0899997
  35.0319992  55.7724990   9.4329997  36.1199992  55.1654990  10.2929997
  35.2927328  55.1961586  10.0275529  22.6829992  39.2114990   8.8269997
  22.4539992  39.2704990   7.8999997  22.2399992  38.4204990   9.1339997
  22.5917387  39.1126412   8.7415223  86.1289992  37.6264990  87.6039997
  85.6719992  38.1554990  86.9499997  86.2909992  38.2294990  88.3289997
  86.0883919  37.7803990  87.6125740  21.6129992  53.1524990   4.9879997
  20.7809992  53.6244990   5.0149997  22.1589992  53.6624990   4.3889997
  21.5728710  53.2860317   4.9107570  20.9019992  55.7644990  16.3179997
  21.4419992  55.5484990  17.0779997  20.4199992  54.9594990  16.1279997
  20.9108485  55.6260463  16.3964870  25.4989992  54.6844990  17.9379997
  26.2669992  54.2254990  18.2789997  25.4779992  54.4584990  17.0079997
  25.6012135  54.5911680  17.8589473  29.5909992  54.1924990  -0.6870003
  28.9469992  53.5614990  -0.3650003  30.3529992  53.6614990  -0.9180003
  29.6058708  54.0343171  -0.6741539  32.0759992  53.0644990  16.6669997
  31.7249992  52.2074990  16.9099997  32.8019992  53.2064990  17.2739997
  32.1261590  52.9665189  16.7822889  34.1949992  54.0094990  -0.4530003
  34.4779992  53.2144990  -0.0000003  34.9349992  54.2424990  -1.0140003
  34.3337295  53.9322349  -0.4668531  20.8089992  49.5754990  17.2719997
  20.9529992  48.6734990  16.9859997  20.0359992  49.8614990  16.7849997
  20.7242266  49.4906548  17.1670102  25.1499992  49.9184990  -0.5950003
  25.2139992  49.1244990  -0.0650003  25.8029992  49.8004990  -1.2850003
  25.2470483  49.7937496  -0.6156593  27.4639992  49.5444990  16.7049997
  27.1359992  49.8154990  15.8479997  27.6159992  48.6034990  16.6169997
  27.4396412  49.4544058  16.5757804  33.1989992  49.4604990  14.0879997
  33.9439992  50.0494990  13.9689997  32.4409992  50.0424990  14.1509997
  33.1985289  49.6197067  14.0802292  88.4559992  36.5044990  88.5489997
  87.5519992  36.6694990  88.2829997  88.8849992  37.3574990  88.4829997
  88.3902017  36.6424184  88.5036495  21.6409992  46.7754990  16.6919997
  22.0489992  45.9184990  16.5709997  21.3809992  46.7894990  17.6129997
  21.6617082  46.6600596  16.7999469  26.2989992  47.8914990   1.7109997
  25.8399992  47.4074990   2.3959997  26.5539992  47.2224990   1.0749997
  26.2705997  47.7348491   1.7188734  25.5879992  45.7844990  14.0669997
  24.9699992  46.4584990  14.3469997  25.9319992  46.1054990  13.2329997
  25.5498078  45.9202298  13.9926609  27.3699992  46.1344990  -0.0270003
  27.1899992  45.9794990  -0.9540003  28.3199992  46.2424990   0.0179997
  27.4737804  46.1278821  -0.1478034  30.6079992  48.2554990  17.3439997
  31.5609992  48.3394990  17.3169997  30.4479992  47.5434990  17.9629997
  30.7167320  48.1707292  17.4239933  36.7599992  48.4884990  -0.5810003
  36.4869992  48.0644990  -1.3940003  36.7999992  49.4204990  -0.7980003
  36.7280201  48.5563523  -0.7216452  25.9279992  43.1394990  15.1489997
  26.0779992  42.4104990  14.5469997  25.9299992  43.9164990  14.5899997
  25.9487967  43.1447720  14.9910523  26.3399992  41.5084990  12.6419997
  26.8759992  41.9604990  11.9899997  25.4879992  41.4004990  12.2189997
  26.2981795  41.5557444  12.4956211  27.9219992  46.9484990  12.8809997
  28.6729992  46.7924990  12.3079997  27.5829992  47.8004990  12.6059997
  27.9789587  47.0423149  12.7654060  32.3379992  44.7634990  17.9099997
  32.5299992  43.8324990  17.7979997  33.1949992  45.1884990  17.8989997
  32.4802176  44.6935090  17.8931757  91.0599992  38.0744990  88.8439997
  90.8789992  38.9904990  88.6329997  91.2369992  37.6634990  87.9969997
  91.0591377  38.1443365  88.7007178  33.6539992  47.5524990  15.9869997
  33.3729992  48.2614990  15.4089997  34.5969992  47.4794990  15.8359997
  33.7429272  47.6396704  15.8874976  24.4059992  44.3374990  17.0599997
  23.6389992  43.8044990  16.8499997  25.0849992  44.0274990  16.4609997
  24.3928292  44.2226360  16.9502693  27.1459992  38.9654990  13.0729997
  27.0479992  39.9114990  12.9679997  26.4029992  38.5924990  12.5969997
  27.0322123  39.0446811  12.9943204  28.4099992  43.2864990  16.6369997
  28.1739992  43.0674990  17.5379997  27.6269992  43.0794990  16.1269997
  28.2718382  43.2285340  16.6913991  31.1259992  42.4144990  15.7119997
  30.1779992  42.4464990  15.8439997  31.4379992  41.7884990  16.3659997
  31.0385293  42.3342934  15.8184130  32.7599992  41.0484990  17.7169997
  32.6629992  40.0964990  17.7119997  32.4379992  41.3164990  18.5779997
  32.7032468  40.9545896  17.8326192  22.5869992  42.2574990  16.7649997
  22.7979992  41.5514990  16.1549997  22.4749992  41.8204990  17.6089997
  22.6007668  42.1016619  16.7955445  27.3679992  38.2594990  15.7439997
  28.0789992  37.6194990  15.7299997  27.2669992  38.5254990  14.8309997
  27.4516858  38.2078591  15.6185501  27.7209992  39.9414990  17.7979997
  27.5899992  39.4664990  16.9779997  27.1219992  40.6864990  17.7429997
  27.6220829  39.9770949  17.6781823  27.2679992  56.8244990   0.9739997
  28.2009992  56.9824990   1.1179997  27.0029992  57.5004990   0.3489997
  27.3599846  56.9374567   0.9092930  78.3659992  36.7614990  86.3089997
  78.3469992  36.3354990  87.1659997  79.1699992  36.4424990  85.8999997
  78.4721393  36.6600297  86.3710155  20.8359992  51.4614990   0.4569997
  21.7499992  51.5404990   0.7299997  20.8429992  50.7744990  -0.2090003
  20.9620624  51.3794074   0.4043045  19.4849992  56.8544990   5.5339997
  18.8379992  56.3924990   5.0019997  19.8399992  56.1824990   6.1169997
  19.4443741  56.7004785   5.5399157  20.3549992  54.9344990   7.3389997
  20.0209992  54.0544990   7.5109997  20.5769992  55.2804990   8.2039997
  20.3392565  54.8607410   7.4794263  37.9039992  55.7444990  10.3199997
  37.8819992  55.9294990  11.2579997  38.5939992  56.3124990   9.9789997
  37.9943383  55.8467104  10.4024580  37.4669992  55.3114990  13.2409997
  36.9799992  54.5754990  12.8699997  38.0159992  54.9174990  13.9189997
  37.4746101  55.1576267  13.2819034  35.9179992  51.1014990  17.8789997
  35.0519992  50.9964990  18.2739997  36.2939992  51.8594990  18.3259997
  35.8504940  51.1896141  17.9933958  37.2189992  49.3574990   3.3939997
  38.0689992  49.7784990   3.5209997  37.2239992  48.6174990   4.0009997
  37.3361143  49.3151106   3.4934732  37.6129992  47.4114990   5.2169997
  36.8869992  46.9314990   5.6149997  38.1939992  47.6164990   5.9489997
  37.5922504  47.3735592   5.3704199  37.3719992  50.1964990  10.1649997
  38.2059992  49.8184990   9.8839997  37.4839992  51.1394990  10.0459997
  37.5011917  50.2722954  10.1104844  35.8579992  53.0744990  12.4719997
  35.2109992  53.3994990  13.0969997  35.3409992  52.6334990  11.7979997
  35.6994112  53.0594133  12.4665272  80.5069992  35.4714990  84.9639997
  80.2879992  34.5544990  85.1329997  81.3309992  35.6114990  85.4299997
  80.5884637  35.3649586  85.0501414  37.8809992  47.3124990   1.6079997
  37.3599992  47.6684990   0.8899997  37.8479992  47.9874990   2.2869997
  37.8050955  47.4525023   1.6012634  36.2299992  44.5514990   0.1589997
  36.3269992  45.2184990  -0.5210003  36.0899992  43.7364990  -0.3220003
  36.2243407  44.5325670   0.0008312  35.3999992  45.9324990   5.7799997
  35.2499992  44.9874990   5.7599997  35.0459992  46.2134990   6.6239997
  35.3316351  45.8411656   5.8913202  20.4349992  48.0104990   9.7909997
  20.6189992  47.9284990   8.8549997  21.2839992  47.8864990  10.2139997
  20.5750132  47.9825066   9.7201460  36.2559992  47.9024990  15.4189997
  36.8389992  47.1674990  15.6109997  36.8199992  48.6744990  15.4659997
  36.4119781  47.9063156  15.4516146  37.7529992  45.8054990  16.1039997
  36.8889992  45.4264990  15.9379997  38.3569992  45.0664990  16.0289997
  37.7165394  45.6538378  16.0711778  35.1099992  43.5144990   4.2429997
  35.3899992  42.6074990   4.3669997  35.8689992  43.9484990   3.8539997
  35.2509258  43.4490935   4.2073691  35.7219992  44.0964990   9.6789997
  36.6549992  44.3084990   9.6439997  35.4869992  44.1974990  10.6009997
  35.8179517  44.1391844   9.7989113  35.7509992  44.8334990  12.4549997
  34.9079992  45.1014990  12.8199997  36.1939992  45.6554990  12.2439997
  35.6954035  44.9813351  12.4764770  20.0319992  43.2804990  15.9309997
  20.9519992  43.1584990  16.1679997  19.5829992  42.5304990  16.3209997
  20.0970500  43.1624576  16.0161016  83.0439992  35.9414990  85.8119997
  83.2569992  35.0534990  85.5249997  83.1089992  35.9064990  86.7669997
  83.0819075  35.8153318  85.9017355  38.0339992  38.8134990  17.8079997
  38.3839992  38.1594990  17.2019997  38.1809992  39.6504990  17.3679997
  38.1017192  38.8372545  17.6656712  35.7239992  40.7774990   4.2909997
  35.9059992  40.3284990   5.1159997  35.1239992  40.1934990   3.8269997
  35.6678187  40.6370563   4.3412721  21.2539992  41.5934990   8.8229997
  21.6989992  40.8014990   9.1249997  21.7199992  42.3094990   9.2529997
  21.3779718  41.5819546   8.9225247  19.5579992  44.5924990   9.8919997
  20.0499992  44.3714990   9.1009997  19.9199992  45.4324990  10.1729997
  19.6742923  44.6758480   9.8217389  37.5539992  40.9224990  16.1569997
  36.6369992  41.1934990  16.1209997  37.6769992  40.3874990  15.3729997
  37.4450828  40.8872711  16.0460767  37.5899992  40.8454990   0.8189997
  38.0029992  40.1244990   0.3439997  38.2719992  41.5144990   0.8769997
  37.7386060  40.8373741   0.7619233  19.8709992  40.8504990   3.9459997
  18.9459992  41.0584990   3.8169997  20.3249992  41.3344990   3.2559997
  19.8056298  40.9444311   3.8350433  34.6419992  55.8344990   5.8919997
  35.2939992  55.4864990   5.2839997  35.1529992  56.3224990   6.5379997
  34.8002872  55.8528248   5.8960964  19.8349992  39.5884990  12.2899997
  19.1699992  39.3424990  12.9329997  19.3919992  40.2104990  11.7129997
  19.6841168  39.6389225  12.2999830  22.0269992  52.7634990  16.4349997
  21.2059992  52.9384990  15.9739997  21.7749992  52.6904990  17.3549997
  21.8805594  52.7775728  16.4963593  86.5529992  21.6054990  84.9569997
  85.8779992  20.9754990  85.2119997  87.1169992  21.1214990  84.3539997
  86.5369558  21.4539283  84.9103451  24.9809992  53.7374990  12.6929997
  24.5559992  54.5474990  12.4109997  25.8849992  53.8234990  12.3909997
  25.0450706  53.8599557  12.6135836  29.2919992  55.1364990  15.6529997
  29.4769992  54.8034990  16.5309997  30.1389992  55.4464990  15.3309997
  29.4317291  55.1328214  15.7296140  31.6369992  56.4224990  14.8969997
  32.3139992  55.7894990  14.6569997  31.9589992  56.8234990  15.7039997
  31.7731618  56.3901147  14.9732802  36.5549992  39.0124990  13.9759997
  35.7419992  39.3374990  13.5889997  36.7879992  38.2514990  13.4429997
  36.4751347  38.9541891  13.8509824  22.3829992  56.9944990  12.7409997
  21.6619992  57.4344990  12.2899997  22.0169992  56.7434990  13.5889997
  22.2349632  57.0207235  12.7939649  24.8499992  56.5944990  11.7699997
  23.9849992  56.6664990  12.1739997  24.7949992  57.1414990  10.9869997
  24.7242289  56.6783242  11.7193749  29.5609992  56.4824990  10.9459997
  29.1039992  57.0114990  10.2919997  29.7229992  57.0854990  11.6709997
  29.5203919  56.6363990  10.9545740  31.8879992  55.3604990  11.8909997
  30.9839992  55.5254990  11.6249997  32.3169992  56.2134990  11.8249997
  31.8222017  55.4984184  11.8456495  34.4919992  56.9304990  12.1859997
  34.3109992  57.8464990  11.9749997  34.6689992  56.5194990  11.3389997
  34.4911377  57.0003365  12.0427178  21.7979992  55.6174990   9.6509997
  21.7789992  55.1914990  10.5079997  22.6019992  55.2984990   9.2419997
  21.9041393  55.5160297   9.7130155  91.6949992  19.7124990  85.0689997
  92.2989992  20.2604990  84.5679997  90.8259992  20.0314990  84.8289997
  91.6601126  19.8307070  84.9679180  23.9389992  54.3274990   8.3059997
  23.7199992  53.4104990   8.4759997  24.7629992  54.4674990   8.7719997
  24.0204702  54.2210523   8.3922510  26.4759992  54.7974990   9.1549997
  26.6889992  53.9094990   8.8679997  26.5409992  54.7624990  10.1089997
  26.5139149  54.6713338   9.2447351  29.9849992  40.4614990   8.2989997
  29.3099992  39.8314990   8.5549997  30.5489992  39.9774990   7.6959997
  29.9689363  40.3098886   8.2524810  35.1269992  38.5684990   8.4119997
  35.7309992  39.1164990   7.9099997  34.2579992  38.8874990   8.1709997
  35.0920419  38.6865628   8.3107741  36.8539992  39.7074990   6.7449997
  37.4659992  39.1934990   6.2179997  37.2369992  40.5844990   6.7679997
  36.9893867  39.7557613   6.6760888  22.3109992  39.0954990   6.1209997
  21.5339992  38.8604990   5.6139997  22.8419992  38.2984990   6.1299997
  22.2763735  38.9556462   6.0528090  21.1479992  38.8934990   1.9249997
  21.5869992  39.5044990   1.3329997  20.5139992  39.4314990   2.3989997
  21.1223859  39.0499076   1.9080287  26.8909992  39.0214990   5.9339997
  27.7649992  39.4104990   5.9049997  26.7549992  38.8064990   6.8569997
  26.9921953  39.0456654   6.0547599  32.4469992  39.0514990   7.5839997
  32.5239992  39.1474990   6.6339997  32.1719992  38.1444990   7.7119997
  32.4203233  38.9419093   7.4713665  33.8009992  39.0774990   3.2759997
  33.0979992  39.6924990   3.0659997  33.3559992  38.2404990   3.4069997
  33.6446550  39.0484679   3.2649819  93.4219992  20.8514990  83.4029997
  94.0339992  20.3374990  82.8759997  93.8049992  21.7284990  83.4259997
  93.5573867  20.8997613  83.3340888  21.0489992  54.8414990   2.8219997
  20.3639992  54.8034990   2.1549997  21.0519992  55.7534990   3.1099997
  20.9556806  54.9596669   2.7696961  23.0089992  40.8094990   0.3669997
  23.4999992  40.1794990  -0.1600003  23.6319992  41.1054990   1.0299997
  23.1605304  40.7632387   0.3844922  28.0349992  41.1024990   2.8239997
  28.2129992  40.4554990   3.5069997  27.9809992  41.9364990   3.2909997
  28.0520678  41.1266615   2.9806283  29.9129992  56.0504990   1.2199997
  30.7789992  56.4174990   1.0419997  29.6659992  55.6114990   0.4059997
  29.9981853  56.0414021   1.0855813  36.6219992  55.6134990   3.8989997
  36.4279992  54.8654990   3.3339997  36.5829992  56.3714990   3.3159997
  36.5901645  55.6135797   3.7428131  22.2689992  39.6094990  15.6389997
  21.9029992  38.8434990  16.0809997  23.1819992  39.6384990  15.9249997
  22.3423172  39.5085335  15.7381872  24.2419992  38.9594990  17.1739997
  25.1409992  38.6854990  16.9899997  23.8559992  38.2174990  17.6389997
  24.3127307  38.8217207  17.2117080  22.8669992  55.7614990  -0.1530003
  22.5989992  56.0474990   0.7209997  23.6379992  55.2154990  -0.0000003
  22.9345926  55.7267790  -0.0128812  32.6629992  38.2924990  17.3569997
  32.7399992  37.8664990  18.2099997  33.5569992  38.3054990  17.0139997
  32.7943263  38.2359345  17.4274366  35.8399992  54.3644990  16.0489997
  35.0579992  54.1784990  15.5289997  35.7679992  55.2944990  16.2659997
  35.7232975  54.4646973  16.0071822  78.8789992  20.2394990  82.7789997
  78.1019992  20.0044990  82.2709997  79.4099992  19.4424990  82.7879997
  78.8444443  20.0996721  82.7107200  50.2459992  48.2514990   6.0799997
  50.3349992  49.1954990   5.9469997  49.6069992  47.9764990   5.4219997
  50.1718378  48.3433846   5.9729258  49.1789992  47.5064990   9.4989997
  49.1399992  46.8604990  10.2039997  48.8559992  47.0394990   8.7269997
  49.1300469  47.3550005   9.4912803  41.5469992  47.1204990  11.0919997
  41.5879992  46.4954990  11.8149997  42.2499992  47.7444990  11.2739997
  41.6476223  47.1192318  11.2156164  52.8849992  50.4454990   7.7999997
  52.4439992  49.7254990   8.2509997  52.8719992  51.1664990   8.4299997
  52.8229215  50.4444303   7.9468088  42.4709992  51.5704990   9.6269997
  42.1009992  50.7684990   9.2569997  43.4119992  51.4024990   9.6729997
  42.5475984  51.4379649   9.5825586  39.0809992  45.2304990   5.0189997
  38.6329992  46.0764990   5.0009997  38.5199992  44.6514990   4.5039997
  38.9438546  45.2679004   4.9468874  39.7909992  47.3924990   7.1449997
  40.0049992  46.6224990   7.6719997  40.5289992  47.4824990   6.5419997
  39.9200073  47.2993546   7.1355786  49.9959992  55.5494990   8.0119997
  50.6159992  54.8734990   7.7389997  49.7879992  55.3314990   8.9209997
  50.0527679  55.4275032   8.0974518  47.5679992  49.9384990   9.9049997
  47.8719992  49.2524990   9.3099997  48.2899992  50.0574990  10.5229997
  47.7071240  49.8607325   9.9070941  56.2309992  41.5404990  10.7649997
  56.2799992  42.1504990  11.5009997  56.6569992  42.0014990  10.0419997
  56.2952851  41.6863266  10.7680532  77.7159992  20.0374990  78.5819997
  78.1549992  20.6484990  77.9909997  77.0819992  20.5754990  79.0559997
  77.6904104  20.1939233  78.5651376  50.7089992  44.3324990  10.2319997
  50.8509992  43.3864990  10.2519997  50.6029992  44.5394990   9.3039997
  50.7141051  44.2309706  10.1092249  43.8639992  42.4344990   7.5049997
  43.9069992  43.2944990   7.0859997  43.4059992  41.8814990   6.8709997
  43.8080163  42.4774174   7.3620604  51.5859992  42.5654990   5.9049997
  52.2319992  42.2364990   6.5299997  52.0959992  43.0824990   5.2829997
  51.7434289  42.5904333   5.9063681  40.4839992  44.8314990   8.2669997
  41.1379992  44.2814990   8.6989997  40.5079992  44.5574990   7.3499997
  40.5767199  44.7192178   8.2021650  45.6399992  46.3814990   7.4819997
  46.2559992  45.8544990   7.9909997  45.0539992  45.7414990   7.0779997
  45.6450652  46.2228919   7.4970277  56.6229992  43.0184990  13.0009997
  55.9339992  43.6764990  12.9059997  56.6379992  42.8204990  13.9379997
  56.5307756  43.0817614  13.1145795  42.6739992  41.3524990  11.5789997
  42.4549992  41.8824990  10.8119997  42.0059992  41.5784990  12.2259997
  42.5536975  41.4555979  11.5615123  50.0429992  50.8524990   5.1229997
  49.7469992  50.5294990   4.2709997  49.7189992  51.7524990   5.1639997
  49.9587458  50.9299678   5.0120598  45.2429992  49.0274990  11.8659997
  44.5029992  49.6264990  11.9699997  45.9569992  49.5814990  11.5499997
  45.2383146  49.1842611  11.8375150  53.3499992  41.8564990   7.8859997
  53.1349992  41.0904990   8.4189997  54.0059992  42.3284990   8.3989997
  53.4092673  41.8155739   8.0281972  83.4589992  20.1654990  82.5919997
  84.3329992  20.5544990  82.5619997  83.3229992  19.9504990  83.5149997
  83.5603125  20.1897120  82.7126523  42.2679992  43.2444990   9.5309997
  42.8809992  43.8774990   9.9039997  42.7799992  42.7724990   8.8749997
  42.4211933  43.2673380   9.4933477  43.6499992  50.9924990  12.6529997
  43.6449992  51.8714990  12.2749997  42.7969992  50.9084990  13.0779997
  43.5339199  51.1015901  12.6586942  39.7719992  50.6634990   3.4349997
  39.4999992  50.8924990   2.5459997  39.8169992  51.5004990   3.8959997
  39.7408360  50.8081034   3.3756186  53.3969992  52.2844990  10.1479997
  52.4549992  52.3434990  10.3099997  53.6729992  53.1904990  10.0109997
  53.3055865  52.4150299  10.1516174  53.6969992  40.5714990  11.5649997
  52.9609992  41.1814990  11.5279997  54.3809992  40.9864990  11.0389997
  53.6885367  40.7112562  11.4888156  46.6999992  38.6574990   9.0309997
  46.5829992  37.7094990   8.9769997  45.8449992  38.9904990   9.3039997
  46.5683691  38.5725842   9.0605072  51.6489992  54.0654990   6.7729997
  52.0739992  53.3584990   6.2879997  51.9659992  54.8674990   6.3559997
  51.7500266  54.0770201   6.6502461  52.8079992  51.9664990   5.2819997
  52.5509992  51.2764990   4.6699997  52.8789992  51.5234990   6.1269997
  52.7824322  51.8121568   5.3125372  54.4939992  50.5334990  13.7589997
  54.6339992  49.9414990  13.0199997  54.6619992  51.4064990  13.4029997
  54.5358734  50.5704041  13.6096937  48.9669992  47.4954990   3.5319997
  48.2549992  48.0304990   3.1799997  49.6579992  47.5504990   2.8719997
  48.9629704  47.5761663   3.3945797  89.0149992  20.1954990  84.2409997
  89.0919992  20.2914990  83.2919997  88.7399992  19.2884990  84.3699997
  88.9883407  20.0859188  84.1283532  49.0209992  45.9524990   0.5699997
  49.7219992  45.9754990   1.2219997  49.3229992  45.3244990  -0.0860003
  49.1578202  45.8707223   0.5705591  56.3359992  46.8734990  11.8249997
  55.6839992  47.5674990  11.9139997  56.8009992  47.0834990  11.0149997
  56.3095357  46.9969544  11.7277056  52.3729992  47.7044990   4.4829997
  51.6409992  47.9334990   5.0559997  52.8199992  46.9914990   4.9379997
  52.3332753  47.6393984   4.6229698  52.2699992  45.8794990  13.5509997
  52.3499992  46.6424990  14.1229997  51.6689992  46.1584990  12.8609997
  52.1996547  46.0217468  13.5360029  44.0179992  48.3354990   6.3659997
  43.6879992  47.9644990   5.5479997  44.6059992  47.6644990   6.7129997
  44.0523182  48.1940648   6.3009898  45.3849992  51.7634990   9.0469997
  45.2899992  51.1844990   8.2909997  46.1139992  51.3924990   9.5429997
  45.4706011  51.6340572   9.0106011  44.3849992  47.1034990   9.9989997
  44.9499992  47.2254990   9.2369997  44.7029992  47.7414990  10.6379997
  44.5053619  47.2064388   9.9810019  50.6939992  52.6074990  10.7329997
  50.4529992  53.2694990  11.3809997  50.4959992  51.7724990  11.1579997
  50.6342662  52.5852704  10.8791008  45.2649992  51.5034990  14.7169997
  44.9529992  52.2854990  15.1719997  44.6149992  51.3504990  14.0309997
  45.1344858  51.5897882  14.6865344  51.2439992  46.8674990   2.1689997
  51.8229992  47.0174990   2.9149997  51.6579992  47.3374990   1.4449997
  51.3793358  46.9515966   2.1733935  90.3689992  20.2214990  79.9339997
  89.6659992  20.8364990  79.7239997  89.9239992  19.3844990  80.0649997
  90.2126550  20.1924679  79.9229819  42.1849992  47.7014990  13.9449997
  42.2549992  48.3524990  14.6439997  41.2939992  47.8044990  13.6099997
  42.0741690  47.8044261  13.9953026  48.9699992  53.6034990   5.6039997
  49.4439992  53.8994990   6.3809997  48.4069992  54.3424990   5.3709997
  48.9587890  53.7438047   5.6788084  43.5039992  53.5744990  15.4799997
  43.5119992  53.4384990  14.5329997  42.5879992  53.4574990  15.7319997
  43.3812528  53.5400475  15.3843226  54.9419992  38.6174990   1.9809997
  54.0419992  38.7554990   2.2769997  55.1939992  39.4484990   1.5799997
  54.8527727  38.7488705   1.9672935  43.0079992  47.4044990   3.9549997
  42.7159992  48.1724990   3.4639997  42.3339992  46.7454990   3.7919997
  42.8768843  47.4204537   3.8657695  56.1319992  52.9834990   0.3579997
  56.2049992  53.9224990   0.5279997  57.0369992  52.6784990   0.3019997
  56.2644170  53.0708294   0.3737045  39.1009992  49.7674990  12.7699997
  38.5999992  49.7394990  11.9549997  39.1069992  48.8624990  13.0799997
  39.0331690  49.6412234  12.7002770  38.8519992  52.5484990   9.6539997
  39.7979992  52.4034990   9.6349997  38.7389992  53.3324990  10.1909997
  38.9663578  52.6346708   9.7240300  57.0489992  53.2144990  15.3369997
  56.9999992  52.2584990  15.2989997  56.2229992  53.4814990  15.7379997
  56.9305096  53.1198416  15.3860698  48.0279992  52.7884990  14.2129997
  48.1149992  53.6144990  14.6879997  47.1639992  52.4584990  14.4619997
  47.9231944  52.8569871  14.3116558  77.6169992  35.9854990  79.4799997
  76.9319992  35.9474990  78.8119997  77.6199992  36.8974990  79.7679997
  77.5237358  36.1036744  79.4276145  48.4419992  56.5604990   4.0189997
  48.3669992  56.4394990   3.0719997  48.4749992  57.5094990   4.1369997
  48.4362083  56.6722639   3.9054973  42.0959992  55.3494990   5.7999997
  42.2479992  55.0014990   6.6779997  41.2449992  54.9924990   5.5439997
  42.0018344  55.2535891   5.8856851  51.5439992  55.7144990   1.0209997
  51.9189992  54.9704990   0.5499997  51.5479992  55.4444990   1.9389997
  51.5958969  55.5760920   1.0806475  51.2129992  55.6404990   3.7699997
  50.2779992  55.7404990   3.9489997  51.4929992  54.9304990   4.3489997
  51.1229471  55.5582944   3.8726678  54.2009992  44.7074990  15.8169997
  53.7939992  45.1874990  15.0959997  54.2419992  43.8014990  15.5089997
  54.1508403  44.6507989  15.6767253  41.3499992  51.0914990  13.8129997
  41.5659992  50.7294990  14.6729997  40.4949992  50.7164990  13.6039997
  41.2639082  50.9913377  13.9022396  43.9689992  39.5614990   9.8089997
  43.1069992  39.4744990   9.4009997  43.9469992  40.4174990  10.2369997
  43.8480557  39.6653078   9.8110202  48.6319992  39.2834990  13.1839997
  49.0519992  38.8684990  13.9369997  47.6989992  39.1044990  13.3009997
  48.5633736  39.2024921  13.3028950  51.9579992  43.0384990  14.0369997
  51.4439992  42.9134990  14.8349997  51.8029992  43.9514990  13.7929997
  51.8667802  43.1447433  14.1131504  52.7209992  47.8994990  -0.2020003
  52.7629992  47.6774990  -1.1320003  53.5699992  48.2984990  -0.0120003
  52.8415253  47.9230510  -0.3036196  84.6029992  22.2464990  79.4819997
  84.7809992  21.5994990  80.1649997  84.5489992  23.0804990  79.9489997
  84.6200678  22.2706615  79.6386283  48.2939992  41.7754990   0.4689997
  48.0399992  41.7944990   1.3909997  48.0369992  40.9044990   0.1669997
  48.2244508  41.6603292   0.5544786  44.0599992  44.5264990  10.9039997
  43.4179992  44.4864990  11.6129997  44.0969992  45.4534990  10.6659997
  43.9771659  44.6462540  10.9688463  44.0569992  44.7474990   5.8159997
  43.1639992  44.4074990   5.7569997  44.5079992  44.3704990   5.0599997
  43.9957185  44.6500220   5.7057698  49.5929992  45.1634990   4.6329997
  49.1839992  45.9784990   4.3409997  50.3129992  45.0234990   4.0189997
  49.6344439  45.2560383   4.5100098  48.6949992  45.3394990  16.1209997
  48.1319992  44.6344990  16.4419997  49.5209992  45.2184990  16.5889997
  48.7296674  45.2267176  16.2281734  50.5969992  44.6094990   7.4469997
  50.4019992  45.2154990   6.7319997  50.7789992  43.7764990   7.0129997
  50.5949195  44.5797936   7.2904079  41.8099992  44.8474990  12.7709997
  41.7719992  45.2474990  13.6399997  41.3189992  44.0304990  12.8609997
  41.7384374  44.7918228  12.9020980  45.1759992  42.2214990  -0.4300003
  44.7449992  41.7764990   0.2989997  44.4579992  42.5924990  -0.9430003
  45.0199176  42.2107063  -0.3995087  38.4179992  41.9634990   6.6219997
  39.0489992  41.9344990   7.3409997  38.8679992  41.5384990   5.8909997
  38.5651082  41.9021269   6.6216307  39.6919992  42.7094990   2.0459997
  40.1669992  43.3004990   1.4609997  38.9749992  43.2394990   2.3929997
  39.6600406  42.8621011   2.0128495  93.1899992  36.7574990  80.5569997
  92.9959992  36.0094990  79.9919997  93.1509992  37.5154990  79.9729997
  93.1581907  36.7575770  80.4008077  49.8609992  46.2474990  12.1179997
  50.1849992  45.6164990  11.4749997  49.4209992  45.7134990  12.7789997
  49.8458707  46.0888261  12.1193195  46.6389992  42.1754990   6.9019997
  45.7279992  42.2324990   7.1909997  47.1439992  42.1154990   7.7129997
  46.5826873  42.1751838   7.0511190  41.4669992  43.8044990   5.7289997
  40.5779992  43.9034990   5.3889997  41.7629992  42.9624990   5.3829997
  41.3854001  43.7042473   5.6357318  45.1199992  43.8044990   3.3859997
  46.0519992  43.9334990   3.5639997  44.9049992  44.4734990   2.7359997
  45.2184472  43.9125817   3.3224873  51.0439992  41.4104990  10.1659997
  50.3669992  41.5414990  10.8299997  50.5579992  41.2554990   9.3559997
  50.8857265  41.4074665  10.1473380  43.7939992  44.9984990   0.9519997
  43.2519992  44.6194990   0.2609997  44.6279992  45.1934990   0.5239997
  43.8324390  44.9729091   0.7994374  54.3309992  57.0814990  16.4429997
  54.5309992  57.5054990  15.6089997  54.9869992  57.4254990  17.0499997
  54.4469937  57.1859993  16.4108645  41.9289992  49.5554990  16.0509997
  42.6609992  49.8104990  16.6129997  41.1489992  49.7604990  16.5669997
  41.9236526  49.6180438  16.1975168  47.9589992  44.9624990   8.7889997
  48.5229992  44.4164990   8.2419997  47.8109992  44.4414990   9.5779997
  48.0163037  44.8171798   8.8207212  42.9609992  41.0994990   5.2079997
  42.6429992  40.1964990   5.1719997  43.7419992  41.1014990   4.6549997
  43.0231079  40.9762240   5.1282908  78.8369992  20.7534990  92.2959997
  78.4709992  19.9874990  92.7389997  79.7499992  20.7824990  92.5829997
  78.9103225  20.6526917  92.3953441  46.5849992  43.3514990  11.2029997
  45.7499992  43.8054990  11.3139997  47.1089992  43.6274990  11.9549997
  46.5416072  43.4508960  11.3198118  47.1289992  49.5644990   2.8879997
  46.3839992  49.0564990   2.5659997  46.9949992  49.6134990   3.8339997
  47.0089334  49.5016144   2.9718892  54.2789992  48.6974990  11.6749997
  54.9209992  49.1534990  11.1309997  53.4489992  48.8104990  11.2119997
  54.2546536  48.7751813  11.5379579  51.0269992  42.3784990   1.0869997
  50.0879992  42.4894990   0.9359997  51.3239992  43.2344990   1.3939997
  50.9386136  42.5094977   1.1078568  48.6489992  49.7484990  14.1249997
  48.3029992  49.3664990  14.9319997  48.4489992  50.6814990  14.1959997
  48.5745987  49.8224013  14.2450443  51.7449992  44.2454990   2.7479997
  52.6369992  44.1074990   3.0669997  51.8019992  45.0364990   2.2109997
  51.8747380  44.3334777   2.7190981  42.2539992  48.8594990   8.6579997
  42.9989992  48.8564990   8.0559997  42.3319992  48.0354990   9.1389997
  42.3663366  48.7477395   8.6407412  49.2549992  51.0224990   1.9129997
  48.9599992  51.8494990   2.2949997  48.5519992  50.4034990   2.1099997
  49.1196379  51.0519182   1.9918636  39.2619992  47.3194990  13.9729997
  39.4849992  46.9014990  14.8039997  38.6599992  46.7074990  13.5499997
  39.2111513  47.1794617  14.0296722  46.2789992  46.8364990  16.1859997
  45.9829992  46.6714990  15.2899997  47.2099992  46.6164990  16.1749997
  46.3644401  46.7841891  16.0620189  80.8099992  20.1034990  93.8319997
  81.7089992  19.8294990  93.6469997  80.4239992  19.3614990  94.2959997
  80.8807237  19.9656520  93.8694693  50.8989992  52.2104990  14.0749997
  49.9979992  52.3934990  13.8079997  50.9329992  52.4694990  14.9959997
  50.7803861  52.2705245  14.1629517  56.6299992  44.4544990   2.4429997
  56.0759992  44.0584990   1.7699997  56.7309992  45.3654990   2.1649997
  56.5678589  44.5233904   2.3133839  56.5929992  50.2554990  15.2799997
  55.7419992  50.4934990  14.9119997  57.1839992  50.2384990  14.5259997
  56.5563831  50.2857623  15.1278448  54.9249992  53.2404990   2.9079997
  54.5529992  52.4154990   3.2169997  55.2029992  53.0574990   2.0099997
  54.9115807  53.1027031   2.8290063  52.0859992  48.0484990   9.9289997
  51.1579992  47.8174990   9.9019997  52.5369992  47.2714990   9.5989997
  52.0198165  47.9117785   9.8806772  44.6289992  52.3774990   6.0619997
  45.1559992  53.1504990   5.8619997  43.7489992  52.6014990   5.7599997
  44.5822121  52.5137344   5.9937460  40.3839992  47.2394990   0.6489997
  40.9999992  47.8664990   1.0289997  39.5219992  47.5554990   0.9209997
  40.3517678  47.3679423   0.7377192  46.0559992  50.0404990   5.6379997
  45.8149992  50.9654990   5.6799997  45.3159992  49.5814990   6.0349997
  45.9229463  50.1050969   5.6974279  46.5709992  54.1894990  11.9529997
  46.9339992  55.0434990  11.7199997  47.1029992  53.8974990  12.6939997
  46.6925141  54.2668907  12.0212079  44.7389992  55.0614990   5.1839997
  43.7899992  55.1674990   5.2349997  45.0909992  55.8824990   5.5279997
  44.6565647  55.1870029   5.2374882  79.4349992  36.9054990  76.5049997
  79.1669992  37.1914990  77.3779997  80.2059992  36.3594990  76.6569997
  79.5025600  36.8708341  76.6451482  50.1149992  50.2884990  11.6539997
  49.6889992  50.0604990  12.4799997  50.6959992  49.5494990  11.4719997
  50.1352088  50.1574393  11.7424454  52.3179992  51.2174990   0.7279997
  52.6709992  50.8374990   1.5319997  51.3689992  51.1234990   0.8149997
  52.2380956  51.1527867   0.8498005  52.7739992  54.8404990  14.1229997
  52.1719992  54.2844990  13.6279997  53.0549992  55.5074990  13.4969997
  52.7295757  54.8545755  13.9705657  56.8209992  55.6964990   0.9289997
  57.5649992  56.2824990   0.7889997  56.1269992  56.2654990   1.2619997
  56.8289809  55.8535830   0.9548572  40.8959992  42.0734990  13.5309997
  40.0029992  42.4114990  13.4629997  40.7969992  41.2174990  13.9489997
  40.7604752  42.0040986  13.5781644  53.1839992  49.8894990   2.9549997
  52.9069992  49.1614990   3.5109997  54.1109992  50.0084990   3.1599997
  53.2714419  49.8059436   3.0588264  40.5469992  53.8774990  11.9659997
  40.7639992  52.9454990  11.9349997  40.7939992  54.1524990  12.8489997
  40.6100948  53.7870976  12.0811268  45.3459992  51.8994990   1.6309997
  45.4929992  51.3794990   2.4209997  45.3429992  52.8064990   1.9379997
  45.3657102  51.9508964   1.7805907  41.7989992  49.1514990   2.1419997
  41.1129992  49.5044990   2.7089997  42.3219992  49.9144990   1.8949997
  41.7758402  49.3028912   2.1861784  49.6299992  41.8144990  12.4209997
  50.3289992  41.8884990  13.0709997  49.2499992  40.9494990  12.5749997
  49.6742662  41.7077050  12.5307412  89.2309992  19.4364990  94.0139997
  89.3079992  19.0104990  94.8679997  90.1249992  19.4494990  93.6719997
  89.3623315  19.3800320  94.0845052  50.4149992  41.4664990   3.5179997
  50.6349992  41.9374990   2.7139997  50.9729992  41.8604990   4.1879997
  50.5206044  41.5842946   3.4985207  48.0839992  53.5964990   2.3809997
  47.2669992  54.0934990   2.4329997  48.6129992  54.0724990   1.7399997
  48.0438125  53.7287000   2.3015289  47.6149992  43.1944990   4.3529997
  48.4269992  43.6984990   4.3989997  47.3699992  43.0494990   5.2669997
  47.6931091  43.2439366   4.4828552  48.1509992  44.1804990  13.5369997
  48.2699992  44.7544990  14.2939997  48.8059992  43.4924990  13.6519997
  48.2558684  44.1660205  13.6561656  48.4989992  40.2754990   5.2909997
  48.1519992  40.8924990   5.9349997  49.1569992  40.7764990   4.8089997
  48.5404430  40.4276860   5.3140046  45.4219992  54.6404990   2.3619997
  45.5829992  55.4404990   1.8619997  45.2249992  54.9474990   3.2469997
  45.4173906  54.7913690   2.4132316  44.1559992  41.3384990   1.9779997
  44.0729992  42.2264990   2.3249997  45.0459992  41.0734990   2.2099997
  44.2649331  41.4241177   2.0568067  54.3549992  42.0874990  14.3719997
  53.4389992  42.3494990  14.2849997  54.6909992  42.0844990  13.4759997
  54.2748499  42.1230174  14.2388748  52.9569992  45.8374990   8.4679997
  52.1599992  45.4224990   8.1399997  53.4019992  45.1474990   8.9589997
  52.9080367  45.6873372   8.4894897  42.4149992  51.7654990   1.0379997
  43.0069992  52.4654990   1.3149997  42.8739992  51.3324990   0.3189997
  42.5581652  51.8027686   0.9786515  92.4079992  35.5084990  92.7069997
  91.6259992  35.3224990  92.1869997  92.3359992  36.4384990  92.9239997
  92.2912975  35.6086973  92.6651822  40.7309992  44.4304990   0.1539997
  40.6859992  45.3694990   0.3329997  39.8429992  44.1944990  -0.1150003
  40.6048166  44.5271698   0.1421507  54.0439992  55.0934990  10.0899997
  53.8879992  55.7724990   9.4329997  54.9759992  55.1654990  10.2929997
  54.1487328  55.1961586  10.0275529  41.5389992  39.2114990   8.8269997
  41.3099992  39.2704990   7.8999997  41.0959992  38.4204990   9.1339997
  41.4477387  39.1126412   8.7415223  40.4689992  53.1524990   4.9879997
  39.6369992  53.6244990   5.0149997  41.0149992  53.6624990   4.3889997
  40.4288710  53.2860317   4.9107570  39.7579992  55.7644990  16.3179997
  40.2979992  55.5484990  17.0779997  39.2759992  54.9594990  16.1279997
  39.7668485  55.6260463  16.3964870  44.3549992  54.6844990  17.9379997
  45.1229992  54.2254990  18.2789997  44.3339992  54.4584990  17.0079997
  44.4572135  54.5911680  17.8589473  48.4469992  54.1924990  -0.6870003
  47.8029992  53.5614990  -0.3650003  49.2089992  53.6614990  -0.9180003
  48.4618708  54.0343171  -0.6741539  50.9319992  53.0644990  16.6669997
  50.5809992  52.2074990  16.9099997  51.6579992  53.2064990  17.2739997
  50.9821590  52.9665189  16.7822889  53.0509992  54.0094990  -0.4530003
  53.3339992  53.2144990  -0.0000003  53.7909992  54.2424990  -1.0140003
  53.1897295  53.9322349  -0.4668531  39.6649992  49.5754990  17.2719997
  39.8089992  48.6734990  16.9859997  38.8919992  49.8614990  16.7849997
  39.5802266  49.4906548  17.1670102 106.8139992  29.3954990  82.7369997
 106.9029992  30.3394990  82.6049997 106.1749992  29.1204990  82.0789997
 106.7398319  29.4874984  82.6300276  44.0059992  49.9184990  -0.5950003
  44.0699992  49.1244990  -0.0650003  44.6589992  49.8004990  -1.2850003
  44.1030483  49.7937496  -0.6156593  46.3199992  49.5444990  16.7049997
  45.9919992  49.8154990  15.8479997  46.4719992  48.6034990  16.6169997
  46.2956412  49.4544058  16.5757804  52.0549992  49.4604990  14.0879997
  52.7999992  50.0494990  13.9689997  51.2969992  50.0424990  14.1509997
  52.0545289  49.6197067  14.0802292  40.4969992  46.7754990  16.6919997
  40.9049992  45.9184990  16.5709997  40.2369992  46.7894990  17.6129997
  40.5177082  46.6600596  16.7999469  45.1549992  47.8914990   1.7109997
  44.6959992  47.4074990   2.3959997  45.4099992  47.2224990   1.0749997
  45.1265997  47.7348491   1.7188734  44.4439992  45.7844990  14.0669997
  43.8259992  46.4584990  14.3469997  44.7879992  46.1054990  13.2329997
  44.4058078  45.9202298  13.9926609  46.2259992  46.1344990  -0.0270003
  46.0459992  45.9794990  -0.9540003  47.1759992  46.2424990   0.0179997
  46.3297804  46.1278821  -0.1478034  49.4639992  48.2554990  17.3439997
  50.4169992  48.3394990  17.3169997  49.3039992  47.5434990  17.9629997
  49.5727320  48.1707292  17.4239933  55.6159992  48.4884990  -0.5810003
  55.3429992  48.0644990  -1.3940003  55.6559992  49.4204990  -0.7980003
  55.5840201  48.5563523  -0.7216452  44.7839992  43.1394990  15.1489997
  44.9339992  42.4104990  14.5469997  44.7859992  43.9164990  14.5899997
  44.8047967  43.1447720  14.9910523 105.7469992  28.6504990  86.1559997
 105.7079992  28.0044990  86.8609997 105.4239992  28.1834990  85.3849997
 105.6980199  28.4990089  86.1482865  45.1959992  41.5084990  12.6419997
  45.7319992  41.9604990  11.9899997  44.3439992  41.4004990  12.2189997
  45.1541795  41.5557444  12.4956211  46.7779992  46.9484990  12.8809997
  47.5289992  46.7924990  12.3079997  46.4389992  47.8004990  12.6059997
  46.8349587  47.0423149  12.7654060  51.1939992  44.7634990  17.9099997
  51.3859992  43.8324990  17.7979997  52.0509992  45.1884990  17.8989997
  51.3362176  44.6935090  17.8931757  52.5099992  47.5524990  15.9869997
  52.2289992  48.2614990  15.4089997  53.4529992  47.4794990  15.8359997
  52.5989272  47.6396704  15.8874976  43.2619992  44.3374990  17.0599997
  42.4949992  43.8044990  16.8499997  43.9409992  44.0274990  16.4609997
  43.2488292  44.2226360  16.9502693  46.0019992  38.9654990  13.0729997
  45.9039992  39.9114990  12.9679997  45.2589992  38.5924990  12.5969997
  45.8882123  39.0446811  12.9943204  47.2659992  43.2864990  16.6369997
  47.0299992  43.0674990  17.5379997  46.4829992  43.0794990  16.1269997
  47.1278382  43.2285340  16.6913991  49.9819992  42.4144990  15.7119997
  49.0339992  42.4464990  15.8439997  50.2939992  41.7884990  16.3659997
  49.8945293  42.3342934  15.8184130  51.6159992  41.0484990  17.7169997
  51.5189992  40.0964990  17.7119997  51.2939992  41.3164990  18.5779997
  51.5592468  40.9545896  17.8326192  41.4429992  42.2574990  16.7649997
  41.6539992  41.5514990  16.1549997  41.3309992  41.8204990  17.6089997
  41.4567668  42.1016619  16.7955445  98.1149992  28.2644990  87.7489997
  98.1559992  27.6394990  88.4729997  98.8179992  28.8884990  87.9309997
  98.2156054  28.2633262  87.8726311  46.2239992  38.2594990  15.7439997
  46.9349992  37.6194990  15.7299997  46.1229992  38.5254990  14.8309997
  46.3076858  38.2078591  15.6185501  46.5769992  39.9414990  17.7979997
  46.4459992  39.4664990  16.9779997  45.9779992  40.6864990  17.7429997
  46.4780829  39.9770949  17.6781823  46.1239992  56.8244990   0.9739997
  47.0569992  56.9824990   1.1179997  45.8589992  57.5004990   0.3489997
  46.2159846  56.9374567   0.9092930  39.6919992  51.4614990   0.4569997
  40.6059992  51.5404990   0.7299997  39.6989992  50.7744990  -0.2090003
  39.8180624  51.3794074   0.4043045  38.3409992  56.8544990   5.5339997
  37.6939992  56.3924990   5.0019997  38.6959992  56.1824990   6.1169997
  38.3003741  56.7004785   5.5399157  39.2109992  54.9344990   7.3389997
  38.8769992  54.0544990   7.5109997  39.4329992  55.2804990   8.2039997
  39.1952565  54.8607410   7.4794263  56.7599992  55.7444990  10.3199997
  56.7379992  55.9294990  11.2579997  57.4499992  56.3124990   9.9789997
  56.8503383  55.8467104  10.4024580  56.3229992  55.3114990  13.2409997
  55.8359992  54.5754990  12.8699997  56.8719992  54.9174990  13.9189997
  56.3306101  55.1576267  13.2819034  54.7739992  51.1014990  17.8789997
  53.9079992  50.9964990  18.2739997  55.1499992  51.8594990  18.3259997
  54.7064940  51.1896141  17.9933958  56.0749992  49.3574990   3.3939997
  56.9249992  49.7784990   3.5209997  56.0799992  48.6174990   4.0009997
  56.1921143  49.3151106   3.4934732 109.4529992  31.5894990  84.4579997
 109.0119992  30.8694990  84.9079997 109.4399992  32.3104990  85.0879997
 109.3908398  31.5883187  84.6047734  56.4689992  47.4114990   5.2169997
  55.7429992  46.9314990   5.6149997  57.0499992  47.6164990   5.9489997
  56.4482504  47.3735592   5.3704199  56.2279992  50.1964990  10.1649997
  57.0619992  49.8184990   9.8839997  56.3399992  51.1394990  10.0459997
  56.3571917  50.2722954  10.1104844  54.7139992  53.0744990  12.4719997
  54.0669992  53.3994990  13.0969997  54.1969992  52.6334990  11.7979997
  54.5554112  53.0594133  12.4665272  56.7369992  47.3124990   1.6079997
  56.2159992  47.6684990   0.8899997  56.7039992  47.9874990   2.2869997
  56.6610955  47.4525023   1.6012634  55.0859992  44.5514990   0.1589997
  55.1829992  45.2184990  -0.5210003  54.9459992  43.7364990  -0.3220003
  55.0803407  44.5325670   0.0008312  54.2559992  45.9324990   5.7799997
  54.1059992  44.9874990   5.7599997  53.9019992  46.2134990   6.6239997
  54.1876351  45.8411656   5.8913202  39.2909992  48.0104990   9.7909997
  39.4749992  47.9284990   8.8549997  40.1399992  47.8864990  10.2139997
  39.4310132  47.9825066   9.7201460  55.1119992  47.9024990  15.4189997
  55.6949992  47.1674990  15.6109997  55.6759992  48.6744990  15.4659997
  55.2679781  47.9063156  15.4516146  56.6089992  45.8054990  16.1039997
  55.7449992  45.4264990  15.9379997  57.2129992  45.0664990  16.0289997
  56.5725394  45.6538378  16.0711778  53.9659992  43.5144990   4.2429997
  54.2459992  42.6074990   4.3669997  54.7249992  43.9484990   3.8539997
  54.1069258  43.4490935   4.2073691  99.0389992  32.7144990  86.2839997
  98.6689992  31.9124990  85.9149997  99.9799992  32.5464990  86.3309997
  99.1155630  32.5818680  86.2397873  54.5779992  44.0964990   9.6789997
  55.5109992  44.3084990   9.6439997  54.3429992  44.1974990  10.6009997
  54.6739517  44.1391844   9.7989113  54.6069992  44.8334990  12.4549997
  53.7639992  45.1014990  12.8199997  55.0499992  45.6554990  12.2439997
  54.5514035  44.9813351  12.4764770  38.8879992  43.2804990  15.9309997
  39.8079992  43.1584990  16.1679997  38.4389992  42.5304990  16.3209997
  38.9530500  43.1624576  16.0161016  56.8899992  38.8134990  17.8079997
  57.2399992  38.1594990  17.2019997  57.0369992  39.6504990  17.3679997
  56.9577192  38.8372545  17.6656712  54.5799992  40.7774990   4.2909997
  54.7619992  40.3284990   5.1159997  53.9799992  40.1934990   3.8269997
  54.5238187  40.6370563   4.3412721  40.1099992  41.5934990   8.8229997
  40.5549992  40.8014990   9.1249997  40.5759992  42.3094990   9.2529997
  40.2339718  41.5819546   8.9225247  38.4139992  44.5924990   9.8919997
  38.9059992  44.3714990   9.1009997  38.7759992  45.4324990  10.1729997
  38.5302923  44.6758480   9.8217389  56.4099992  40.9224990  16.1569997
  55.4929992  41.1934990  16.1209997  56.5329992  40.3874990  15.3729997
  56.3010828  40.8872711  16.0460767  56.4459992  40.8454990   0.8189997
  56.8589992  40.1244990   0.3439997  57.1279992  41.5144990   0.8769997
  56.5946060  40.8373741   0.7619233  38.7269992  40.8504990   3.9459997
  37.8019992  41.0584990   3.8169997  39.1809992  41.3344990   3.2559997
  38.6616298  40.9444311   3.8350433  95.6489992  26.3744990  81.6769997
  95.2009992  27.2204990  81.6589997  95.0879992  25.7954990  81.1619997
  95.5118546  26.4119004  81.6048874  53.4979992  55.8344990   5.8919997
  54.1499992  55.4864990   5.2839997  54.0089992  56.3224990   6.5379997
  53.6562872  55.8528248   5.8960964  38.6909992  39.5884990  12.2899997
  38.0259992  39.3424990  12.9329997  38.2479992  40.2104990  11.7129997
  38.5401168  39.6389225  12.2999830  40.8829992  52.7634990  16.4349997
  40.0619992  52.9384990  15.9739997  40.6309992  52.6904990  17.3549997
  40.7365594  52.7775728  16.4963593  43.8369992  53.7374990  12.6929997
  43.4119992  54.5474990  12.4109997  44.7409992  53.8234990  12.3909997
  43.9010706  53.8599557  12.6135836  48.1479992  55.1364990  15.6529997
  48.3329992  54.8034990  16.5309997  48.9949992  55.4464990  15.3309997
  48.2877291  55.1328214  15.7296140  50.4929992  56.4224990  14.8969997
  51.1699992  55.7894990  14.6569997  50.8149992  56.8234990  15.7039997
  50.6291618  56.3901147  14.9732802  55.4109992  39.0124990  13.9759997
  54.5979992  39.3374990  13.5889997  55.6439992  38.2514990  13.4429997
  55.3311347  38.9541891  13.8509824  41.2389992  56.9944990  12.7409997
  40.5179992  57.4344990  12.2899997  40.8729992  56.7434990  13.5889997
  41.0909632  57.0207235  12.7939649  43.7059992  56.5944990  11.7699997
  42.8409992  56.6664990  12.1739997  43.6509992  57.1414990  10.9869997
  43.5802289  56.6783242  11.7193749  48.4169992  56.4824990  10.9459997
  47.9599992  57.0114990  10.2919997  48.5789992  57.0854990  11.6709997
  48.3763919  56.6363990  10.9545740  96.3589992  28.5364990  83.8029997
  96.5729992  27.7664990  84.3299997  97.0969992  28.6264990  83.1999997
  96.4880073  28.4433546  83.7935786  50.7439992  55.3604990  11.8909997
  49.8399992  55.5254990  11.6249997  51.1729992  56.2134990  11.8249997
  50.6782017  55.4984184  11.8456495  53.3479992  56.9304990  12.1859997
  53.1669992  57.8464990  11.9749997  53.5249992  56.5194990  11.3389997
  53.3471377  57.0003365  12.0427178  40.6539992  55.6174990   9.6509997
  40.6349992  55.1914990  10.5079997  41.4579992  55.2984990   9.2419997
  40.7601393  55.5160297   9.7130155  42.7949992  54.3274990   8.3059997
  42.5759992  53.4104990   8.4759997  43.6189992  54.4674990   8.7719997
  42.8764702  54.2210523   8.3922510  45.3319992  54.7974990   9.1549997
  45.5449992  53.9094990   8.8679997  45.3969992  54.7624990  10.1089997
  45.3699149  54.6713338   9.2447351  48.8409992  40.4614990   8.2989997
  48.1659992  39.8314990   8.5549997  49.4049992  39.9774990   7.6959997
  48.8249363  40.3098886   8.2524810  53.9829992  38.5684990   8.4119997
  54.5869992  39.1164990   7.9099997  53.1139992  38.8874990   8.1709997
  53.9480419  38.6865628   8.3107741  55.7099992  39.7074990   6.7449997
  56.3219992  39.1934990   6.2179997  56.0929992  40.5844990   6.7679997
  55.8453867  39.7557613   6.6760888  41.1669992  39.0954990   6.1209997
  40.3899992  38.8604990   5.6139997  41.6979992  38.2984990   6.1299997
  41.1323735  38.9556462   6.0528090  40.0039992  38.8934990   1.9249997
  40.4429992  39.5044990   1.3329997  39.3699992  39.4314990   2.3989997
  39.9783859  39.0499076   1.9080287 106.5639992  36.6934990  84.6699997
 107.1839992  36.0174990  84.3969997 106.3559992  36.4754990  85.5779997
 106.6207360  36.5714792  84.7554387  45.7469992  39.0214990   5.9339997
  46.6209992  39.4104990   5.9049997  45.6109992  38.8064990   6.8569997
  45.8481953  39.0456654   6.0547599  51.3029992  39.0514990   7.5839997
  51.3799992  39.1474990   6.6339997  51.0279992  38.1444990   7.7119997
  51.2763233  38.9419093   7.4713665  52.6569992  39.0774990   3.2759997
  51.9539992  39.6924990   3.0659997  52.2119992  38.2404990   3.4069997
  52.5006550  39.0484679   3.2649819  39.9049992  54.8414990   2.8219997
  39.2199992  54.8034990   2.1549997  39.9079992  55.7534990   3.1099997
  39.8116806  54.9596669   2.7696961  41.8649992  40.8094990   0.3669997
  42.3559992  40.1794990  -0.1600003  42.4879992  41.1054990   1.0299997
  42.0165304  40.7632387   0.3844922  46.8909992  41.1024990   2.8239997
  47.0689992  40.4554990   3.5069997  46.8369992  41.9364990   3.2909997
  46.9080678  41.1266615   2.9806283  48.7689992  56.0504990   1.2199997
  49.6349992  56.4174990   1.0419997  48.5219992  55.6114990   0.4059997
  48.8541853  56.0414021   1.0855813  55.4779992  55.6134990   3.8989997
  55.2839992  54.8654990   3.3339997  55.4389992  56.3714990   3.3159997
  55.4461645  55.6135797   3.7428131  41.1249992  39.6094990  15.6389997
  40.7589992  38.8434990  16.0809997  42.0379992  39.6384990  15.9249997
  41.1983172  39.5085335  15.7381872  43.0979992  38.9594990  17.1739997
  43.9969992  38.6854990  16.9899997  42.7119992  38.2174990  17.6389997
  43.1687307  38.8217207  17.2117080 104.1359992  31.0824990  86.5619997
 104.4399992  30.3964990  85.9679997 104.8579992  31.2014990  87.1799997
 104.2751152  31.0047201  86.5642106  41.7229992  55.7614990  -0.1530003
  41.4549992  56.0474990   0.7209997  42.4939992  55.2154990  -0.0000003
  41.7905926  55.7267790  -0.0128812  51.5189992  38.2924990  17.3569997
  51.5959992  37.8664990  18.2099997  52.4129992  38.3054990  17.0139997
  51.6503263  38.2359345  17.4274366  54.6959992  54.3644990  16.0489997
  53.9139992  54.1784990  15.5289997  54.6239992  55.2944990  16.2659997
  54.5792975  54.4646973  16.0071823  69.1019992  48.2514990   6.0799997
  69.1909992  49.1954990   5.9469997  68.4629992  47.9764990   5.4219997
  69.0278378  48.3433846   5.9729258  68.0349992  47.5064990   9.4989997
  67.9959992  46.8604990  10.2039997  67.7119992  47.0394990   8.7269997
  67.9860469  47.3550005   9.4912803  60.4029992  47.1204990  11.0919997
  60.4439992  46.4954990  11.8149997  61.1059992  47.7444990  11.2739997
  60.5036223  47.1192318  11.2156164  71.7409992  50.4454990   7.7999997
  71.2999992  49.7254990   8.2509997  71.7279992  51.1664990   8.4299997
  71.6789215  50.4444303   7.9468088  61.3269992  51.5704990   9.6269997
  60.9569992  50.7684990   9.2569997  62.2679992  51.4024990   9.6729997
  61.4035984  51.4379649   9.5825586  57.9369992  45.2304990   5.0189997
  57.4889992  46.0764990   5.0009997  57.3759992  44.6514990   4.5039997
  57.7998546  45.2679004   4.9468874  58.6469992  47.3924990   7.1449997
  58.8609992  46.6224990   7.6719997  59.3849992  47.4824990   6.5419997
  58.7760073  47.2993546   7.1355786 112.7989992  22.6844990  87.4229997
 112.8479992  23.2944990  88.1589997 113.2249992  23.1454990  86.6999997
 112.8632851  22.8303266  87.4260532  68.8519992  55.5494990   8.0119997
  69.4719992  54.8734990   7.7389997  68.6439992  55.3314990   8.9209997
  68.9087679  55.4275032   8.0974518  66.4239992  49.9384990   9.9049997
  66.7279992  49.2524990   9.3099997  67.1459992  50.0574990  10.5229997
  66.5631240  49.8607325   9.9070941  75.0869992  41.5404990  10.7649997
  75.1359992  42.1504990  11.5009997  75.5129992  42.0014990  10.0419997
  75.1512851  41.6863266  10.7680532  69.5649992  44.3324990  10.2319997
  69.7069992  43.3864990  10.2519997  69.4589992  44.5394990   9.3039997
  69.5701051  44.2309706  10.1092249  62.7199992  42.4344990   7.5049997
  62.7629992  43.2944990   7.0859997  62.2619992  41.8814990   6.8709997
  62.6640163  42.4774174   7.3620604  70.4419992  42.5654990   5.9049997
  71.0879992  42.2364990   6.5299997  70.9519992  43.0824990   5.2829997
  70.5994289  42.5904333   5.9063681  59.3399992  44.8314990   8.2669997
  59.9939992  44.2814990   8.6989997  59.3639992  44.5574990   7.3499997
  59.4327199  44.7192178   8.2021650  64.4959992  46.3814990   7.4819997
  65.1119992  45.8544990   7.9909997  63.9099992  45.7414990   7.0779997
  64.5010652  46.2228919   7.4970277  75.4789992  43.0184990  13.0009997
  74.7899992  43.6764990  12.9059997  75.4939992  42.8204990  13.9379997
  75.3867756  43.0817614  13.1145795  61.5299992  41.3524990  11.5789997
  61.3109992  41.8824990  10.8119997  60.8619992  41.5784990  12.2259997
  61.4096975  41.4555979  11.5615123 107.2769992  25.4764990  86.8899997
 107.4189992  24.5304990  86.9099997 107.1709992  25.6834990  85.9609997
 107.2821158  25.3749722  86.7672241  68.8989992  50.8524990   5.1229997
  68.6029992  50.5294990   4.2709997  68.5749992  51.7524990   5.1639997
  68.8147458  50.9299678   5.0120598  64.0989992  49.0274990  11.8659997
  63.3589992  49.6264990  11.9699997  64.8129992  49.5814990  11.5499997
  64.0943146  49.1842611  11.8375150  72.2059992  41.8564990   7.8859997
  71.9909992  41.0904990   8.4189997  72.8619992  42.3284990   8.3989997
  72.2652673  41.8155739   8.0281972  61.1239992  43.2444990   9.5309997
  61.7369992  43.8774990   9.9039997  61.6359992  42.7724990   8.8749997
  61.2771933  43.2673380   9.4933477  62.5059992  50.9924990  12.6529997
  62.5009992  51.8714990  12.2749997  61.6529992  50.9084990  13.0779997
  62.3899199  51.1015901  12.6586942  58.6279992  50.6634990   3.4349997
  58.3559992  50.8924990   2.5459997  58.6729992  51.5004990   3.8959997
  58.5968360  50.8081034   3.3756186  72.2529992  52.2844990  10.1479997
  71.3109992  52.3434990  10.3099997  72.5289992  53.1904990  10.0109997
  72.1615865  52.4150299  10.1516174  72.5529992  40.5714990  11.5649997
  71.8169992  41.1814990  11.5279997  73.2369992  40.9864990  11.0389997
  72.5445367  40.7112562  11.4888156  65.5559992  38.6574990   9.0309997
  65.4389992  37.7094990   8.9769997  64.7009992  38.9904990   9.3039997
  65.4243691  38.5725842   9.0605072  70.5049992  54.0654990   6.7729997
  70.9299992  53.3584990   6.2879997  70.8219992  54.8674990   6.3559997
  70.6060266  54.0770201   6.6502461 100.4319992  23.5784990  84.1619997
 100.4749992  24.4384990  83.7439997  99.9739992  23.0254990  83.5289997
 100.3759613  23.6215689  84.0191276  71.6639992  51.9664990   5.2819997
  71.4069992  51.2764990   4.6699997  71.7349992  51.5234990   6.1269997
  71.6384322  51.8121568   5.3125372  73.3499992  50.5334990  13.7589997
  73.4899992  49.9414990  13.0199997  73.5179992  51.4064990  13.4029997
  73.3918734  50.5704041  13.6096937  67.8229992  47.4954990   3.5319997
  67.1109992  48.0304990   3.1799997  68.5139992  47.5504990   2.8719997
  67.8189704  47.5761663   3.3945797  67.8769992  45.9524990   0.5699997
  68.5779992  45.9754990   1.2219997  68.1789992  45.3244990  -0.0860003
  68.0138202  45.8707223   0.5705591  75.1919992  46.8734990  11.8249997
  74.5399992  47.5674990  11.9139997  75.6569992  47.0834990  11.0149997
  75.1655357  46.9969544  11.7277056  71.2289992  47.7044990   4.4829997
  70.4969992  47.9334990   5.0559997  71.6759992  46.9914990   4.9379997
  71.1892753  47.6393984   4.6229698  71.1259992  45.8794990  13.5509997
  71.2059992  46.6424990  14.1229997  70.5249992  46.1584990  12.8609997
  71.0556547  46.0217468  13.5360029  62.8739992  48.3354990   6.3659997
  62.5439992  47.9644990   5.5479997  63.4619992  47.6644990   6.7129997
  62.9083182  48.1940648   6.3009898  64.2409992  51.7634990   9.0469997
  64.1459992  51.1844990   8.2909997  64.9699992  51.3924990   9.5429997
  64.3266011  51.6340572   9.0106011  63.2409992  47.1034990   9.9989997
  63.8059992  47.2254990   9.2369997  63.5589992  47.7414990  10.6379997
  63.3613619  47.2064388   9.9810019 108.1539992  23.7094990  82.5629997
 108.7999992  23.3804990  83.1879997 108.6639992  24.2264990  81.9399997
 108.3114392  23.7343710  82.5643248  69.5499992  52.6074990  10.7329997
  69.3089992  53.2694990  11.3809997  69.3519992  51.7724990  11.1579997
  69.4902662  52.5852704  10.8791008  64.1209992  51.5034990  14.7169997
  63.8089992  52.2854990  15.1719997  63.4709992  51.3504990  14.0309997
  63.9904858  51.5897882  14.6865344  70.0999992  46.8674990   2.1689997
  70.6789992  47.0174990   2.9149997  70.5139992  47.3374990   1.4449997
  70.2353358  46.9515966   2.1733935  61.0409992  47.7014990  13.9449997
  61.1109992  48.3524990  14.6439997  60.1499992  47.8044990  13.6099997
  60.9301690  47.8044261  13.9953026  67.8259992  53.6034990   5.6039997
  68.2999992  53.8994990   6.3809997  67.2629992  54.3424990   5.3709997
  67.8147890  53.7438047   5.6788084  62.3599992  53.5744990  15.4799997
  62.3679992  53.4384990  14.5329997  61.4439992  53.4574990  15.7319997
  62.2372528  53.5400475  15.3843226  73.7979992  38.6174990   1.9809997
  72.8979992  38.7554990   2.2769997  74.0499992  39.4484990   1.5799997
  73.7087727  38.7488705   1.9672935  61.8639992  47.4044990   3.9549997
  61.5719992  48.1724990   3.4639997  61.1899992  46.7454990   3.7919997
  61.7328843  47.4204537   3.8657695  74.9879992  52.9834990   0.3579997
  75.0609992  53.9224990   0.5279997  75.8929992  52.6784990   0.3019997
  75.1204170  53.0708294   0.3737045  57.9569992  49.7674990  12.7699997
  57.4559992  49.7394990  11.9549997  57.9629992  48.8624990  13.0799997
  57.8891690  49.6412234  12.7002770  97.0519992  25.9754990  84.9239997
  97.7059992  25.4254990  85.3559997  97.0759992  25.7014990  84.0079997
  97.1447022  25.8632005  84.8591698  57.7079992  52.5484990   9.6539997
  58.6539992  52.4034990   9.6349997  57.5949992  53.3324990  10.1909997
  57.8223578  52.6346708   9.7240300  75.9049992  53.2144990  15.3369997
  75.8559992  52.2584990  15.2989997  75.0789992  53.4814990  15.7379997
  75.7865096  53.1198416  15.3860698  66.8839992  52.7884990  14.2129997
  66.9709992  53.6144990  14.6879997  66.0199992  52.4584990  14.4619997
  66.7791944  52.8569871  14.3116558  67.2979992  56.5604990   4.0189997
  67.2229992  56.4394990   3.0719997  67.3309992  57.5094990   4.1369997
  67.2922083  56.6722639   3.9054973  60.9519992  55.3494990   5.7999997
  61.1039992  55.0014990   6.6779997  60.1009992  54.9924990   5.5439997
  60.8578344  55.2535891   5.8856851  70.3999992  55.7144990   1.0209997
  70.7749992  54.9704990   0.5499997  70.4039992  55.4444990   1.9389997
  70.4518969  55.5760920   1.0806475  70.0689992  55.6404990   3.7699997
  69.1339992  55.7404990   3.9489997  70.3489992  54.9304990   4.3489997
  69.9789471  55.5582944   3.8726678  73.0569992  44.7074990  15.8169997
  72.6499992  45.1874990  15.0959997  73.0979992  43.8014990  15.5089997
  73.0068403  44.6507989  15.6767253  60.2059992  51.0914990  13.8129997
  60.4219992  50.7294990  14.6729997  59.3509992  50.7164990  13.6039997
  60.1199082  50.9913377  13.9022396  62.8249992  39.5614990   9.8089997
  61.9629992  39.4744990   9.4009997  62.8029992  40.4174990  10.2369997
  62.7040557  39.6653078   9.8110202 102.2079992  27.5254990  84.1399997
 102.8239992  26.9984990  84.6489997 101.6219992  26.8854990  83.7359997
 102.2130652  27.3668919  84.1550277  67.4879992  39.2834990  13.1839997
  67.9079992  38.8684990  13.9369997  66.5549992  39.1044990  13.3009997
  67.4193736  39.2024921  13.3028950  70.8139992  43.0384990  14.0369997
  70.2999992  42.9134990  14.8349997  70.6589992  43.9514990  13.7929997
  70.7227802  43.1447433  14.1131504  71.5769992  47.8994990  -0.2020003
  71.6189992  47.6774990  -1.1320003  72.4259992  48.2984990  -0.0120003
  71.6975253  47.9230510  -0.3036196  67.1499992  41.7754990   0.4689997
  66.8959992  41.7944990   1.3909997  66.8929992  40.9044990   0.1669997
  67.0804508  41.6603292   0.5544786  62.9159992  44.5264990  10.9039997
  62.2739992  44.4864990  11.6129997  62.9529992  45.4534990  10.6659997
  62.8331659  44.6462540  10.9688463  62.9129992  44.7474990   5.8159997
  62.0199992  44.4074990   5.7569997  63.3639992  44.3704990   5.0599997
  62.8517185  44.6500220   5.7057698  68.4489992  45.1634990   4.6329997
  68.0399992  45.9784990   4.3409997  69.1689992  45.0234990   4.0189997
  68.4904439  45.2560383   4.5100098  67.5509992  45.3394990  16.1209997
  66.9879992  44.6344990  16.4419997  68.3769992  45.2184990  16.5889997
  67.5856674  45.2267176  16.2281734  69.4529992  44.6094990   7.4469997
  69.2579992  45.2154990   6.7319997  69.6349992  43.7764990   7.0129997
  69.4509195  44.5797936   7.2904079  60.6659992  44.8474990  12.7709997
  60.6279992  45.2474990  13.6399997  60.1749992  44.0304990  12.8609997
  60.5944374  44.7918228  12.9020980 113.1909992  24.1624990  89.6589997
 112.5019992  24.8204990  89.5639997 113.2059992  23.9644990  90.5959997
 113.0987756  24.2257614  89.7725795  64.0319992  42.2214990  -0.4300003
  63.6009992  41.7764990   0.2989997  63.3139992  42.5924990  -0.9430003
  63.8759176  42.2107063  -0.3995087  57.2739992  41.9634990   6.6219997
  57.9049992  41.9344990   7.3409997  57.7239992  41.5384990   5.8909997
  57.4211082  41.9021269   6.6216307  58.5479992  42.7094990   2.0459997
  59.0229992  43.3004990   1.4609997  57.8309992  43.2394990   2.3929997
  58.5160406  42.8621011   2.0128495  68.7169992  46.2474990  12.1179997
  69.0409992  45.6164990  11.4749997  68.2769992  45.7134990  12.7789997
  68.7018707  46.0888261  12.1193195  65.4949992  42.1754990   6.9019997
  64.5839992  42.2324990   7.1909997  65.9999992  42.1154990   7.7129997
  65.4386873  42.1751838   7.0511190  60.3229992  43.8044990   5.7289997
  59.4339992  43.9034990   5.3889997  60.6189992  42.9624990   5.3829997
  60.2414001  43.7042473   5.6357318  63.9759992  43.8044990   3.3859997
  64.9079992  43.9334990   3.5639997  63.7609992  44.4734990   2.7359997
  64.0744472  43.9125817   3.3224873  69.8999992  41.4104990  10.1659997
  69.2229992  41.5414990  10.8299997  69.4139992  41.2554990   9.3559997
  69.7417265  41.4074665  10.1473380  62.6499992  44.9984990   0.9519997
  62.1079992  44.6194990   0.2609997  63.4839992  45.1934990   0.5239997
  62.6884390  44.9729091   0.7994374  73.1869992  57.0814990  16.4429997
  73.3869992  57.5054990  15.6089997  73.8429992  57.4254990  17.0499997
  73.3029937  57.1859993  16.4108645  99.2419992  22.4964990  88.2359997
  99.0229992  23.0264990  87.4699997  98.5739992  22.7224990  88.8839997
  99.1217271  22.5996508  88.2186206  60.7849992  49.5554990  16.0509997
  61.5169992  49.8104990  16.6129997  60.0049992  49.7604990  16.5669997
  60.7796526  49.6180438  16.1975168  66.8149992  44.9624990   8.7889997
  67.3789992  44.4164990   8.2419997  66.6669992  44.4414990   9.5779997
  66.8723037  44.8171798   8.8207212  61.8169992  41.0994990   5.2079997
  61.4989992  40.1964990   5.1719997  62.5979992  41.1014990   4.6549997
  61.8791079  40.9762240   5.1282908  65.4409992  43.3514990  11.2029997
  64.6059992  43.8054990  11.3139997  65.9649992  43.6274990  11.9549997
  65.3976072  43.4508960  11.3198118  65.9849992  49.5644990   2.8879997
  65.2399992  49.0564990   2.5659997  65.8509992  49.6134990   3.8339997
  65.8649334  49.5016144   2.9718892  73.1349992  48.6974990  11.6749997
  73.7769992  49.1534990  11.1309997  72.3049992  48.8104990  11.2119997
  73.1106536  48.7751813  11.5379579  69.8829992  42.3784990   1.0869997
  68.9439992  42.4894990   0.9359997  70.1799992  43.2344990   1.3939997
  69.7946136  42.5094977   1.1078568  67.5049992  49.7484990  14.1249997
  67.1589992  49.3664990  14.9319997  67.3049992  50.6814990  14.1959997
  67.4305987  49.8224013  14.2450443  70.6009992  44.2454990   2.7479997
  71.4929992  44.1074990   3.0669997  70.6579992  45.0364990   2.2109997
  70.7307380  44.3334777   2.7190981  61.1099992  48.8594990   8.6579997
  61.8549992  48.8564990   8.0559997  61.1879992  48.0354990   9.1389997
  61.2223365  48.7477395   8.6407412 106.6109992  31.9964990  81.7799997
 106.3149992  31.6734990  80.9289997 106.2869992  32.8964990  81.8219997
 106.5266501  32.0739058  81.6690893  68.1109992  51.0224990   1.9129997
  67.8159992  51.8494990   2.2949997  67.4079992  50.4034990   2.1099997
  67.9756379  51.0519182   1.9918636  58.1179992  47.3194990  13.9729997
  58.3409992  46.9014990  14.8039997  57.5159992  46.7074990  13.5499997
  58.0671513  47.1794617  14.0296722  65.1349992  46.8364990  16.1859997
  64.8389992  46.6714990  15.2899997  66.0659992  46.6164990  16.1749997
  65.2204401  46.7841891  16.0620189  69.7549992  52.2104990  14.0749997
  68.8539992  52.3934990  13.8079997  69.7889992  52.4694990  14.9959997
  69.6363861  52.2705245  14.1629517  75.4859992  44.4544990   2.4429997
  74.9319992  44.0584990   1.7699997  75.5869992  45.3654990   2.1649997
  75.4238589  44.5233904   2.3133839  75.4489992  50.2554990  15.2799997
  74.5979992  50.4934990  14.9119997  76.0399992  50.2384990  14.5259997
  75.4123831  50.2857623  15.1278448  73.7809992  53.2404990   2.9079997
  73.4089992  52.4154990   3.2169997  74.0589992  53.0574990   2.0099997
  73.7675807  53.1027031   2.8290063  70.9419992  48.0484990   9.9289997
  70.0139992  47.8174990   9.9019997  71.3929992  47.2714990   9.5989997
  70.8758165  47.9117785   9.8806772  63.4849992  52.3774990   6.0619997
  64.0119992  53.1504990   5.8619997  62.6049992  52.6014990   5.7599997
  63.4382121  52.5137344   5.9937460  59.2399992  47.2394990   0.6489997
  59.8559992  47.8664990   1.0289997  58.3779992  47.5554990   0.9209997
  59.2077678  47.3679423   0.7377192 101.8109992  30.1714990  88.5239997
 101.0709992  30.7704990  88.6269997 102.5249992  30.7254990  88.2079997
 101.8063288  30.3282368  88.4953787  64.9119992  50.0404990   5.6379997
  64.6709992  50.9654990   5.6799997  64.1719992  49.5814990   6.0349997
  64.7789463  50.1050969   5.6974279  65.4269992  54.1894990  11.9529997
  65.7899992  55.0434990  11.7199997  65.9589992  53.8974990  12.6939997
  65.5485141  54.2668907  12.0212079  63.5949992  55.0614990   5.1839997
  62.6459992  55.1674990   5.2349997  63.9469992  55.8824990   5.5279997
  63.5125647  55.1870029   5.2374882  68.9709992  50.2884990  11.6539997
  68.5449992  50.0604990  12.4799997  69.5519992  49.5494990  11.4719997
  68.9912088  50.1574393  11.7424454  71.1739992  51.2174990   0.7279997
  71.5269992  50.8374990   1.5319997  70.2249992  51.1234990   0.8149997
  71.0940956  51.1527867   0.8498005  71.6299992  54.8404990  14.1229997
  71.0279992  54.2844990  13.6279997  71.9109992  55.5074990  13.4969997
  71.5855757  54.8545755  13.9705657  75.6769992  55.6964990   0.9289997
  76.4209992  56.2824990   0.7889997  74.9829992  56.2654990   1.2619997
  75.6849809  55.8535830   0.9548572  59.7519992  42.0734990  13.5309997
  58.8589992  42.4114990  13.4629997  59.6529992  41.2174990  13.9489997
  59.6164752  42.0040986  13.5781644  72.0399992  49.8894990   2.9549997
  71.7629992  49.1614990   3.5109997  72.9669992  50.0084990   3.1599997
  72.1274419  49.8059436   3.0588264  59.4029992  53.8774990  11.9659997
  59.6199992  52.9454990  11.9349997  59.6499992  54.1524990  12.8489997
  59.4660948  53.7870976  12.0811268 109.9179992  23.0004990  84.5439997
 109.7029992  22.2344990  85.0759997 110.5739992  23.4724990  85.0569997
 109.9772451  22.9594472  84.6861699  64.2019992  51.8994990   1.6309997
  64.3489992  51.3794990   2.4209997  64.1989992  52.8064990   1.9379997
  64.2217102  51.9508964   1.7805907  60.6549992  49.1514990   2.1419997
  59.9689992  49.5044990   2.7089997  61.1779992  49.9144990   1.8949997
  60.6318402  49.3028912   2.1861784  68.4859992  41.8144990  12.4209997
  69.1849992  41.8884990  13.0709997  68.1059992  40.9494990  12.5749997
  68.5302662  41.7077050  12.5307412  69.2709992  41.4664990   3.5179997
  69.4909992  41.9374990   2.7139997  69.8289992  41.8604990   4.1879997
  69.3766044  41.5842946   3.4985207  66.9399992  53.5964990   2.3809997
  66.1229992  54.0934990   2.4329997  67.4689992  54.0724990   1.7399997
  66.8998125  53.7287000   2.3015289  66.4709992  43.1944990   4.3529997
  67.2829992  43.6984990   4.3989997  66.2259992  43.0494990   5.2669997
  66.5491091  43.2439366   4.4828552  67.0069992  44.1804990  13.5369997
  67.1259992  44.7544990  14.2939997  67.6619992  43.4924990  13.6519997
  67.1118684  44.1660205  13.6561656  67.3549992  40.2754990   5.2909997
  67.0079992  40.8924990   5.9349997  68.0129992  40.7764990   4.8089997
  67.3964430  40.4276860   5.3140046  64.2779992  54.6404990   2.3619997
  64.4389992  55.4404990   1.8619997  64.0809992  54.9474990   3.2469997
  64.2733906  54.7913690   2.4132316  63.0119992  41.3384990   1.9779997
  62.9289992  42.2264990   2.3249997  63.9019992  41.0734990   2.2099997
  63.1209331  41.4241177   2.0568067  98.8359992  24.3884990  86.1889997
  99.4489992  25.0214990  86.5619997  99.3479992  23.9164990  85.5319997
  98.9891680  24.4114006  86.1512830  73.2109992  42.0874990  14.3719997
  72.2949992  42.3494990  14.2849997  73.5469992  42.0844990  13.4759997
  73.1308499  42.1230174  14.2388748  71.8129992  45.8374990   8.4679997
  71.0159992  45.4224990   8.1399997  72.2579992  45.1474990   8.9589997
  71.7640367  45.6873372   8.4894897  61.2709992  51.7654990   1.0379997
  61.8629992  52.4654990   1.3149997  61.7299992  51.3324990   0.3189997
  61.4141652  51.8027686   0.9786515  59.5869992  44.4304990   0.1539997
  59.5419992  45.3694990   0.3329997  58.6989992  44.1944990  -0.1150003
  59.4608166  44.5271698   0.1421507  72.8999992  55.0934990  10.0899997
  72.7439992  55.7724990   9.4329997  73.8319992  55.1654990  10.2929997
  73.0047328  55.1961586  10.0275529  60.3949992  39.2114990   8.8269997
  60.1659992  39.2704990   7.8999997  59.9519992  38.4204990   9.1339997
  60.3037387  39.1126412   8.7415223  59.3249992  53.1524990   4.9879997
  58.4929992  53.6244990   5.0149997  59.8709992  53.6624990   4.3889997
  59.2848710  53.2860317   4.9107570  58.6139992  55.7644990  16.3179997
  59.1539992  55.5484990  17.0779997  58.1319992  54.9594990  16.1279997
  58.6228485  55.6260463  16.3964870  63.2109992  54.6844990  17.9379997
  63.9789992  54.2254990  18.2789997  63.1899992  54.4584990  17.0079997
  63.3132135  54.5911680  17.8589473  67.3029992  54.1924990  -0.6870003
  66.6589992  53.5614990  -0.3650003  68.0649992  53.6614990  -0.9180003
  67.3178708  54.0343171  -0.6741539 100.2179992  32.1364990  89.3109997
 100.2129992  33.0154990  88.9329997  99.3649992  32.0524990  89.7359997
 100.1019199  32.2455901  89.3166942  69.7879992  53.0644990  16.6669997
  69.4369992  52.2074990  16.9099997  70.5139992  53.2064990  17.2739997
  69.8381590  52.9665189  16.7822889  71.9069992  54.0094990  -0.4530003
  72.1899992  53.2144990  -0.0000003  72.6469992  54.2424990  -1.0140003
  72.0457295  53.9322349  -0.4668531  58.5209992  49.5754990  17.2719997
  58.6649992  48.6734990  16.9859997  57.7479992  49.8614990  16.7849997
  58.4362266  49.4906548  17.1670102  62.8619992  49.9184990  -0.5950003
  62.9259992  49.1244990  -0.0650003  63.5149992  49.8004990  -1.2850003
  62.9590483  49.7937496  -0.6156593  65.1759992  49.5444990  16.7049997
  64.8479992  49.8154990  15.8479997  65.3279992  48.6034990  16.6169997
  65.1516412  49.4544058  16.5757804  70.9109992  49.4604990  14.0879997
  71.6559992  50.0494990  13.9689997  70.1529992  50.0424990  14.1509997
  70.9105289  49.6197067  14.0802292  59.3529992  46.7754990  16.6919997
  59.7609992  45.9184990  16.5709997  59.0929992  46.7894990  17.6129997
  59.3737082  46.6600596  16.7999469  64.0109992  47.8914990   1.7109997
  63.5519992  47.4074990   2.3959997  64.2659992  47.2224990   1.0749997
  63.9825997  47.7348491   1.7188734  63.2999992  45.7844990  14.0669997
  62.6819992  46.4584990  14.3469997  63.6439992  46.1054990  13.2329997
  63.2618078  45.9202298  13.9926609  65.0819992  46.1344990  -0.0270003
  64.9019992  45.9794990  -0.9540003  66.0319992  46.2424990   0.0179997
  65.1857804  46.1278821  -0.1478034 109.9649992  33.4284990  86.8059997
 109.0229992  33.4874990  86.9669997 110.2409992  34.3344990  86.6689997
 109.8735771  33.5590270  86.8094827  68.3199992  48.2554990  17.3439997
  69.2729992  48.3394990  17.3169997  68.1599992  47.5434990  17.9629997
  68.4287320  48.1707292  17.4239933  74.4719992  48.4884990  -0.5810003
  74.1989992  48.0644990  -1.3940003  74.5119992  49.4204990  -0.7980003
  74.4400201  48.5563523  -0.7216452  63.6399992  43.1394990  15.1489997
  63.7899992  42.4104990  14.5469997  63.6419992  43.9164990  14.5899997
  63.6607967  43.1447720  14.9910523  64.0519992  41.5084990  12.6419997
  64.5879992  41.9604990  11.9899997  63.1999992  41.4004990  12.2189997
  64.0101795  41.5557444  12.4956211  65.6339992  46.9484990  12.8809997
  66.3849992  46.7924990  12.3079997  65.2949992  47.8004990  12.6059997
  65.6909587  47.0423149  12.7654060  70.0499992  44.7634990  17.9099997
  70.2419992  43.8324990  17.7979997  70.9069992  45.1884990  17.8989997
  70.1922176  44.6935090  17.8931757  71.3659992  47.5524990  15.9869997
  71.0849992  48.2614990  15.4089997  72.3089992  47.4794990  15.8359997
  71.4549272  47.6396704  15.8874976  62.1179992  44.3374990  17.0599997
  61.3509992  43.8044990  16.8499997  62.7969992  44.0274990  16.4609997
  62.1048292  44.2226360  16.9502693  64.8579992  38.9654990  13.0729997
  64.7599992  39.9114990  12.9679997  64.1149992  38.5924990  12.5969997
  64.7442123  39.0446811  12.9943204  66.1219992  43.2864990  16.6369997
  65.8859992  43.0674990  17.5379997  65.3389992  43.0794990  16.1269997
  65.9838382  43.2285340  16.6913991 110.2649992  21.7154990  88.2229997
 109.5289992  22.3254990  88.1849997 110.9489992  22.1304990  87.6969997
 110.2565885  21.8551924  88.1466931  68.8379992  42.4144990  15.7119997
  67.8899992  42.4464990  15.8439997  69.1499992  41.7884990  16.3659997
  68.7505293  42.3342934  15.8184130  70.4719992  41.0484990  17.7169997
  70.3749992  40.0964990  17.7119997  70.1499992  41.3164990  18.5779997
  70.4152468  40.9545896  17.8326192  60.2989992  42.2574990  16.7649997
  60.5099992  41.5514990  16.1549997  60.1869992  41.8204990  17.6089997
  60.3127668  42.1016619  16.7955445  65.0799992  38.2594990  15.7439997
  65.7909992  37.6194990  15.7299997  64.9789992  38.5254990  14.8309997
  65.1636858  38.2078591  15.6185501  65.4329992  39.9414990  17.7979997
  65.3019992  39.4664990  16.9779997  64.8339992  40.6864990  17.7429997
  65.3340829  39.9770949  17.6781823  64.9799992  56.8244990   0.9739997
  65.9129992  56.9824990   1.1179997  64.7149992  57.5004990   0.3489997
  65.0719846  56.9374567   0.9092930  58.5479992  51.4614990   0.4569997
  59.4619992  51.5404990   0.7299997  58.5549992  50.7744990  -0.2090003
  58.6740624  51.3794074   0.4043045  57.1969992  56.8544990   5.5339997
  56.5499992  56.3924990   5.0019997  57.5519992  56.1824990   6.1169997
  57.1563741  56.7004785   5.5399157  58.0669992  54.9344990   7.3389997
  57.7329992  54.0544990   7.5109997  58.2889992  55.2804990   8.2039997
  58.0512565  54.8607410   7.4794263  75.6159992  55.7444990  10.3199997
  75.5939992  55.9294990  11.2579997  76.3059992  56.3124990   9.9789997
  75.7063383  55.8467104  10.4024580 103.2679992  19.8014990  85.6889997
 103.1509992  18.8534990  85.6349997 102.4129992  20.1344990  85.9619997
 103.1363691  19.7165842  85.7185072  75.1789992  55.3114990  13.2409997
  74.6919992  54.5754990  12.8699997  75.7279992  54.9174990  13.9189997
  75.1866101  55.1576267  13.2819034  73.6299992  51.1014990  17.8789997
  72.7639992  50.9964990  18.2739997  74.0059992  51.8594990  18.3259997
  73.5624940  51.1896141  17.9933958  74.9309992  49.3574990   3.3939997
  75.7809992  49.7784990   3.5209997  74.9359992  48.6174990   4.0009997
  75.0481143  49.3151106   3.4934732  75.3249992  47.4114990   5.2169997
  74.5989992  46.9314990   5.6149997  75.9059992  47.6164990   5.9489997
  75.3042504  47.3735592   5.3704199  75.0839992  50.1964990  10.1649997
  75.9179992  49.8184990   9.8839997  75.1959992  51.1394990  10.0459997
  75.2131917  50.2722954  10.1104844  73.5699992  53.0744990  12.4719997
  72.9229992  53.3994990  13.0969997  73.0529992  52.6334990  11.7979997
  73.4114112  53.0594133  12.4665272  75.5929992  47.3124990   1.6079997
  75.0719992  47.6684990   0.8899997  75.5599992  47.9874990   2.2869997
  75.5170955  47.4525023   1.6012634  73.9419992  44.5514990   0.1589997
  74.0389992  45.2184990  -0.5210003  73.8019992  43.7364990  -0.3220003
  73.9363407  44.5325670   0.0008312  73.1119992  45.9324990   5.7799997
  72.9619992  44.9874990   5.7599997  72.7579992  46.2134990   6.6239997
  73.0436351  45.8411656   5.8913202  58.1469992  48.0104990   9.7909997
  58.3309992  47.9284990   8.8549997  58.9959992  47.8864990  10.2139997
  58.2870132  47.9825066   9.7201460 108.2169992  35.2094990  83.4309997
 108.6419992  34.5024990  82.9459997 108.5339992  36.0114990  83.0139997
 108.3180266  35.2210201  83.3082461  73.9679992  47.9024990  15.4189997
  74.5509992  47.1674990  15.6109997  74.5319992  48.6744990  15.4659997
  74.1239781  47.9063156  15.4516146  75.4649992  45.8054990  16.1039997
  74.6009992  45.4264990  15.9379997  76.0689992  45.0664990  16.0289997
  75.4285394  45.6538378  16.0711778  72.8219992  43.5144990   4.2429997
  73.1019992  42.6074990   4.3669997  73.5809992  43.9484990   3.8539997
  72.9629258  43.4490935   4.2073691  73.4339992  44.0964990   9.6789997
  74.3669992  44.3084990   9.6439997  73.1989992  44.1974990  10.6009997
  73.5299517  44.1391844   9.7989113  73.4629992  44.8334990  12.4549997
  72.6199992  45.1014990  12.8199997  73.9059992  45.6554990  12.2439997
  73.4074035  44.9813351  12.4764770  57.7439992  43.2804990  15.9309997
  58.6639992  43.1584990  16.1679997  57.2949992  42.5304990  16.3209997
  57.8090500  43.1624576  16.0161016  75.7459992  38.8134990  17.8079997
  76.0959992  38.1594990  17.2019997  75.8929992  39.6504990  17.3679997
  75.8137192  38.8372545  17.6656712  73.4359992  40.7774990   4.2909997
  73.6179992  40.3284990   5.1159997  72.8359992  40.1934990   3.8269997
  73.3798187  40.6370563   4.3412721  58.9659992  41.5934990   8.8229997
  59.4109992  40.8014990   9.1249997  59.4319992  42.3094990   9.2529997
  59.0899718  41.5819546   8.9225247  57.2699992  44.5924990   9.8919997
  57.7619992  44.3714990   9.1009997  57.6319992  45.4324990  10.1729997
  57.3862923  44.6758480   9.8217389 109.3759992  33.1104990  81.9399997
 109.1189992  32.4204990  81.3279997 109.4469992  32.6674990  82.7849997
 109.3504322  32.9561568  81.9705372  75.2659992  40.9224990  16.1569997
  74.3489992  41.1934990  16.1209997  75.3889992  40.3874990  15.3729997
  75.1570828  40.8872711  16.0460767  75.3019992  40.8454990   0.8189997
  75.7149992  40.1244990   0.3439997  75.9839992  41.5144990   0.8769997
  75.4506060  40.8373741   0.7619233  57.5829992  40.8504990   3.9459997
  56.6579992  41.0584990   3.8169997  58.0369992  41.3344990   3.2559997
  57.5176298  40.9444311   3.8350433  72.3539992  55.8344990   5.8919997
  73.0059992  55.4864990   5.2839997  72.8649992  56.3224990   6.5379997
  72.5122872  55.8528248   5.8960964  57.5469992  39.5884990  12.2899997
  56.8819992  39.3424990  12.9329997  57.1039992  40.2104990  11.7129997
  57.3961168  39.6389225  12.2999830  59.7389992  52.7634990  16.4349997
  58.9179992  52.9384990  15.9739997  59.4869992  52.6904990  17.3549997
  59.5925594  52.7775728  16.4963593  62.6929992  53.7374990  12.6929997
  62.2679992  54.5474990  12.4109997  63.5969992  53.8234990  12.3909997
  62.7570706  53.8599557  12.6135836  67.0039992  55.1364990  15.6529997
  67.1889992  54.8034990  16.5309997  67.8509992  55.4464990  15.3309997
  67.1437291  55.1328214  15.7296140  69.3489992  56.4224990  14.8969997
  70.0259992  55.7894990  14.6569997  69.6709992  56.8234990  15.7039997
  69.4851618  56.3901147  14.9732802  74.2669992  39.0124990  13.9759997
  73.4539992  39.3374990  13.5889997  74.4999992  38.2514990  13.4429997
  74.1871347  38.9541891  13.8509824 111.0619992  31.6774990  90.4169997
 111.2019992  31.0854990  89.6779997 111.2299992  32.5504990  90.0609997
 111.1038734  31.7144041  90.2676937  60.0949992  56.9944990  12.7409997
  59.3739992  57.4344990  12.2899997  59.7289992  56.7434990  13.5889997
  59.9469632  57.0207235  12.7939649  62.5619992  56.5944990  11.7699997
  61.6969992  56.6664990  12.1739997  62.5069992  57.1414990  10.9869997
  62.4362289  56.6783242  11.7193749  67.2729992  56.4824990  10.9459997
  66.8159992  57.0114990  10.2919997  67.4349992  57.0854990  11.6709997
  67.2323919  56.6363990  10.9545740  69.5999992  55.3604990  11.8909997
  68.6959992  55.5254990  11.6249997  70.0289992  56.2134990  11.8249997
  69.5342017  55.4984184  11.8456495  72.2039992  56.9304990  12.1859997
  72.0229992  57.8464990  11.9749997  72.3809992  56.5194990  11.3389997
  72.2031377  57.0003365  12.0427178  59.5099992  55.6174990   9.6509997
  59.4909992  55.1914990  10.5079997  60.3139992  55.2984990   9.2419997
  59.6161393  55.5160297   9.7130155  61.6509992  54.3274990   8.3059997
  61.4319992  53.4104990   8.4759997  62.4749992  54.4674990   8.7719997
  61.7324702  54.2210523   8.3922510  64.1879992  54.7974990   9.1549997
  64.4009992  53.9094990   8.8679997  64.2529992  54.7624990  10.1089997
  64.2259149  54.6713338   9.2447351  67.6969992  40.4614990   8.2989997
  67.0219992  39.8314990   8.5549997  68.2609992  39.9774990   7.6959997
  67.6809363  40.3098886   8.2524810  72.8389992  38.5684990   8.4119997
  73.4429992  39.1164990   7.9099997  71.9699992  38.8874990   8.1709997
  72.8040419  38.6865628   8.3107741 105.5349992  28.6394990  80.1889997
 104.8229992  29.1744990  79.8379997 106.2259992  28.6944990  79.5289997
 105.5308696  28.7202591  80.0516372  74.5659992  39.7074990   6.7449997
  75.1779992  39.1934990   6.2179997  74.9489992  40.5844990   6.7679997
  74.7013867  39.7557613   6.6760888  60.0229992  39.0954990   6.1209997
  59.2459992  38.8604990   5.6139997  60.5539992  38.2984990   6.1299997
  59.9883735  38.9556462   6.0528090  58.8599992  38.8934990   1.9249997
  59.2989992  39.5044990   1.3329997  58.2259992  39.4314990   2.3989997
  58.8343859  39.0499076   1.9080287  64.6029992  39.0214990   5.9339997
  65.4769992  39.4104990   5.9049997  64.4669992  38.8064990   6.8569997
  64.7041953  39.0456654   6.0547599  70.1589992  39.0514990   7.5839997
  70.2359992  39.1474990   6.6339997  69.8839992  38.1444990   7.7119997
  70.1323233  38.9419093   7.4713665  71.5129992  39.0774990   3.2759997
  70.8099992  39.6924990   3.0659997  71.0679992  38.2404990   3.4069997
  71.3566550  39.0484679   3.2649819  58.7609992  54.8414990   2.8219997
  58.0759992  54.8034990   2.1549997  58.7639992  55.7534990   3.1099997
  58.6676806  54.9596669   2.7696961  60.7209992  40.8094990   0.3669997
  61.2119992  40.1794990  -0.1600003  61.3439992  41.1054990   1.0299997
  60.8725304  40.7632387   0.3844922  65.7469992  41.1024990   2.8239997
  65.9249992  40.4554990   3.5069997  65.6929992  41.9364990   3.2909997
  65.7640678  41.1266615   2.9806283  67.6249992  56.0504990   1.2199997
  68.4909992  56.4174990   1.0419997  67.3779992  55.6114990   0.4059997
  67.7101853  56.0414021   1.0855813 105.5889992  27.0964990  77.2279997
 106.2899992  27.1194990  77.8789997 105.8909992  26.4684990  76.5719997
 105.7258282  27.0147350  77.2284478  74.3339992  55.6134990   3.8989997
  74.1399992  54.8654990   3.3339997  74.2949992  56.3714990   3.3159997
  74.3021645  55.6135797   3.7428131  59.9809992  39.6094990  15.6389997
  59.6149992  38.8434990  16.0809997  60.8939992  39.6384990  15.9249997
  60.0543172  39.5085335  15.7381872  61.9539992  38.9594990  17.1739997
  62.8529992  38.6854990  16.9899997  61.5679992  38.2174990  17.6389997
  62.0247307  38.8217207  17.2117080  60.5789992  55.7614990  -0.1530003
  60.3109992  56.0474990   0.7209997  61.3499992  55.2154990  -0.0000003
  60.6465926  55.7267790  -0.0128812  70.3749992  38.2924990  17.3569997
  70.4519992  37.8664990  18.2099997  71.2689992  38.3054990  17.0139997
  70.5063263  38.2359345  17.4274366  73.5519992  54.3644990  16.0489997
  72.7699992  54.1784990  15.5289997  73.4799992  55.2944990  16.2659997
  73.4352975  54.4646973  16.0071823  87.9579992  48.2514990   6.0799997
  88.0469992  49.1954990   5.9469997  87.3189992  47.9764990   5.4219997
  87.8838378  48.3433846   5.9729258  86.8909992  47.5064990   9.4989997
  86.8519992  46.8604990  10.2039997  86.5679992  47.0394990   8.7269997
  86.8420469  47.3550005   9.4912803  79.2589992  47.1204990  11.0919997
  79.2999992  46.4954990  11.8149997  79.9619992  47.7444990  11.2739997
  79.3596223  47.1192318  11.2156164  90.5969992  50.4454990   7.7999997
  90.1559992  49.7254990   8.2509997  90.5839992  51.1664990   8.4299997
  90.5349215  50.4444303   7.9468088 112.9039992  28.0174990  88.4829997
 112.2519992  28.7114990  88.5719997 113.3689992  28.2274990  87.6729997
 112.8775357  28.1409544  88.3857056  80.1829992  51.5704990   9.6269997
  79.8129992  50.7684990   9.2569997  81.1239992  51.4024990   9.6729997
  80.2595984  51.4379649   9.5825586  76.7929992  45.2304990   5.0189997
  76.3449992  46.0764990   5.0009997  76.2319992  44.6514990   4.5039997
  76.6558546  45.2679004   4.9468874  77.5029992  47.3924990   7.1449997
  77.7169992  46.6224990   7.6719997  78.2409992  47.4824990   6.5419997
  77.6320073  47.2993546   7.1355786  87.7079992  55.5494990   8.0119997
  88.3279992  54.8734990   7.7389997  87.4999992  55.3314990   8.9209997
  87.7647679  55.4275032   8.0974518  85.2799992  49.9384990   9.9049997
  85.5839992  49.2524990   9.3099997  86.0019992  50.0574990  10.5229997
  85.4191240  49.8607325   9.9070941  93.9429992  41.5404990  10.7649997
  93.9919992  42.1504990  11.5009997  94.3689992  42.0014990  10.0419997
  94.0072851  41.6863266  10.7680532  88.4209992  44.3324990  10.2319997
  88.5629992  43.3864990  10.2519997  88.3149992  44.5394990   9.3039997
  88.4261051  44.2309706  10.1092249  81.5759992  42.4344990   7.5049997
  81.6189992  43.2944990   7.0859997  81.1179992  41.8814990   6.8709997
  81.5200163  42.4774174   7.3620604  89.2979992  42.5654990   5.9049997
  89.9439992  42.2364990   6.5299997  89.8079992  43.0824990   5.2829997
  89.4554289  42.5904333   5.9063681  78.1959992  44.8314990   8.2669997
  78.8499992  44.2814990   8.6989997  78.2199992  44.5574990   7.3499997
  78.2887199  44.7192178   8.2021650 108.9409992  28.8484990  81.1409997
 108.2089992  29.0774990  81.7139997 109.3879992  28.1354990  81.5959997
 108.9012753  28.7833984  81.2809698  83.3519992  46.3814990   7.4819997
  83.9679992  45.8544990   7.9909997  82.7659992  45.7414990   7.0779997
  83.3570652  46.2228919   7.4970277  94.3349992  43.0184990  13.0009997
  93.6459992  43.6764990  12.9059997  94.3499992  42.8204990  13.9379997
  94.2427756  43.0817614  13.1145795  80.3859992  41.3524990  11.5789997
  80.1669992  41.8824990  10.8119997  79.7179992  41.5784990  12.2259997
  80.2656975  41.4555979  11.5615123  87.7549992  50.8524990   5.1229997
  87.4589992  50.5294990   4.2709997  87.4309992  51.7524990   5.1639997
  87.6707458  50.9299678   5.0120598  82.9549992  49.0274990  11.8659997
  82.2149992  49.6264990  11.9699997  83.6689992  49.5814990  11.5499997
  82.9503146  49.1842611  11.8375150  91.0619992  41.8564990   7.8859997
  90.8469992  41.0904990   8.4189997  91.7179992  42.3284990   8.3989997
  91.1212673  41.8155739   8.0281972  79.9799992  43.2444990   9.5309997
  80.5929992  43.8774990   9.9039997  80.4919992  42.7724990   8.8749997
  80.1331933  43.2673380   9.4933477  81.3619992  50.9924990  12.6529997
  81.3569992  51.8714990  12.2749997  80.5089992  50.9084990  13.0779997
  81.2459199  51.1015901  12.6586942  77.4839992  50.6634990   3.4349997
  77.2119992  50.8924990   2.5459997  77.5289992  51.5004990   3.8959997
  77.4528360  50.8081034   3.3756186  91.1089992  52.2844990  10.1479997
  90.1669992  52.3434990  10.3099997  91.3849992  53.1904990  10.0109997
  91.0175865  52.4150299  10.1516174 108.8379992  27.0234990  90.2089997
 108.9179992  27.7864990  90.7809997 108.2369992  27.3024990  89.5179997
 108.7677115  27.1657707  90.1939631  91.4089992  40.5714990  11.5649997
  90.6729992  41.1814990  11.5279997  92.0929992  40.9864990  11.0389997
  91.4005367  40.7112562  11.4888156  84.4119992  38.6574990   9.0309997
  84.2949992  37.7094990   8.9769997  83.5569992  38.9904990   9.3039997
  84.2803691  38.5725842   9.0605072  89.3609992  54.0654990   6.7729997
  89.7859992  53.3584990   6.2879997  89.6779992  54.8674990   6.3559997
  89.4620266  54.0770201   6.6502461  90.5199992  51.9664990   5.2819997
  90.2629992  51.2764990   4.6699997  90.5909992  51.5234990   6.1269997
  90.4944322  51.8121568   5.3125372  92.2059992  50.5334990  13.7589997
  92.3459992  49.9414990  13.0199997  92.3739992  51.4064990  13.4029997
  92.2478734  50.5704041  13.6096937  86.6789992  47.4954990   3.5319997
  85.9669992  48.0304990   3.1799997  87.3699992  47.5504990   2.8719997
  86.6749704  47.5761663   3.3945797  86.7329992  45.9524990   0.5699997
  87.4339992  45.9754990   1.2219997  87.0349992  45.3244990  -0.0860003
  86.8698202  45.8707223   0.5705591  94.0479992  46.8734990  11.8249997
  93.3959992  47.5674990  11.9139997  94.5129992  47.0834990  11.0149997
  94.0215357  46.9969544  11.7277056  90.0849992  47.7044990   4.4829997
  89.3529992  47.9334990   5.0559997  90.5319992  46.9914990   4.9379997
  90.0452753  47.6393984   4.6229698  89.9819992  45.8794990  13.5509997
  90.0619992  46.6424990  14.1229997  89.3809992  46.1584990  12.8609997
  89.9116547  46.0217468  13.5360029 100.5859992  29.4794990  83.0239997
 100.2559992  29.1084990  82.2049997 101.1739992  28.8084990  83.3699997
 100.6204056  29.3381257  82.9589035  81.7299992  48.3354990   6.3659997
  81.3999992  47.9644990   5.5479997  82.3179992  47.6644990   6.7129997
  81.7643182  48.1940648   6.3009898  83.0969992  51.7634990   9.0469997
  83.0019992  51.1844990   8.2909997  83.8259992  51.3924990   9.5429997
  83.1826011  51.6340572   9.0106011  82.0969992  47.1034990   9.9989997
  82.6619992  47.2254990   9.2369997  82.4149992  47.7414990  10.6379997
  82.2173619  47.2064388   9.9810019  88.4059992  52.6074990  10.7329997
  88.1649992  53.2694990  11.3809997  88.2079992  51.7724990  11.1579997
  88.3462662  52.5852704  10.8791008  82.9769992  51.5034990  14.7169997
  82.6649992  52.2854990  15.1719997  82.3269992  51.3504990  14.0309997
  82.8464858  51.5897882  14.6865344  88.9559992  46.8674990   2.1689997
  89.5349992  47.0174990   2.9149997  89.3699992  47.3374990   1.4449997
  89.0913358  46.9515966   2.1733935  79.8969992  47.7014990  13.9449997
  79.9669992  48.3524990  14.6439997  79.0059992  47.8044990  13.6099997
  79.7861690  47.8044261  13.9953026  86.6819992  53.6034990   5.6039997
  87.1559992  53.8994990   6.3809997  86.1189992  54.3424990   5.3709997
  86.6707890  53.7438047   5.6788084  81.2159992  53.5744990  15.4799997
  81.2239992  53.4384990  14.5329997  80.2999992  53.4574990  15.7319997
  81.0932528  53.5400475  15.3843226  92.6539992  38.6174990   1.9809997
  91.7539992  38.7554990   2.2769997  92.9059992  39.4484990   1.5799997
  92.5647727  38.7488705   1.9672935 101.9529992  32.9074990  85.7049997
 101.8579992  32.3284990  84.9479997 102.6819992  32.5364990  86.2009997
 102.0386161  32.7780902  85.6685191  80.7199992  47.4044990   3.9549997
  80.4279992  48.1724990   3.4639997  80.0459992  46.7454990   3.7919997
  80.5888843  47.4204537   3.8657695  93.8439992  52.9834990   0.3579997
  93.9169992  53.9224990   0.5279997  94.7489992  52.6784990   0.3019997
  93.9764170  53.0708294   0.3737045  76.8129992  49.7674990  12.7699997
  76.3119992  49.7394990  11.9549997  76.8189992  48.8624990  13.0799997
  76.7451690  49.6412234  12.7002770  76.5639992  52.5484990   9.6539997
  77.5099992  52.4034990   9.6349997  76.4509992  53.3324990  10.1909997
  76.6783578  52.6346708   9.7240300  94.7609992  53.2144990  15.3369997
  94.7119992  52.2584990  15.2989997  93.9349992  53.4814990  15.7379997
  94.6425096  53.1198416  15.3860698  85.7399992  52.7884990  14.2129997
  85.8269992  53.6144990  14.6879997  84.8759992  52.4584990  14.4619997
  85.6351944  52.8569871  14.3116558  86.1539992  56.5604990   4.0189997
  86.0789992  56.4394990   3.0719997  86.1869992  57.5094990   4.1369997
  86.1482083  56.6722639   3.9054973  79.8079992  55.3494990   5.7999997
  79.9599992  55.0014990   6.6779997  78.9569992  54.9924990   5.5439997
  79.7138344  55.2535891   5.8856851  89.2559992  55.7144990   1.0209997
  89.6309992  54.9704990   0.5499997  89.2599992  55.4444990   1.9389997
  89.3078969  55.5760920   1.0806475  88.9249992  55.6404990   3.7699997
  87.9899992  55.7404990   3.9489997  89.2049992  54.9304990   4.3489997
  88.8349471  55.5582944   3.8726678 100.9529992  28.2474990  86.6569997
 101.5179992  28.3694990  85.8939997 101.2709992  28.8854990  87.2959997
 101.0733430  28.3504448  86.6389094  91.9129992  44.7074990  15.8169997
  91.5059992  45.1874990  15.0959997  91.9539992  43.8014990  15.5089997
  91.8628403  44.6507989  15.6767253  79.0619992  51.0914990  13.8129997
  79.2779992  50.7294990  14.6729997  78.2069992  50.7164990  13.6039997
  78.9759082  50.9913377  13.9022396  81.6809992  39.5614990   9.8089997
  80.8189992  39.4744990   9.4009997  81.6589992  40.4174990  10.2369997
  81.5600557  39.6653078   9.8110202  86.3439992  39.2834990  13.1839997
  86.7639992  38.8684990  13.9369997  85.4109992  39.1044990  13.3009997
  86.2753736  39.2024921  13.3028950  89.6699992  43.0384990  14.0369997
  89.1559992  42.9134990  14.8349997  89.5149992  43.9514990  13.7929997
  89.5787802  43.1447433  14.1131504  90.4329992  47.8994990  -0.2020003
  90.4749992  47.6774990  -1.1320003  91.2819992  48.2984990  -0.0120003
  90.5535253  47.9230510  -0.3036196  86.0059992  41.7754990   0.4689997
  85.7519992  41.7944990   1.3909997  85.7489992  40.9044990   0.1669997
  85.9364508  41.6603292   0.5544786  81.7719992  44.5264990  10.9039997
  81.1299992  44.4864990  11.6129997  81.8089992  45.4534990  10.6659997
  81.6891659  44.6462540  10.9688463  81.7689992  44.7474990   5.8159997
  80.8759992  44.4074990   5.7569997  82.2199992  44.3704990   5.0599997
  81.7077185  44.6500220   5.7057698  87.3049992  45.1634990   4.6329997
  86.8959992  45.9784990   4.3409997  88.0249992  45.0234990   4.0189997
  87.3464439  45.2560383   4.5100098 107.2619992  33.7514990  87.3909997
 107.0209992  34.4134990  88.0389997 107.0639992  32.9164990  87.8159997
 107.2022662  33.7292704  87.5371008  86.4069992  45.3394990  16.1209997
  85.8439992  44.6344990  16.4419997  87.2329992  45.2184990  16.5889997
  86.4416674  45.2267176  16.2281734  88.3089992  44.6094990   7.4469997
  88.1139992  45.2154990   6.7319997  88.4909992  43.7764990   7.0129997
  88.3069195  44.5797936   7.2904079  79.5219992  44.8474990  12.7709997
  79.4839992  45.2474990  13.6399997  79.0309992  44.0304990  12.8609997
  79.4504374  44.7918228  12.9020980  82.8879992  42.2214990  -0.4300003
  82.4569992  41.7764990   0.2989997  82.1699992  42.5924990  -0.9430003
  82.7319176  42.2107063  -0.3995087  76.1299992  41.9634990   6.6219997
  76.7609992  41.9344990   7.3409997  76.5799992  41.5384990   5.8909997
  76.2771082  41.9021269   6.6216307  77.4039992  42.7094990   2.0459997
  77.8789992  43.3004990   1.4609997  76.6869992  43.2394990   2.3929997
  77.3720406  42.8621011   2.0128495  87.5729992  46.2474990  12.1179997
  87.8969992  45.6164990  11.4749997  87.1329992  45.7134990  12.7789997
  87.5578707  46.0888261  12.1193195  84.3509992  42.1754990   6.9019997
  83.4399992  42.2324990   7.1909997  84.8559992  42.1154990   7.7129997
  84.2946873  42.1751838   7.0511190  79.1789992  43.8044990   5.7289997
  78.2899992  43.9034990   5.3889997  79.4749992  42.9624990   5.3829997
  79.0974001  43.7042473   5.6357318  82.8319992  43.8044990   3.3859997
  83.7639992  43.9334990   3.5639997  82.6169992  44.4734990   2.7359997
  82.9304472  43.9125817   3.3224873 101.8329992  32.6474990  91.3739997
 101.5209992  33.4294990  91.8299997 101.1829992  32.4944990  90.6879997
 101.7024643  32.7338019  91.3436657  88.7559992  41.4104990  10.1659997
  88.0789992  41.5414990  10.8299997  88.2699992  41.2554990   9.3559997
  88.5977265  41.4074665  10.1473380  81.5059992  44.9984990   0.9519997
  80.9639992  44.6194990   0.2609997  82.3399992  45.1934990   0.5239997
  81.5444390  44.9729091   0.7994374  92.0429992  57.0814990  16.4429997
  92.2429992  57.5054990  15.6089997  92.6989992  57.4254990  17.0499997
  92.1589937  57.1859993  16.4108645  79.6409992  49.5554990  16.0509997
  80.3729992  49.8104990  16.6129997  78.8609992  49.7604990  16.5669997
  79.6356526  49.6180438  16.1975168  85.6709992  44.9624990   8.7889997
  86.2349992  44.4164990   8.2419997  85.5229992  44.4414990   9.5779997
  85.7283037  44.8171798   8.8207212  80.6729992  41.0994990   5.2079997
  80.3549992  40.1964990   5.1719997  81.4539992  41.1014990   4.6549997
  80.7351079  40.9762240   5.1282908  84.2969992  43.3514990  11.2029997
  83.4619992  43.8054990  11.3139997  84.8209992  43.6274990  11.9549997
  84.2536072  43.4508960  11.3198118  84.8409992  49.5644990   2.8879997
  84.0959992  49.0564990   2.5659997  84.7069992  49.6134990   3.8339997
  84.7209334  49.5016144   2.9718892  91.9909992  48.6974990  11.6749997
  92.6329992  49.1534990  11.1309997  91.1609992  48.8104990  11.2119997
  91.9666536  48.7751813  11.5379579  88.7389992  42.3784990   1.0869997
  87.7999992  42.4894990   0.9359997  89.0359992  43.2344990   1.3939997
  88.6506136  42.5094977   1.1078568 107.8119992  28.0114990  78.8259997
 108.3909992  28.1614990  79.5729997 108.2259992  28.4814990  78.1029997
 107.9473122  28.0956288  78.8305024  86.3609992  49.7484990  14.1249997
  86.0149992  49.3664990  14.9319997  86.1609992  50.6814990  14.1959997
  86.2865987  49.8224013  14.2450443  89.4569992  44.2454990   2.7479997
  90.3489992  44.1074990   3.0669997  89.5139992  45.0364990   2.2109997
  89.5867380  44.3334777   2.7190981  79.9659992  48.8594990   8.6579997
  80.7109992  48.8564990   8.0559997  80.0439992  48.0354990   9.1389997
  80.0783365  48.7477395   8.6407412  86.9669992  51.0224990   1.9129997
  86.6719992  51.8494990   2.2949997  86.2639992  50.4034990   2.1099997
  86.8316379  51.0519182   1.9918636  76.9739992  47.3194990  13.9729997
  77.1969992  46.9014990  14.8039997  76.3719992  46.7074990  13.5499997
  76.9231513  47.1794617  14.0296722  83.9909992  46.8364990  16.1859997
  83.6949992  46.6714990  15.2899997  84.9219992  46.6164990  16.1749997
  84.0764401  46.7841891  16.0620189  88.6109992  52.2104990  14.0749997
  87.7099992  52.3934990  13.8079997  88.6449992  52.4694990  14.9959997
  88.4923861  52.2705245  14.1629517  94.3419992  44.4544990   2.4429997
  93.7879992  44.0584990   1.7699997  94.4429992  45.3654990   2.1649997
  94.2798589  44.5233904   2.3133839  94.3049992  50.2554990  15.2799997
  93.4539992  50.4934990  14.9119997  94.8959992  50.2384990  14.5259997
  94.2683831  50.2857623  15.1278448  92.6369992  53.2404990   2.9079997
  92.2649992  52.4154990   3.2169997  92.9149992  53.0574990   2.0099997
  92.6235807  53.1027031   2.8290063  98.7529992  28.8454990  90.6029997
  98.8229992  29.4964990  91.3009997  97.8619992  28.9484990  90.2679997
  98.6421802  28.9484769  90.6532231  89.7979992  48.0484990   9.9289997
  88.8699992  47.8174990   9.9019997  90.2489992  47.2714990   9.5989997
  89.7318165  47.9117785   9.8806772  82.3409992  52.3774990   6.0619997
  82.8679992  53.1504990   5.8619997  81.4609992  52.6014990   5.7599997
  82.2942121  52.5137344   5.9937460  78.0959992  47.2394990   0.6489997
  78.7119992  47.8664990   1.0289997  77.2339992  47.5554990   0.9209997
  78.0637678  47.3679423   0.7377192  83.7679992  50.0404990   5.6379997
  83.5269992  50.9654990   5.6799997  83.0279992  49.5814990   6.0349997
  83.6349463  50.1050969   5.6974279  84.2829992  54.1894990  11.9529997
  84.6459992  55.0434990  11.7199997  84.8149992  53.8974990  12.6939997
  84.4045141  54.2668907  12.0212079  82.4509992  55.0614990   5.1839997
  81.5019992  55.1674990   5.2349997  82.8029992  55.8824990   5.5279997
  82.3685647  55.1870029   5.2374882  87.8269992  50.2884990  11.6539997
  87.4009992  50.0604990  12.4799997  88.4079992  49.5494990  11.4719997
  87.8472088  50.1574393  11.7424454  90.0299992  51.2174990   0.7279997
  90.3829992  50.8374990   1.5319997  89.0809992  51.1234990   0.8149997
  89.9500956  51.1527867   0.8498005  90.4859992  54.8404990  14.1229997
  89.8839992  54.2844990  13.6279997  90.7669992  55.5074990  13.4969997
  90.4415757  54.8545755  13.9705657  94.5329992  55.6964990   0.9289997
  95.2769992  56.2824990   0.7889997  93.8389992  56.2654990   1.2619997
  94.5409809  55.8535830   0.9548572 105.5379992  34.7474990  82.2619997
 106.0119992  35.0434990  83.0389997 104.9749992  35.4864990  82.0279997
 105.5268460  34.8878336  82.3367626  78.6079992  42.0734990  13.5309997
  77.7149992  42.4114990  13.4629997  78.5089992  41.2174990  13.9489997
  78.4724752  42.0040986  13.5781644  90.8959992  49.8894990   2.9549997
  90.6189992  49.1614990   3.5109997  91.8229992  50.0084990   3.1599997
  90.9834419  49.8059436   3.0588264  78.2589992  53.8774990  11.9659997
  78.4759992  52.9454990  11.9349997  78.5059992  54.1524990  12.8489997
  78.3220948  53.7870976  12.0811268  83.0579992  51.8994990   1.6309997
  83.2049992  51.3794990   2.4209997  83.0549992  52.8064990   1.9379997
  83.0777102  51.9508964   1.7805907  79.5109992  49.1514990   2.1419997
  78.8249992  49.5044990   2.7089997  80.0339992  49.9144990   1.8949997
  79.4878402  49.3028912   2.1861784  87.3419992  41.8144990  12.4209997
  88.0409992  41.8884990  13.0709997  86.9619992  40.9494990  12.5749997
  87.3862662  41.7077050  12.5307412  88.1269992  41.4664990   3.5179997
  88.3469992  41.9374990   2.7139997  88.6849992  41.8604990   4.1879997
  88.2326044  41.5842946   3.4985207  85.7959992  53.5964990   2.3809997
  84.9789992  54.0934990   2.4329997  86.3249992  54.0724990   1.7399997
  85.7558125  53.7287000   2.3015289  85.3269992  43.1944990   4.3529997
  86.1389992  43.6984990   4.3989997  85.0819992  43.0494990   5.2669997
  85.4051091  43.2439366   4.4828552  85.8629992  44.1804990  13.5369997
  85.9819992  44.7544990  14.2939997  86.5179992  43.4924990  13.6519997
  85.9678684  44.1660205  13.6561656 100.0719992  34.7184990  92.1379997
 100.0799992  34.5824990  91.1899997  99.1559992  34.6014990  92.3899997
  99.9492512  34.6840663  92.0423179  86.2109992  40.2754990   5.2909997
  85.8639992  40.8924990   5.9349997  86.8689992  40.7764990   4.8089997
  86.2524430  40.4276860   5.3140046  83.1339992  54.6404990   2.3619997
  83.2949992  55.4404990   1.8619997  82.9369992  54.9474990   3.2469997
  83.1293906  54.7913690   2.4132316  81.8679992  41.3384990   1.9779997
  81.7849992  42.2264990   2.3249997  82.7579992  41.0734990   2.2099997
  81.9769331  41.4241177   2.0568067  92.0669992  42.0874990  14.3719997
  91.1509992  42.3494990  14.2849997  92.4029992  42.0844990  13.4759997
  91.9868499  42.1230174  14.2388748  90.6689992  45.8374990   8.4679997
  89.8719992  45.4224990   8.1399997  91.1139992  45.1474990   8.9589997
  90.6200367  45.6873372   8.4894897  80.1269992  51.7654990   1.0379997
  80.7189992  52.4654990   1.3149997  80.5859992  51.3324990   0.3189997
  80.2701652  51.8027686   0.9786515  78.4429992  44.4304990   0.1539997
  78.3979992  45.3694990   0.3329997  77.5549992  44.1944990  -0.1150003
  78.3168166  44.5271698   0.1421507  91.7559992  55.0934990  10.0899997
  91.5999992  55.7724990   9.4329997  92.6879992  55.1654990  10.2929997
  91.8607328  55.1961586  10.0275529  79.2509992  39.2114990   8.8269997
  79.0219992  39.2704990   7.8999997  78.8079992  38.4204990   9.1339997
  79.1597387  39.1126412   8.7415223  78.1809992  53.1524990   4.9879997
  77.3489992  53.6244990   5.0149997  78.7269992  53.6624990   4.3889997
  78.1408710  53.2860317   4.9107570 111.5099992  19.7614990  78.6389997
 110.6099992  19.8994990  78.9339997 111.7619992  20.5924990  78.2369997
 111.4207355  19.8928200  78.6250539  77.4699992  55.7644990  16.3179997
  78.0099992  55.5484990  17.0779997  76.9879992  54.9594990  16.1279997
  77.4788485  55.6260463  16.3964870  82.0669992  54.6844990  17.9379997
  82.8349992  54.2254990  18.2789997  82.0459992  54.4584990  17.0079997
  82.1692135  54.5911680  17.8589473  86.1589992  54.1924990  -0.6870003
  85.5149992  53.5614990  -0.3650003  86.9209992  53.6614990  -0.9180003
  86.1738708  54.0343171  -0.6741539  88.6439992  53.0644990  16.6669997
  88.2929992  52.2074990  16.9099997  89.3699992  53.2064990  17.2739997
  88.6941590  52.9665189  16.7822889  90.7629992  54.0094990  -0.4530003
  91.0459992  53.2144990  -0.0000003  91.5029992  54.2424990  -1.0140003
  90.9017295  53.9322349  -0.4668531  77.3769992  49.5754990  17.2719997
  77.5209992  48.6734990  16.9859997  76.6039992  49.8614990  16.7849997
  77.2922266  49.4906548  17.1670102  81.7179992  49.9184990  -0.5950003
  81.7819992  49.1244990  -0.0650003  82.3709992  49.8004990  -1.2850003
  81.8150483  49.7937496  -0.6156593  84.0319992  49.5444990  16.7049997
  83.7039992  49.8154990  15.8479997  84.1839992  48.6034990  16.6169997
  84.0076412  49.4544058  16.5757804  89.7669992  49.4604990  14.0879997
  90.5119992  50.0494990  13.9689997  89.0089992  50.0424990  14.1509997
  89.7665289  49.6197067  14.0802292  78.2089992  46.7754990  16.6919997
  78.6169992  45.9184990  16.5709997  77.9489992  46.7894990  17.6129997
  78.2297082  46.6600596  16.7999469  99.5759992  28.5484990  80.6129997
  99.2839992  29.3164990  80.1219997  98.9019992  27.8894990  80.4499997
  99.4448843  28.5644537  80.5237695  82.8669992  47.8914990   1.7109997
  82.4079992  47.4074990   2.3959997  83.1219992  47.2224990   1.0749997
  82.8385997  47.7348491   1.7188734  82.1559992  45.7844990  14.0669997
  81.5379992  46.4584990  14.3469997  82.4999992  46.1054990  13.2329997
  82.1178078  45.9202298  13.9926609  83.9379992  46.1344990  -0.0270003
  83.7579992  45.9794990  -0.9540003  84.8879992  46.2424990   0.0179997
  84.0417804  46.1278821  -0.1478034  87.1759992  48.2554990  17.3439997
  88.1289992  48.3394990  17.3169997  87.0159992  47.5434990  17.9629997
  87.2847320  48.1707292  17.4239933  93.3279992  48.4884990  -0.5810003
  93.0549992  48.0644990  -1.3940003  93.3679992  49.4204990  -0.7980003
  93.2960201  48.5563523  -0.7216452  82.4959992  43.1394990  15.1489997
  82.6459992  42.4104990  14.5469997  82.4979992  43.9164990  14.5899997
  82.5167967  43.1447720  14.9910523  82.9079992  41.5084990  12.6419997
  83.4439992  41.9604990  11.9899997  82.0559992  41.4004990  12.2189997
  82.8661795  41.5557444  12.4956211  84.4899992  46.9484990  12.8809997
  85.2409992  46.7924990  12.3079997  84.1509992  47.8004990  12.6059997
  84.5469587  47.0423149  12.7654060  88.9059992  44.7634990  17.9099997
  89.0979992  43.8324990  17.7979997  89.7629992  45.1884990  17.8989997
  89.0482176  44.6935090  17.8931757  90.2219992  47.5524990  15.9869997
  89.9409992  48.2614990  15.4089997  91.1649992  47.4794990  15.8359997
  90.3109272  47.6396704  15.8874976  95.6689992  30.9114990  89.4279997
  95.1679992  30.8834990  88.6129997  95.6749992  30.0064990  89.7379997
  95.6011690  30.7852234  89.3582770  80.9739992  44.3374990  17.0599997
  80.2069992  43.8044990  16.8499997  81.6529992  44.0274990  16.4609997
  80.9608292  44.2226360  16.9502693  83.7139992  38.9654990  13.0729997
  83.6159992  39.9114990  12.9679997  82.9709992  38.5924990  12.5969997
  83.6002123  39.0446811  12.9943204  84.9779992  43.2864990  16.6369997
  84.7419992  43.0674990  17.5379997  84.1949992  43.0794990  16.1269997
  84.8398382  43.2285340  16.6913991  87.6939992  42.4144990  15.7119997
  86.7459992  42.4464990  15.8439997  88.0059992  41.7884990  16.3659997
  87.6065293  42.3342934  15.8184130  89.3279992  41.0484990  17.7169997
  89.2309992  40.0964990  17.7119997  89.0059992  41.3164990  18.5779997
  89.2712468  40.9545896  17.8326192  79.1549992  42.2574990  16.7649997
  79.3659992  41.5514990  16.1549997  79.0429992  41.8204990  17.6089997
  79.1687668  42.1016619  16.7955445  83.9359992  38.2594990  15.7439997
  84.6469992  37.6194990  15.7299997  83.8349992  38.5254990  14.8309997
  84.0196858  38.2078591  15.6185501  84.2889992  39.9414990  17.7979997
  84.1579992  39.4664990  16.9779997  83.6899992  40.6864990  17.7429997
  84.1900829  39.9770949  17.6781823  83.8359992  56.8244990   0.9739997
  84.7689992  56.9824990   1.1179997  83.5709992  57.5004990   0.3489997
  83.9279846  56.9374567   0.9092930  77.4039992  51.4614990   0.4569997
  78.3179992  51.5404990   0.7299997  77.4109992  50.7744990  -0.2090003
  77.5300624  51.3794074   0.4043045  95.4199992  33.6924990  86.3119997
  96.3659992  33.5474990  86.2929997  95.3069992  34.4764990  86.8489997
  95.5343578  33.7786708  86.3820300  76.0529992  56.8544990   5.5339997
  75.4059992  56.3924990   5.0019997  76.4079992  56.1824990   6.1169997
  76.0123741  56.7004785   5.5399157  76.9229992  54.9344990   7.3389997
  76.5889992  54.0544990   7.5109997  77.1449992  55.2804990   8.2039997
  76.9072565  54.8607410   7.4794263  94.4719992  55.7444990  10.3199997
  94.4499992  55.9294990  11.2579997  95.1619992  56.3124990   9.9789997
  94.5623383  55.8467104  10.4024580  94.0349992  55.3114990  13.2409997
  93.5479992  54.5754990  12.8699997  94.5839992  54.9174990  13.9189997
  94.0426101  55.1576267  13.2819034  92.4859992  51.1014990  17.8789997
  91.6199992  50.9964990  18.2739997  92.8619992  51.8594990  18.3259997
  92.4184940  51.1896141  17.9933958  93.7869992  49.3574990   3.3939997
  94.6369992  49.7784990   3.5209997  93.7919992  48.6174990   4.0009997
  93.9041143  49.3151106   3.4934732  94.1809992  47.4114990   5.2169997
  93.4549992  46.9314990   5.6149997  94.7619992  47.6164990   5.9489997
  94.1602504  47.3735592   5.3704199  93.9399992  50.1964990  10.1649997
  94.7739992  49.8184990   9.8839997  94.0519992  51.1394990  10.0459997
  94.0691917  50.2722954  10.1104844  92.4259992  53.0744990  12.4719997
  91.7789992  53.3994990  13.0969997  91.9089992  52.6334990  11.7979997
  92.2674112  53.0594133  12.4665272  94.4489992  47.3124990   1.6079997
  93.9279992  47.6684990   0.8899997  94.4159992  47.9874990   2.2869997
  94.3730955  47.4525023   1.6012634 113.6169992  34.3584990  91.9939997
 113.5679992  33.4024990  91.9569997 112.7909992  34.6254990  92.3959997
 113.4985767  34.2638841  92.0433133  92.7979992  44.5514990   0.1589997
  92.8949992  45.2184990  -0.5210003  92.6579992  43.7364990  -0.3220003
  92.7923407  44.5325670   0.0008312  91.9679992  45.9324990   5.7799997
  91.8179992  44.9874990   5.7599997  91.6139992  46.2134990   6.6239997
  91.8996351  45.8411656   5.8913202  77.0029992  48.0104990   9.7909997
  77.1869992  47.9284990   8.8549997  77.8519992  47.8864990  10.2139997
  77.1430132  47.9825066   9.7201460  92.8239992  47.9024990  15.4189997
  93.4069992  47.1674990  15.6109997  93.3879992  48.6744990  15.4659997
  92.9799781  47.9063156  15.4516146  94.3209992  45.8054990  16.1039997
  93.4569992  45.4264990  15.9379997  94.9249992  45.0664990  16.0289997
  94.2845394  45.6538378  16.0711778  91.6779992  43.5144990   4.2429997
  91.9579992  42.6074990   4.3669997  92.4369992  43.9484990   3.8539997
  91.8189258  43.4490935   4.2073691  92.2899992  44.0964990   9.6789997
  93.2229992  44.3084990   9.6439997  92.0549992  44.1974990  10.6009997
  92.3859517  44.1391844   9.7989113  92.3189992  44.8334990  12.4549997
  91.4759992  45.1014990  12.8199997  92.7619992  45.6554990  12.2439997
  92.2634035  44.9813351  12.4764770  76.5999992  43.2804990  15.9309997
  77.5199992  43.1584990  16.1679997  76.1509992  42.5304990  16.3209997
  76.6650500  43.1624576  16.0161016  94.6019992  38.8134990  17.8079997
  94.9519992  38.1594990  17.2019997  94.7489992  39.6504990  17.3679997
  94.6697192  38.8372545  17.6656712 104.5959992  33.9324990  90.8699997
 104.6829992  34.7584990  91.3449997 103.7319992  33.6024990  91.1189997
 104.4911944  34.0009871  90.9686558  92.2919992  40.7774990   4.2909997
  92.4739992  40.3284990   5.1159997  91.6919992  40.1934990   3.8269997
  92.2358187  40.6370563   4.3412721  77.8219992  41.5934990   8.8229997
  78.2669992  40.8014990   9.1249997  78.2879992  42.3094990   9.2529997
  77.9459718  41.5819546   8.9225247  76.1259992  44.5924990   9.8919997
  76.6179992  44.3714990   9.1009997  76.4879992  45.4324990  10.1729997
  76.2422923  44.6758480   9.8217389  94.1219992  40.9224990  16.1569997
  93.2049992  41.1934990  16.1209997  94.2449992  40.3874990  15.3729997
  94.0130828  40.8872711  16.0460767  94.1579992  40.8454990   0.8189997
  94.5709992  40.1244990   0.3439997  94.8399992  41.5144990   0.8769997
  94.3066060  40.8373741   0.7619233  76.4389992  40.8504990   3.9459997
  75.5139992  41.0584990   3.8169997  76.8929992  41.3344990   3.2559997
  76.3736298  40.9444311   3.8350433  91.2099992  55.8344990   5.8919997
  91.8619992  55.4864990   5.2839997  91.7209992  56.3224990   6.5379997
  91.3682872  55.8528248   5.8960964  76.4029992  39.5884990  12.2899997
  75.7379992  39.3424990  12.9329997  75.9599992  40.2104990  11.7129997
  76.2521168  39.6389225  12.2999830  78.5949992  52.7634990  16.4349997
  77.7739992  52.9384990  15.9739997  78.3429992  52.6904990  17.3549997
  78.4485594  52.7775728  16.4963593  81.5489992  53.7374990  12.6929997
  81.1239992  54.5474990  12.4109997  82.4529992  53.8234990  12.3909997
  81.6130706  53.8599557  12.6135836 105.0099992  37.7044990  80.6759997
 104.9349992  37.5834990  79.7299997 105.0429992  38.6534990  80.7949997
 105.0041862  37.8162492  80.5624840  85.8599992  55.1364990  15.6529997
  86.0449992  54.8034990  16.5309997  86.7069992  55.4464990  15.3309997
  85.9997291  55.1328214  15.7296140  88.2049992  56.4224990  14.8969997
  88.8819992  55.7894990  14.6569997  88.5269992  56.8234990  15.7039997
  88.3411618  56.3901147  14.9732802  93.1229992  39.0124990  13.9759997
  92.3099992  39.3374990  13.5889997  93.3559992  38.2514990  13.4429997
  93.0431347  38.9541891  13.8509824  78.9509992  56.9944990  12.7409997
  78.2299992  57.4344990  12.2899997  78.5849992  56.7434990  13.5889997
  78.8029632  57.0207235  12.7939649  81.4179992  56.5944990  11.7699997
  80.5529992  56.6664990  12.1739997  81.3629992  57.1414990  10.9869997
  81.2922289  56.6783242  11.7193749  86.1289992  56.4824990  10.9459997
  85.6719992  57.0114990  10.2919997  86.2909992  57.0854990  11.6709997
  86.0883919  56.6363990  10.9545740  88.4559992  55.3604990  11.8909997
  87.5519992  55.5254990  11.6249997  88.8849992  56.2134990  11.8249997
  88.3902017  55.4984184  11.8456495  91.0599992  56.9304990  12.1859997
  90.8789992  57.8464990  11.9749997  91.2369992  56.5194990  11.3389997
  91.0591377  57.0003365  12.0427178  78.3659992  55.6174990   9.6509997
  78.3469992  55.1914990  10.5079997  79.1699992  55.2984990   9.2419997
  78.4721393  55.5160297   9.7130155  80.5069992  54.3274990   8.3059997
  80.2879992  53.4104990   8.4759997  81.3309992  54.4674990   8.7719997
  80.5884702  54.2210523   8.3922510  98.6639992  36.4934990  82.4569997
  98.8159992  36.1454990  83.3359997  97.8129992  36.1364990  82.2019997
  98.5697899  36.3976749  82.5427322  83.0439992  54.7974990   9.1549997
  83.2569992  53.9094990   8.8679997  83.1089992  54.7624990  10.1089997
  83.0819149  54.6713338   9.2447351  86.5529992  40.4614990   8.2989997
  85.8779992  39.8314990   8.5549997  87.1169992  39.9774990   7.6959997
  86.5369363  40.3098886   8.2524810  91.6949992  38.5684990   8.4119997
  92.2989992  39.1164990   7.9099997  90.8259992  38.8874990   8.1709997
  91.6600419  38.6865628   8.3107741  93.4219992  39.7074990   6.7449997
  94.0339992  39.1934990   6.2179997  93.8049992  40.5844990   6.7679997
  93.5573867  39.7557613   6.6760888  78.8789992  39.0954990   6.1209997
  78.1019992  38.8604990   5.6139997  79.4099992  38.2984990   6.1299997
  78.8443735  38.9556462   6.0528090  77.7159992  38.8934990   1.9249997
  78.1549992  39.5044990   1.3329997  77.0819992  39.4314990   2.3989997
  77.6903859  39.0499076   1.9080287  83.4589992  39.0214990   5.9339997
  84.3329992  39.4104990   5.9049997  83.3229992  38.8064990   6.8569997
  83.5601953  39.0456654   6.0547599  89.0149992  39.0514990   7.5839997
  89.0919992  39.1474990   6.6339997  88.7399992  38.1444990   7.7119997
  88.9883233  38.9419093   7.4713665  90.3689992  39.0774990   3.2759997
  89.6659992  39.6924990   3.0659997  89.9239992  38.2404990   3.4069997
  90.2126550  39.0484679   3.2649819  77.6169992  54.8414990   2.8219997
  76.9319992  54.8034990   2.1549997  77.6199992  55.7534990   3.1099997
  77.5236806  54.9596669   2.7696961 108.1119992  36.8584990  77.6789997
 108.4869992  36.1144990  77.2079997 108.1159992  36.5884990  78.5969997
 108.1638969  36.7200920  77.7386475  79.5769992  40.8094990   0.3669997
  80.0679992  40.1794990  -0.1600003  80.1999992  41.1054990   1.0299997
  79.7285304  40.7632387   0.3844922  84.6029992  41.1024990   2.8239997
  84.7809992  40.4554990   3.5069997  84.5489992  41.9364990   3.2909997
  84.6200678  41.1266615   2.9806283  86.4809992  56.0504990   1.2199997
  87.3469992  56.4174990   1.0419997  86.2339992  55.6114990   0.4059997
  86.5661853  56.0414021   1.0855813  93.1899992  55.6134990   3.8989997
  92.9959992  54.8654990   3.3339997  93.1509992  56.3714990   3.3159997
  93.1581645  55.6135797   3.7428131  78.8369992  39.6094990  15.6389997
  78.4709992  38.8434990  16.0809997  79.7499992  39.6384990  15.9249997
  78.9103172  39.5085335  15.7381872  80.8099992  38.9594990  17.1739997
  81.7089992  38.6854990  16.9899997  80.4239992  38.2174990  17.6389997
  80.8807307  38.8217207  17.2117080  79.4349992  55.7614990  -0.1530003
  79.1669992  56.0474990   0.7209997  80.2059992  55.2154990  -0.0000003
  79.5025926  55.7267790  -0.0128812  89.2309992  38.2924990  17.3569997
  89.3079992  37.8664990  18.2099997  90.1249992  38.3054990  17.0139997
  89.3623263  38.2359345  17.4274366  92.4079992  54.3644990  16.0489997
  91.6259992  54.1784990  15.5289997  92.3359992  55.2944990  16.2659997
  92.2912975  54.4646973  16.0071822 106.8139992  48.2514990   6.0799997
 106.9029992  49.1954990   5.9469997 106.1749992  47.9764990   5.4219997
 106.7398378  48.3433846   5.9729258 107.7809992  36.7844990  80.4279997
 106.8459992  36.8844990  80.6069997 108.0609992  36.0744990  81.0059997
 107.6909270  36.7022300  80.5305984 105.7469992  47.5064990   9.4989997
 105.7079992  46.8604990  10.2039997 105.4239992  47.0394990   8.7269997
 105.6980469  47.3550005   9.4912803  98.1149992  47.1204990  11.0919997
  98.1559992  46.4954990  11.8149997  98.8179992  47.7444990  11.2739997
  98.2156223  47.1192318  11.2156164 109.4529992  50.4454990   7.7999997
 109.0119992  49.7254990   8.2509997 109.4399992  51.1664990   8.4299997
 109.3909215  50.4444303   7.9468088  99.0389992  51.5704990   9.6269997
  98.6689992  50.7684990   9.2569997  99.9799992  51.4024990   9.6729997
  99.1155984  51.4379649   9.5825586  95.6489992  45.2304990   5.0189997
  95.2009992  46.0764990   5.0009997  95.0879992  44.6514990   4.5039997
  95.5118546  45.2679004   4.9468874  96.3589992  47.3924990   7.1449997
  96.5729992  46.6224990   7.6719997  97.0969992  47.4824990   6.5419997
  96.4880073  47.2993546   7.1355786 106.5639992  55.5494990   8.0119997
 107.1839992  54.8734990   7.7389997 106.3559992  55.3314990   8.9209997
 106.6207679  55.4275032   8.0974518 104.1359992  49.9384990   9.9049997
 104.4399992  49.2524990   9.3099997 104.8579992  50.0574990  10.5229997
 104.2751240  49.8607325   9.9070941 112.7989992  41.5404990  10.7649997
 112.8479992  42.1504990  11.5009997 113.2249992  42.0014990  10.0419997
 112.8632851  41.6863266  10.7680532 107.2769992  44.3324990  10.2319997
 107.4189992  43.3864990  10.2519997 107.1709992  44.5394990   9.3039997
 107.2821051  44.2309706  10.1092249 110.7689992  25.8514990  92.4739997
 110.3619992  26.3314990  91.7539997 110.8099992  24.9454990  92.1669997
 110.7187178  25.7948609  92.3337441 100.4319992  42.4344990   7.5049997
 100.4749992  43.2944990   7.0859997  99.9739992  41.8814990   6.8709997
 100.3760163  42.4774174   7.3620604 108.1539992  42.5654990   5.9049997
 108.7999992  42.2364990   6.5299997 108.6639992  43.0824990   5.2829997
 108.3114289  42.5904333   5.9063681  97.0519992  44.8314990   8.2669997
  97.7059992  44.2814990   8.6989997  97.0759992  44.5574990   7.3499997
  97.1447199  44.7192178   8.2021650 102.2079992  46.3814990   7.4819997
 102.8239992  45.8544990   7.9909997 101.6219992  45.7414990   7.0779997
 102.2130652  46.2228919   7.4970277 113.1909992  43.0184990  13.0009997
 112.5019992  43.6764990  12.9059997 113.2059992  42.8204990  13.9379997
 113.0987756  43.0817614  13.1145795  99.2419992  41.3524990  11.5789997
  99.0229992  41.8824990  10.8119997  98.5739992  41.5784990  12.2259997
  99.1216975  41.4555979  11.5615123 106.6109992  50.8524990   5.1229997
 106.3149992  50.5294990   4.2709997 106.2869992  51.7524990   5.1639997
 106.5267458  50.9299678   5.0120598 101.8109992  49.0274990  11.8659997
 101.0709992  49.6264990  11.9699997 102.5249992  49.5814990  11.5499997
 101.8063146  49.1842611  11.8375150 109.9179992  41.8564990   7.8859997
 109.7029992  41.0904990   8.4189997 110.5739992  42.3284990   8.3989997
 109.9772673  41.8155739   8.0281972  98.8359992  43.2444990   9.5309997
  99.4489992  43.8774990   9.9039997  99.3479992  42.7724990   8.8749997
  98.9891933  43.2673380   9.4933477  97.9179992  32.2354990  90.4709997
  98.1339992  31.8734990  91.3309997  97.0629992  31.8604990  90.2609997
  97.8319349  32.1352914  90.5602134 100.2179992  50.9924990  12.6529997
 100.2129992  51.8714990  12.2749997  99.3649992  50.9084990  13.0779997
 100.1019199  51.1015901  12.6586942  96.3399992  50.6634990   3.4349997
  96.0679992  50.8924990   2.5459997  96.3849992  51.5004990   3.8959997
  96.3088360  50.8081034   3.3756186 109.9649992  52.2844990  10.1479997
 109.0229992  52.3434990  10.3099997 110.2409992  53.1904990  10.0109997
 109.8735865  52.4150299  10.1516174 110.2649992  40.5714990  11.5649997
 109.5289992  41.1814990  11.5279997 110.9489992  40.9864990  11.0389997
 110.2565367  40.7112562  11.4888156 103.2679992  38.6574990   9.0309997
 103.1509992  37.7094990   8.9769997 102.4129992  38.9904990   9.3039997
 103.1363691  38.5725842   9.0605072 108.2169992  54.0654990   6.7729997
 108.6419992  53.3584990   6.2879997 108.5339992  54.8674990   6.3559997
 108.3180266  54.0770201   6.6502461 109.3759992  51.9664990   5.2819997
 109.1189992  51.2764990   4.6699997 109.4469992  51.5234990   6.1269997
 109.3504322  51.8121568   5.3125372 111.0619992  50.5334990  13.7589997
 111.2019992  49.9414990  13.0199997 111.2299992  51.4064990  13.4029997
 111.1038734  50.5704041  13.6096937 105.5349992  47.4954990   3.5319997
 104.8229992  48.0304990   3.1799997 106.2259992  47.5504990   2.8719997
 105.5309704  47.5761663   3.3945797 105.5889992  45.9524990   0.5699997
 106.2899992  45.9754990   1.2219997 105.8909992  45.3244990  -0.0860003
 105.7258202  45.8707223   0.5705591 100.5369992  20.7054990  86.4669997
  99.6749992  20.6184990  86.0589997 100.5149992  21.5614990  86.8939997
 100.4160953  20.8093558  86.4689262 112.9039992  46.8734990  11.8249997
 112.2519992  47.5674990  11.9139997 113.3689992  47.0834990  11.0149997
 112.8775357  46.9969544  11.7277056 108.9409992  47.7044990   4.4829997
 108.2089992  47.9334990   5.0559997 109.3879992  46.9914990   4.9379997
 108.9012753  47.6393984   4.6229698 108.8379992  45.8794990  13.5509997
 108.9179992  46.6424990  14.1229997 108.2369992  46.1584990  12.8609997
 108.7676547  46.0217468  13.5360029 100.5859992  48.3354990   6.3659997
 100.2559992  47.9644990   5.5479997 101.1739992  47.6644990   6.7129997
 100.6203182  48.1940648   6.3009898 101.9529992  51.7634990   9.0469997
 101.8579992  51.1844990   8.2909997 102.6819992  51.3924990   9.5429997
 102.0386011  51.6340572   9.0106011 100.9529992  47.1034990   9.9989997
 101.5179992  47.2254990   9.2369997 101.2709992  47.7414990  10.6379997
 101.0733619  47.2064388   9.9810019 107.2619992  52.6074990  10.7329997
 107.0209992  53.2694990  11.3809997 107.0639992  51.7724990  11.1579997
 107.2022662  52.5852704  10.8791008 101.8329992  51.5034990  14.7169997
 101.5209992  52.2854990  15.1719997 101.1829992  51.3504990  14.0309997
 101.7024858  51.5897882  14.6865344 107.8119992  46.8674990   2.1689997
 108.3909992  47.0174990   2.9149997 108.2259992  47.3374990   1.4449997
 107.9473358  46.9515966   2.1733935  98.7529992  47.7014990  13.9449997
  98.8229992  48.3524990  14.6439997  97.8619992  47.8044990  13.6099997
  98.6421690  47.8044261  13.9953026 105.1999992  20.4274990  89.8409997
 105.6199992  20.0124990  90.5939997 104.2669992  20.2484990  89.9579997
 105.1313736  20.3464921  89.9598950 105.5379992  53.6034990   5.6039997
 106.0119992  53.8994990   6.3809997 104.9749992  54.3424990   5.3709997
 105.5267890  53.7438047   5.6788084 100.0719992  53.5744990  15.4799997
 100.0799992  53.4384990  14.5329997  99.1559992  53.4574990  15.7319997
  99.9492528  53.5400475  15.3843226 111.5099992  38.6174990   1.9809997
 110.6099992  38.7554990   2.2769997 111.7619992  39.4484990   1.5799997
 111.4207727  38.7488705   1.9672935  99.5759992  47.4044990   3.9549997
  99.2839992  48.1724990   3.4639997  98.9019992  46.7454990   3.7919997
  99.4448843  47.4204537   3.8657695 112.6999992  52.9834990   0.3579997
 112.7729992  53.9224990   0.5279997 113.6049992  52.6784990   0.3019997
 112.8324170  53.0708294   0.3737045  95.6689992  49.7674990  12.7699997
  95.1679992  49.7394990  11.9549997  95.6749992  48.8624990  13.0799997
  95.6011690  49.6412234  12.7002770  95.4199992  52.5484990   9.6539997
  96.3659992  52.4034990   9.6349997  95.3069992  53.3324990  10.1909997
  95.5343578  52.6346708   9.7240300 113.6169992  53.2144990  15.3369997
 113.5679992  52.2584990  15.2989997 112.7909992  53.4814990  15.7379997
 113.4985096  53.1198416  15.3860698 104.5959992  52.7884990  14.2129997
 104.6829992  53.6144990  14.6879997 103.7319992  52.4584990  14.4619997
 104.4911944  52.8569871  14.3116558 105.0099992  56.5604990   4.0189997
 104.9349992  56.4394990   3.0719997 105.0429992  57.5094990   4.1369997
 105.0042083  56.6722639   3.9054973 108.5259992  24.1824990  90.6949997
 108.0119992  24.0574990  91.4919997 108.3709992  25.0954990  90.4499997
 108.4346643  24.2887068  90.7710624  98.6639992  55.3494990   5.7999997
  98.8159992  55.0014990   6.6779997  97.8129992  54.9924990   5.5439997
  98.5698344  55.2535891   5.8856851 108.1119992  55.7144990   1.0209997
 108.4869992  54.9704990   0.5499997 108.1159992  55.4444990   1.9389997
 108.1638969  55.5760920   1.0806475 107.7809992  55.6404990   3.7699997
 106.8459992  55.7404990   3.9489997 108.0609992  54.9304990   4.3489997
 107.6909471  55.5582944   3.8726678 110.7689992  44.7074990  15.8169997
 110.3619992  45.1874990  15.0959997 110.8099992  43.8014990  15.5089997
 110.7188403  44.6507989  15.6767253  97.9179992  51.0914990  13.8129997
  98.1339992  50.7294990  14.6729997  97.0629992  50.7164990  13.6039997
  97.8319082  50.9913377  13.9022396 100.5369992  39.5614990   9.8089997
  99.6749992  39.4744990   9.4009997 100.5149992  40.4174990  10.2369997
 100.4160557  39.6653078   9.8110202 105.1999992  39.2834990  13.1839997
 105.6199992  38.8684990  13.9369997 104.2669992  39.1044990  13.3009997
 105.1313736  39.2024921  13.3028950 108.5259992  43.0384990  14.0369997
 108.0119992  42.9134990  14.8349997 108.3709992  43.9514990  13.7929997
 108.4347802  43.1447433  14.1131504 109.2889992  47.8994990  -0.2020003
 109.3309992  47.6774990  -1.1320003 110.1379992  48.2984990  -0.0120003
 109.4095253  47.9230510  -0.3036196 104.8619992  41.7754990   0.4689997
 104.6079992  41.7944990   1.3909997 104.6049992  40.9044990   0.1669997
 104.7924508  41.6603292   0.5544786 100.6279992  25.6704990  87.5619997
  99.9859992  25.6304990  88.2709997 100.6649992  26.5974990  87.3239997
 100.5451659  25.7902540  87.6268463 100.6279992  44.5264990  10.9039997
  99.9859992  44.4864990  11.6129997 100.6649992  45.4534990  10.6659997
 100.5451659  44.6462540  10.9688463 100.6249992  44.7474990   5.8159997
  99.7319992  44.4074990   5.7569997 101.0759992  44.3704990   5.0599997
 100.5637185  44.6500220   5.7057698 106.1609992  45.1634990   4.6329997
 105.7519992  45.9784990   4.3409997 106.8809992  45.0234990   4.0189997
 106.2024439  45.2560383   4.5100098 105.2629992  45.3394990  16.1209997
 104.6999992  44.6344990  16.4419997 106.0889992  45.2184990  16.5889997
 105.2976674  45.2267176  16.2281734 107.1649992  44.6094990   7.4469997
 106.9699992  45.2154990   6.7319997 107.3469992  43.7764990   7.0129997
 107.1629195  44.5797936   7.2904079  98.3779992  44.8474990  12.7709997
  98.3399992  45.2474990  13.6399997  97.8869992  44.0304990  12.8609997
  98.3064374  44.7918228  12.9020980 101.7439992  42.2214990  -0.4300003
 101.3129992  41.7764990   0.2989997 101.0259992  42.5924990  -0.9430003
 101.5879176  42.2107063  -0.3995087  94.9859992  41.9634990   6.6219997
  95.6169992  41.9344990   7.3409997  95.4359992  41.5384990   5.8909997
  95.1331082  41.9021269   6.6216307  96.2599992  42.7094990   2.0459997
  96.7349992  43.3004990   1.4609997  95.5429992  43.2394990   2.3929997
  96.2280406  42.8621011   2.0128495 106.4289992  46.2474990  12.1179997
 106.7529992  45.6164990  11.4749997 105.9889992  45.7134990  12.7789997
 106.4138707  46.0888261  12.1193195 100.6249992  25.8914990  82.4739997
  99.7319992  25.5514990  82.4149997 101.0759992  25.5144990  81.7179997
 100.5637185  25.7940220  82.3637698 103.2069992  42.1754990   6.9019997
 102.2959992  42.2324990   7.1909997 103.7119992  42.1154990   7.7129997
 103.1506873  42.1751838   7.0511190  98.0349992  43.8044990   5.7289997
  97.1459992  43.9034990   5.3889997  98.3309992  42.9624990   5.3829997
  97.9534001  43.7042473   5.6357318 101.6879992  43.8044990   3.3859997
 102.6199992  43.9334990   3.5639997 101.4729992  44.4734990   2.7359997
 101.7864472  43.9125817   3.3224873 107.6119992  41.4104990  10.1659997
 106.9349992  41.5414990  10.8299997 107.1259992  41.2554990   9.3559997
 107.4537265  41.4074665  10.1473380 100.3619992  44.9984990   0.9519997
  99.8199992  44.6194990   0.2609997 101.1959992  45.1934990   0.5239997
 100.4004390  44.9729091   0.7994374 110.8989992  57.0814990  16.4429997
 111.0989992  57.5054990  15.6089997 111.5549992  57.4254990  17.0499997
 111.0149937  57.1859993  16.4108645  98.4969992  49.5554990  16.0509997
  99.2289992  49.8104990  16.6129997  97.7169992  49.7604990  16.5669997
  98.4916526  49.6180438  16.1975168 104.5269992  44.9624990   8.7889997
 105.0909992  44.4164990   8.2419997 104.3789992  44.4414990   9.5779997
 104.5843037  44.8171798   8.8207212  99.5289992  41.0994990   5.2079997
  99.2109992  40.1964990   5.1719997 100.3099992  41.1014990   4.6549997
  99.5911079  40.9762240   5.1282908 103.1529992  43.3514990  11.2029997
 102.3179992  43.8054990  11.3139997 103.6769992  43.6274990  11.9549997
 103.1096072  43.4508960  11.3198118 106.1609992  26.3074990  81.2909997
 105.7519992  27.1224990  80.9989997 106.8809992  26.1674990  80.6759997
 106.2023946  26.3999963  81.1679616 103.6969992  49.5644990   2.8879997
 102.9519992  49.0564990   2.5659997 103.5629992  49.6134990   3.8339997
 103.5769334  49.5016144   2.9718892 110.8469992  48.6974990  11.6749997
 111.4889992  49.1534990  11.1309997 110.0169992  48.8104990  11.2119997
 110.8226536  48.7751813  11.5379579 107.5949992  42.3784990   1.0869997
 106.6559992  42.4894990   0.9359997 107.8919992  43.2344990   1.3939997
 107.5066136  42.5094977   1.1078568 105.2169992  49.7484990  14.1249997
 104.8709992  49.3664990  14.9319997 105.0169992  50.6814990  14.1959997
 105.1425987  49.8224013  14.2450443 108.3129992  44.2454990   2.7479997
 109.2049992  44.1074990   3.0669997 108.3699992  45.0364990   2.2109997
 108.4427380  44.3334777   2.7190981  98.8219992  48.8594990   8.6579997
  99.5669992  48.8564990   8.0559997  98.8999992  48.0354990   9.1389997
  98.9343365  48.7477395   8.6407412 105.8229992  51.0224990   1.9129997
 105.5279992  51.8494990   2.2949997 105.1199992  50.4034990   2.1099997
 105.6876379  51.0519182   1.9918636  95.8299992  47.3194990  13.9729997
  96.0529992  46.9014990  14.8039997  95.2279992  46.7074990  13.5499997
  95.7791513  47.1794617  14.0296722 102.8469992  46.8364990  16.1859997
 102.5509992  46.6714990  15.2899997 103.7779992  46.6164990  16.1749997
 102.9324401  46.7841891  16.0620189 107.4669992  52.2104990  14.0749997
 106.5659992  52.3934990  13.8079997 107.5009992  52.4694990  14.9959997
 107.3483861  52.2705245  14.1629517 105.2629992  26.4834990  92.7789997
 104.6999992  25.7784990  93.0989997 106.0889992  26.3624990  93.2459997
 105.2976423  26.3705614  92.8860168 113.1979992  44.4544990   2.4429997
 112.6439992  44.0584990   1.7699997 113.2989992  45.3654990   2.1649997
 113.1358589  44.5233904   2.3133839 113.1609992  50.2554990  15.2799997
 112.3099992  50.4934990  14.9119997 113.7519992  50.2384990  14.5259997
 113.1243831  50.2857623  15.1278448 111.4929992  53.2404990   2.9079997
 111.1209992  52.4154990   3.2169997 111.7709992  53.0574990   2.0099997
 111.4795807  53.1027031   2.8290063 108.6539992  48.0484990   9.9289997
 107.7259992  47.8174990   9.9019997 109.1049992  47.2714990   9.5989997
 108.5878165  47.9117785   9.8806772 101.1969992  52.3774990   6.0619997
 101.7239992  53.1504990   5.8619997 100.3169992  52.6014990   5.7599997
 101.1502121  52.5137344   5.9937460  96.9519992  47.2394990   0.6489997
  97.5679992  47.8664990   1.0289997  96.0899992  47.5554990   0.9209997
  96.9197678  47.3679423   0.7377192 102.6239992  50.0404990   5.6379997
 102.3829992  50.9654990   5.6799997 101.8839992  49.5814990   6.0349997
 102.4909463  50.1050969   5.6974279 103.1389992  54.1894990  11.9529997
 103.5019992  55.0434990  11.7199997 103.6709992  53.8974990  12.6939997
 103.2605141  54.2668907  12.0212079 101.3069992  55.0614990   5.1839997
 100.3579992  55.1674990   5.2349997 101.6589992  55.8824990   5.5279997
 101.2245647  55.1870029   5.2374882 106.6829992  50.2884990  11.6539997
 106.2569992  50.0604990  12.4799997 107.2639992  49.5494990  11.4719997
 106.7032088  50.1574393  11.7424454 107.1649992  25.7534990  84.1049997
 106.9699992  26.3594990  83.3899997 107.3469992  24.9204990  83.6699997
 107.1629272  25.7237955  83.9484075 108.8859992  51.2174990   0.7279997
 109.2389992  50.8374990   1.5319997 107.9369992  51.1234990   0.8149997
 108.8060956  51.1527867   0.8498005 109.3419992  54.8404990  14.1229997
 108.7399992  54.2844990  13.6279997 109.6229992  55.5074990  13.4969997
 109.2975757  54.8545755  13.9705657 113.3889992  55.6964990   0.9289997
 114.1329992  56.2824990   0.7889997 112.6949992  56.2654990   1.2619997
 113.3969809  55.8535830   0.9548572  97.4639992  42.0734990  13.5309997
  96.5709992  42.4114990  13.4629997  97.3649992  41.2174990  13.9489997
  97.3284752  42.0040986  13.5781644 109.7519992  49.8894990   2.9549997
 109.4749992  49.1614990   3.5109997 110.6789992  50.0084990   3.1599997
 109.8394419  49.8059436   3.0588264  97.1149992  53.8774990  11.9659997
  97.3319992  52.9454990  11.9349997  97.3619992  54.1524990  12.8489997
  97.1780948  53.7870976  12.0811268 101.9139992  51.8994990   1.6309997
 102.0609992  51.3794990   2.4209997 101.9109992  52.8064990   1.9379997
 101.9337102  51.9508964   1.7805907  98.3669992  49.1514990   2.1419997
  97.6809992  49.5044990   2.7089997  98.8899992  49.9144990   1.8949997
  98.3438402  49.3028912   2.1861784 106.1979992  41.8144990  12.4209997
 106.8969992  41.8884990  13.0709997 105.8179992  40.9494990  12.5749997
 106.2422662  41.7077050  12.5307412 106.9829992  41.4664990   3.5179997
 107.2029992  41.9374990   2.7139997 107.5409992  41.8604990   4.1879997
 107.0886044  41.5842946   3.4985207  98.3779992  25.9914990  89.4289997
  98.3399992  26.3914990  90.2969997  97.8869992  25.1744990  89.5189997
  98.3064246  25.9358842  89.5601171 104.6519992  53.5964990   2.3809997
 103.8349992  54.0934990   2.4329997 105.1809992  54.0724990   1.7399997
 104.6118125  53.7287000   2.3015289 104.1829992  43.1944990   4.3529997
 104.9949992  43.6984990   4.3989997 103.9379992  43.0494990   5.2669997
 104.2611091  43.2439366   4.4828552 104.7189992  44.1804990  13.5369997
 104.8379992  44.7544990  14.2939997 105.3739992  43.4924990  13.6519997
 104.8238684  44.1660205  13.6561656 105.0669992  40.2754990   5.2909997
 104.7199992  40.8924990   5.9349997 105.7249992  40.7764990   4.8089997
 105.1084430  40.4276860   5.3140046 101.9899992  54.6404990   2.3619997
 102.1509992  55.4404990   1.8619997 101.7929992  54.9474990   3.2469997
 101.9853906  54.7913690   2.4132316 100.7239992  41.3384990   1.9779997
 100.6409992  42.2264990   2.3249997 101.6139992  41.0734990   2.2099997
 100.8329331  41.4241177   2.0568067 110.9229992  42.0874990  14.3719997
 110.0069992  42.3494990  14.2849997 111.2589992  42.0844990  13.4759997
 110.8428499  42.1230174  14.2388748 109.5249992  45.8374990   8.4679997
 108.7279992  45.4224990   8.1399997 109.9699992  45.1474990   8.9589997
 109.4760367  45.6873372   8.4894897  98.9829992  51.7654990   1.0379997
  99.5749992  52.4654990   1.3149997  99.4419992  51.3324990   0.3189997
  99.1261652  51.8027686   0.9786515  97.2989992  44.4304990   0.1539997
  97.2539992  45.3694990   0.3329997  96.4109992  44.1944990  -0.1150003
  97.1728166  44.5271698   0.1421507  94.9859992  23.1074990  83.2789997
  95.6169992  23.0784990  83.9989997  95.4359992  22.6824990  82.5489997
  95.1330905  23.0460839  83.2787479 110.6119992  55.0934990  10.0899997
 110.4559992  55.7724990   9.4329997 111.5439992  55.1654990  10.2929997
 110.7167328  55.1961586  10.0275529  98.1069992  39.2114990   8.8269997
  97.8779992  39.2704990   7.8999997  97.6639992  38.4204990   9.1339997
  98.0157387  39.1126412   8.7415223  97.0369992  53.1524990   4.9879997
  96.2049992  53.6244990   5.0149997  97.5829992  53.6624990   4.3889997
  96.9968710  53.2860317   4.9107570  96.3259992  55.7644990  16.3179997
  96.8659992  55.5484990  17.0779997  95.8439992  54.9594990  16.1279997
  96.3348485  55.6260463  16.3964870 100.9229992  54.6844990  17.9379997
 101.6909992  54.2254990  18.2789997 100.9019992  54.4584990  17.0079997
 101.0252135  54.5911680  17.8589473 105.0149992  54.1924990  -0.6870003
 104.3709992  53.5614990  -0.3650003 105.7769992  53.6614990  -0.9180003
 105.0298708  54.0343171  -0.6741539 107.4999992  53.0644990  16.6669997
 107.1489992  52.2074990  16.9099997 108.2259992  53.2064990  17.2739997
 107.5501590  52.9665189  16.7822889 109.6189992  54.0094990  -0.4530003
 109.9019992  53.2144990  -0.0000003 110.3589992  54.2424990  -1.0140003
 109.7577295  53.9322349  -0.4668531  96.2329992  49.5754990  17.2719997
  96.3769992  48.6734990  16.9859997  95.4599992  49.8614990  16.7849997
  96.1482266  49.4906548  17.1670102 100.5739992  49.9184990  -0.5950003
 100.6379992  49.1244990  -0.0650003 101.2269992  49.8004990  -1.2850003
 100.6710483  49.7937496  -0.6156593 106.4289992  27.3914990  88.7759997
 106.7529992  26.7604990  88.1329997 105.9889992  26.8574990  89.4369997
 106.4138707  27.2328261  88.7773195 102.8879992  49.5444990  16.7049997
 102.5599992  49.8154990  15.8479997 103.0399992  48.6034990  16.6169997
 102.8636412  49.4544058  16.5757804 108.6229992  49.4604990  14.0879997
 109.3679992  50.0494990  13.9689997 107.8649992  50.0424990  14.1509997
 108.6225289  49.6197067  14.0802292  97.0649992  46.7754990  16.6919997
  97.4729992  45.9184990  16.5709997  96.8049992  46.7894990  17.6129997
  97.0857082  46.6600596  16.7999469 101.7229992  47.8914990   1.7109997
 101.2639992  47.4074990   2.3959997 101.9779992  47.2224990   1.0749997
 101.6945997  47.7348491   1.7188734 101.0119992  45.7844990  14.0669997
 100.3939992  46.4584990  14.3469997 101.3559992  46.1054990  13.2329997
 100.9738078  45.9202298  13.9926609 102.7939992  46.1344990  -0.0270003
 102.6139992  45.9794990  -0.9540003 103.7439992  46.2424990   0.0179997
 102.8977804  46.1278821  -0.1478034 106.0319992  48.2554990  17.3439997
 106.9849992  48.3394990  17.3169997 105.8719992  47.5434990  17.9629997
 106.1407320  48.1707292  17.4239933 112.1839992  48.4884990  -0.5810003
 111.9109992  48.0644990  -1.3940003 112.2239992  49.4204990  -0.7980003
 112.1520201  48.5563523  -0.7216452 101.3519992  43.1394990  15.1489997
 101.5019992  42.4104990  14.5469997 101.3539992  43.9164990  14.5899997
 101.3727967  43.1447720  14.9910523 101.7639992  41.5084990  12.6419997
 102.2999992  41.9604990  11.9899997 100.9119992  41.4004990  12.2189997
 101.7221795  41.5557444  12.4956211 103.2069992  23.3194990  83.5599997
 102.2959992  23.3764990  83.8489997 103.7119992  23.2594990  84.3709997
 103.1506873  23.3191838  83.7091190 103.3459992  46.9484990  12.8809997
 104.0969992  46.7924990  12.3079997 103.0069992  47.8004990  12.6059997
 103.4029587  47.0423149  12.7654060 107.7619992  44.7634990  17.9099997
 107.9539992  43.8324990  17.7979997 108.6189992  45.1884990  17.8989997
 107.9042176  44.6935090  17.8931757 109.0779992  47.5524990  15.9869997
 108.7969992  48.2614990  15.4089997 110.0209992  47.4794990  15.8359997
 109.1669272  47.6396704  15.8874976  99.8299992  44.3374990  17.0599997
  99.0629992  43.8044990  16.8499997 100.5089992  44.0274990  16.4609997
  99.8168292  44.2226360  16.9502693 102.5699992  38.9654990  13.0729997
 102.4719992  39.9114990  12.9679997 101.8269992  38.5924990  12.5969997
 102.4562123  39.0446811  12.9943204 103.8339992  43.2864990  16.6369997
 103.5979992  43.0674990  17.5379997 103.0509992  43.0794990  16.1269997
 103.6958382  43.2285340  16.6913991 106.5499992  42.4144990  15.7119997
 105.6019992  42.4464990  15.8439997 106.8619992  41.7884990  16.3659997
 106.4625293  42.3342934  15.8184130 108.1839992  41.0484990  17.7169997
 108.0869992  40.0964990  17.7119997 107.8619992  41.3164990  18.5779997
 108.1272468  40.9545896  17.8326192  98.0109992  42.2574990  16.7649997
  98.2219992  41.5514990  16.1549997  97.8989992  41.8204990  17.6089997
  98.0247668  42.1016619  16.7955445 102.7919992  38.2594990  15.7439997
 103.5029992  37.6194990  15.7299997 102.6909992  38.5254990  14.8309997
 102.8756858  38.2078591  15.6185501  98.0349992  24.9484990  82.3869997
  97.1459992  25.0474990  82.0469997  98.3309992  24.1064990  82.0409997
  97.9534001  24.8482473  82.2937318 103.1449992  39.9414990  17.7979997
 103.0139992  39.4664990  16.9779997 102.5459992  40.6864990  17.7429997
 103.0460829  39.9770949  17.6781823 102.6919992  56.8244990   0.9739997
 103.6249992  56.9824990   1.1179997 102.4269992  57.5004990   0.3489997
 102.7839846  56.9374567   0.9092930  96.2599992  51.4614990   0.4569997
  97.1739992  51.5404990   0.7299997  96.2669992  50.7744990  -0.2090003
  96.3860624  51.3794074   0.4043045  94.9089992  56.8544990   5.5339997
  94.2619992  56.3924990   5.0019997  95.2639992  56.1824990   6.1169997
  94.8683741  56.7004785   5.5399157  95.7789992  54.9344990   7.3389997
  95.4449992  54.0544990   7.5109997  96.0009992  55.2804990   8.2039997
  95.7632565  54.8607410   7.4794263 113.3279992  55.7444990  10.3199997
 113.3059992  55.9294990  11.2579997 114.0179992  56.3124990   9.9789997
 113.4183383  55.8467104  10.4024580 112.8909992  55.3114990  13.2409997
 112.4039992  54.5754990  12.8699997 113.4399992  54.9174990  13.9189997
 112.8986101  55.1576267  13.2819034 111.3419992  51.1014990  17.8789997
 110.4759992  50.9964990  18.2739997 111.7179992  51.8594990  18.3259997
 111.2744940  51.1896141  17.9933958 112.6429992  49.3574990   3.3939997
 113.4929992  49.7784990   3.5209997 112.6479992  48.6174990   4.0009997
 112.7601143  49.3151106   3.4934732 113.0369992  47.4114990   5.2169997
 112.3109992  46.9314990   5.6149997 113.6179992  47.6164990   5.9489997
 113.0162504  47.3735592   5.3704199 101.6879992  24.9484990  80.0429997
 102.6199992  25.0774990  80.2209997 101.4729992  25.6174990  79.3939997
 101.7864245  25.0566452  79.9795602 112.7959992  50.1964990  10.1649997
 113.6299992  49.8184990   9.8839997 112.9079992  51.1394990  10.0459997
 112.9251917  50.2722954  10.1104844 111.2819992  53.0744990  12.4719997
 110.6349992  53.3994990  13.0969997 110.7649992  52.6334990  11.7979997
 111.1234112  53.0594133  12.4665272 113.3049992  47.3124990   1.6079997
 112.7839992  47.6684990   0.8899997 113.2719992  47.9874990   2.2869997
 113.2290955  47.4525023   1.6012634 111.6539992  44.5514990   0.1589997
 111.7509992  45.2184990  -0.5210003 111.5139992  43.7364990  -0.3220003
 111.6483407  44.5325670   0.0008312 110.8239992  45.9324990   5.7799997
 110.6739992  44.9874990   5.7599997 110.4699992  46.2134990   6.6239997
 110.7556351  45.8411656   5.8913202  95.8589992  48.0104990   9.7909997
  96.0429992  47.9284990   8.8549997  96.7079992  47.8864990  10.2139997
  95.9990132  47.9825066   9.7201460 111.6799992  47.9024990  15.4189997
 112.2629992  47.1674990  15.6109997 112.2439992  48.6744990  15.4659997
 111.8359781  47.9063156  15.4516146 113.1769992  45.8054990  16.1039997
 112.3129992  45.4264990  15.9379997 113.7809992  45.0664990  16.0289997
 113.1405394  45.6538378  16.0711778 110.5339992  43.5144990   4.2429997
 110.8139992  42.6074990   4.3669997 111.2929992  43.9484990   3.8539997
 110.6749258  43.4490935   4.2073691 111.1459992  44.0964990   9.6789997
 112.0789992  44.3084990   9.6439997 110.9109992  44.1974990  10.6009997
 111.2419517  44.1391844   9.7989113 107.6119992  22.5544990  86.8239997
 106.9349992  22.6854990  87.4879997 107.1259992  22.3994990  86.0139997
 107.4537265  22.5514665  86.8053380 111.1749992  44.8334990  12.4549997
 110.3319992  45.1014990  12.8199997 111.6179992  45.6554990  12.2439997
 111.1194035  44.9813351  12.4764770  95.4559992  43.2804990  15.9309997
  96.3759992  43.1584990  16.1679997  95.0069992  42.5304990  16.3209997
  95.5210500  43.1624576  16.0161016 113.4579992  38.8134990  17.8079997
 113.8079992  38.1594990  17.2019997 113.6049992  39.6504990  17.3679997
 113.5257192  38.8372545  17.6656712 111.1479992  40.7774990   4.2909997
 111.3299992  40.3284990   5.1159997 110.5479992  40.1934990   3.8269997
 111.0918187  40.6370563   4.3412721  96.6779992  41.5934990   8.8229997
  97.1229992  40.8014990   9.1249997  97.1439992  42.3094990   9.2529997
  96.8019718  41.5819546   8.9225247  94.9819992  44.5924990   9.8919997
  95.4739992  44.3714990   9.1009997  95.3439992  45.4324990  10.1729997
  95.0982923  44.6758480   9.8217389 112.9779992  40.9224990  16.1569997
 112.0609992  41.1934990  16.1209997 113.1009992  40.3874990  15.3729997
 112.8690828  40.8872711  16.0460767 113.0139992  40.8454990   0.8189997
 113.4269992  40.1244990   0.3439997 113.6959992  41.5144990   0.8769997
 113.1626060  40.8373741   0.7619233  95.2949992  40.8504990   3.9459997
  94.3699992  41.0584990   3.8169997  95.7489992  41.3344990   3.2559997
  95.2296298  40.9444311   3.8350433 110.0659992  55.8344990   5.8919997
 110.7179992  55.4864990   5.2839997 110.5769992  56.3224990   6.5379997
 110.2242872  55.8528248   5.8960964 110.8989992  38.2254990  93.1009997
 111.0989992  38.6494990  92.2659997 111.5549992  38.5694990  93.7079997
 111.0149916  38.3299784  93.0687890  95.2589992  39.5884990  12.2899997
  94.5939992  39.3424990  12.9329997  94.8159992  40.2104990  11.7129997
  95.1081168  39.6389225  12.2999830  97.4509992  52.7634990  16.4349997
  96.6299992  52.9384990  15.9739997  97.1989992  52.6904990  17.3549997
  97.3045594  52.7775728  16.4963593 100.4049992  53.7374990  12.6929997
  99.9799992  54.5474990  12.4109997 101.3089992  53.8234990  12.3909997
 100.4690706  53.8599557  12.6135836 104.7159992  55.1364990  15.6529997
 104.9009992  54.8034990  16.5309997 105.5629992  55.4464990  15.3309997
 104.8557291  55.1328214  15.7296140 107.0609992  56.4224990  14.8969997
 107.7379992  55.7894990  14.6569997 107.3829992  56.8234990  15.7039997
 107.1971618  56.3901147  14.9732802 111.9789992  39.0124990  13.9759997
 111.1659992  39.3374990  13.5889997 112.2119992  38.2514990  13.4429997
 111.8991347  38.9541891  13.8509824  97.8069992  56.9944990  12.7409997
  97.0859992  57.4344990  12.2899997  97.4409992  56.7434990  13.5889997
  97.6589632  57.0207235  12.7939649 100.2739992  56.5944990  11.7699997
  99.4089992  56.6664990  12.1739997 100.2189992  57.1414990  10.9869997
 100.1482289  56.6783242  11.7193749 104.9849992  56.4824990  10.9459997
 104.5279992  57.0114990  10.2919997 105.1469992  57.0854990  11.6709997
 104.9443919  56.6363990  10.9545740 107.3119992  55.3604990  11.8909997
 106.4079992  55.5254990  11.6249997 107.7409992  56.2134990  11.8249997
 107.2462017  55.4984184  11.8456495  98.4969992  30.6994990  92.7089997
  99.2289992  30.9544990  93.2699997  97.7169992  30.9044990  93.2239997
  98.4917684  30.7621457  92.8554774 109.9159992  56.9304990  12.1859997
 109.7349992  57.8464990  11.9749997 110.0929992  56.5194990  11.3389997
 109.9151377  57.0003365  12.0427178  97.2219992  55.6174990   9.6509997
  97.2029992  55.1914990  10.5079997  98.0259992  55.2984990   9.2419997
  97.3281393  55.5160297   9.7130155  99.3629992  54.3274990   8.3059997
  99.1439992  53.4104990   8.4759997 100.1869992  54.4674990   8.7719997
  99.4444702  54.2210523   8.3922510 101.8999992  54.7974990   9.1549997
 102.1129992  53.9094990   8.8679997 101.9649992  54.7624990  10.1089997
 101.9379149  54.6713338   9.2447351 105.4089992  40.4614990   8.2989997
 104.7339992  39.8314990   8.5549997 105.9729992  39.9774990   7.6959997
 105.3929363  40.3098886   8.2524810 110.5509992  38.5684990   8.4119997
 111.1549992  39.1164990   7.9099997 109.6819992  38.8874990   8.1709997
 110.5160419  38.6865628   8.3107741 112.2779992  39.7074990   6.7449997
 112.8899992  39.1934990   6.2179997 112.6609992  40.5844990   6.7679997
 112.4133867  39.7557613   6.6760888  97.7349992  39.0954990   6.1209997
  96.9579992  38.8604990   5.6139997  98.2659992  38.2984990   6.1299997
  97.7003735  38.9556462   6.0528090  96.5719992  38.8934990   1.9249997
  97.0109992  39.5044990   1.3329997  95.9379992  39.4314990   2.3989997
  96.5463859  39.0499076   1.9080287 102.3149992  39.0214990   5.9339997
 103.1889992  39.4104990   5.9049997 102.1789992  38.8064990   6.8569997
 102.4161953  39.0456654   6.0547599 104.5269992  26.1064990  85.4469997
 105.0909992  25.5604990  84.8999997 104.3789992  25.5854990  86.2359997
 104.5843037  25.9611798  85.4787212 107.8709992  39.0514990   7.5839997
 107.9479992  39.1474990   6.6339997 107.5959992  38.1444990   7.7119997
 107.8443233  38.9419093   7.4713665 109.2249992  39.0774990   3.2759997
 108.5219992  39.6924990   3.0659997 108.7799992  38.2404990   3.4069997
 109.0686550  39.0484679   3.2649819  96.4729992  54.8414990   2.8219997
  95.7879992  54.8034990   2.1549997  96.4759992  55.7534990   3.1099997
  96.3796806  54.9596669   2.7696961  98.4329992  40.8094990   0.3669997
  98.9239992  40.1794990  -0.1600003  99.0559992  41.1054990   1.0299997
  98.5845304  40.7632387   0.3844922 103.4589992  41.1024990   2.8239997
 103.6369992  40.4554990   3.5069997 103.4049992  41.9364990   3.2909997
 103.4760678  41.1266615   2.9806283 105.3369992  56.0504990   1.2199997
 106.2029992  56.4174990   1.0419997 105.0899992  55.6114990   0.4059997
 105.4221853  56.0414021   1.0855813 112.0459992  55.6134990   3.8989997
 111.8519992  54.8654990   3.3339997 112.0069992  56.3714990   3.3159997
 112.0141645  55.6135797   3.7428131  97.6929992  39.6094990  15.6389997
  97.3269992  38.8434990  16.0809997  98.6059992  39.6384990  15.9249997
  97.7663172  39.5085335  15.7381872  99.6659992  38.9594990  17.1739997
 100.5649992  38.6854990  16.9899997  99.2799992  38.2174990  17.6389997
  99.7367307  38.8217207  17.2117080  98.2909992  55.7614990  -0.1530003
  98.0229992  56.0474990   0.7209997  99.0619992  55.2154990  -0.0000003
  98.3585926  55.7267790  -0.0128812  99.5289992  22.2434990  81.8649997
  99.2109992  21.3404990  81.8299997 100.3099992  22.2454990  81.3129997
  99.5911560  22.1201148  81.7854975 108.0869992  38.2924990  17.3569997
 108.1639992  37.8664990  18.2099997 108.9809992  38.3054990  17.0139997
 108.2183263  38.2359345  17.4274366 111.2639992  54.3644990  16.0489997
 110.4819992  54.1784990  15.5289997 111.1919992  55.2944990  16.2659997
 111.1472975  54.4646973  16.0071822 125.6699992  48.2514990   6.0799997
 125.7589992  49.1954990   5.9469997 125.0309992  47.9764990   5.4219997
 125.5958378  48.3433846   5.9729258 124.6029992  47.5064990   9.4989997
 124.5639992  46.8604990  10.2039997 124.2799992  47.0394990   8.7269997
 124.5540469  47.3550005   9.4912803 116.9709992  47.1204990  11.0919997
 117.0119992  46.4954990  11.8149997 117.6739992  47.7444990  11.2739997
 117.0716223  47.1192318  11.2156164 128.3089992  50.4454990   7.7999997
 127.8679992  49.7254990   8.2509997 128.2959992  51.1664990   8.4299997
 128.2469215  50.4444303   7.9468088 117.8949992  51.5704990   9.6269997
 117.5249992  50.7684990   9.2569997 118.8359992  51.4024990   9.6729997
 117.9715984  51.4379649   9.5825586 114.5049992  45.2304990   5.0189997
 114.0569992  46.0764990   5.0009997 113.9439992  44.6514990   4.5039997
 114.3678546  45.2679004   4.9468874 115.2149992  47.3924990   7.1449997
 115.4289992  46.6224990   7.6719997 115.9529992  47.4824990   6.5419997
 115.3440073  47.2993546   7.1355786 125.4199992  55.5494990   8.0119997
 126.0399992  54.8734990   7.7389997 125.2119992  55.3314990   8.9209997
 125.4767679  55.4275032   8.0974518 103.1529992  24.4954990  87.8609997
 102.3179992  24.9494990  87.9709997 103.6769992  24.7714990  88.6129997
 103.1095070  24.5949677  87.9777134 122.9919992  49.9384990   9.9049997
 123.2959992  49.2524990   9.3099997 123.7139992  50.0574990  10.5229997
 123.1311240  49.8607325   9.9070941 131.6549992  41.5404990  10.7649997
 131.7039992  42.1504990  11.5009997 132.0809992  42.0014990  10.0419997
 131.7192851  41.6863266  10.7680532 126.1329992  44.3324990  10.2319997
 126.2749992  43.3864990  10.2519997 126.0269992  44.5394990   9.3039997
 126.1381051  44.2309706  10.1092249 119.2879992  42.4344990   7.5049997
 119.3309992  43.2944990   7.0859997 118.8299992  41.8814990   6.8709997
 119.2320163  42.4774174   7.3620604 127.0099992  42.5654990   5.9049997
 127.6559992  42.2364990   6.5299997 127.5199992  43.0824990   5.2829997
 127.1674289  42.5904333   5.9063681 115.9079992  44.8314990   8.2669997
 116.5619992  44.2814990   8.6989997 115.9319992  44.5574990   7.3499997
 116.0007199  44.7192178   8.2021650 121.0639992  46.3814990   7.4819997
 121.6799992  45.8544990   7.9909997 120.4779992  45.7414990   7.0779997
 121.0690652  46.2228919   7.4970277 132.0469992  43.0184990  13.0009997
 131.3579992  43.6764990  12.9059997 132.0619992  42.8204990  13.9379997
 131.9547756  43.0817614  13.1145795 118.0979992  41.3524990  11.5789997
 117.8789992  41.8824990  10.8119997 117.4299992  41.5784990  12.2259997
 117.9776975  41.4555979  11.5615123 125.4669992  50.8524990   5.1229997
 125.1709992  50.5294990   4.2709997 125.1429992  51.7524990   5.1639997
 125.3827458  50.9299678   5.0120598 103.6969992  30.7084990  79.5459997
 102.9519992  30.2004990  79.2229997 103.5629992  30.7574990  80.4919997
 103.5768633  30.6455714  79.6297563 120.6669992  49.0274990  11.8659997
 119.9269992  49.6264990  11.9699997 121.3809992  49.5814990  11.5499997
 120.6623146  49.1842611  11.8375150 128.7739992  41.8564990   7.8859997
 128.5589992  41.0904990   8.4189997 129.4299992  42.3284990   8.3989997
 128.8332673  41.8155739   8.0281972 117.6919992  43.2444990   9.5309997
 118.3049992  43.8774990   9.9039997 118.2039992  42.7724990   8.8749997
 117.8451933  43.2673380   9.4933477 119.0739992  50.9924990  12.6529997
 119.0689992  51.8714990  12.2749997 118.2209992  50.9084990  13.0779997
 118.9579199  51.1015901  12.6586942 115.1959992  50.6634990   3.4349997
 114.9239992  50.8924990   2.5459997 115.2409992  51.5004990   3.8959997
 115.1648360  50.8081034   3.3756186 128.8209992  52.2844990  10.1479997
 127.8789992  52.3434990  10.3099997 129.0969992  53.1904990  10.0109997
 128.7295865  52.4150299  10.1516174 129.1209992  40.5714990  11.5649997
 128.3849992  41.1814990  11.5279997 129.8049992  40.9864990  11.0389997
 129.1125367  40.7112562  11.4888156 122.1239992  38.6574990   9.0309997
 122.0069992  37.7094990   8.9769997 121.2689992  38.9904990   9.3039997
 121.9923691  38.5725842   9.0605072 127.0729992  54.0654990   6.7729997
 127.4979992  53.3584990   6.2879997 127.3899992  54.8674990   6.3559997
 127.1740266  54.0770201   6.6502461 128.2319992  51.9664990   5.2819997
 127.9749992  51.2764990   4.6699997 128.3029992  51.5234990   6.1269997
 128.2064322  51.8121568   5.3125372 110.8469992  29.8414990  88.3319997
 111.4889992  30.2974990  87.7889997 110.0169992  29.9544990  87.8699997
 110.8227352  29.9193223  88.1950234 129.9179992  50.5334990  13.7589997
 130.0579992  49.9414990  13.0199997 130.0859992  51.4064990  13.4029997
 129.9598734  50.5704041  13.6096937 124.3909992  47.4954990   3.5319997
 123.6789992  48.0304990   3.1799997 125.0819992  47.5504990   2.8719997
 124.3869704  47.5761663   3.3945797 124.4449992  45.9524990   0.5699997
 125.1459992  45.9754990   1.2219997 124.7469992  45.3244990  -0.0860003
 124.5818202  45.8707223   0.5705591 131.7599992  46.8734990  11.8249997
 131.1079992  47.5674990  11.9139997 132.2249992  47.0834990  11.0149997
 131.7335357  46.9969544  11.7277056 127.7969992  47.7044990   4.4829997
 127.0649992  47.9334990   5.0559997 128.2439992  46.9914990   4.9379997
 127.7572753  47.6393984   4.6229698 127.6939992  45.8794990  13.5509997
 127.7739992  46.6424990  14.1229997 127.0929992  46.1584990  12.8609997
 127.6236547  46.0217468  13.5360029 119.4419992  48.3354990   6.3659997
 119.1119992  47.9644990   5.5479997 120.0299992  47.6644990   6.7129997
 119.4763182  48.1940648   6.3009898 120.8089992  51.7634990   9.0469997
 120.7139992  51.1844990   8.2909997 121.5379992  51.3924990   9.5429997
 120.8946011  51.6340572   9.0106011 119.8089992  47.1034990   9.9989997
 120.3739992  47.2254990   9.2369997 120.1269992  47.7414990  10.6379997
 119.9293619  47.2064388   9.9810019 126.1179992  52.6074990  10.7329997
 125.8769992  53.2694990  11.3809997 125.9199992  51.7724990  11.1579997
 126.0582662  52.5852704  10.8791008 107.5949992  23.5224990  77.7449997
 106.6559992  23.6334990  77.5939997 107.8919992  24.3784990  78.0509997
 107.5066371  23.6535327  77.7657362 120.6889992  51.5034990  14.7169997
 120.3769992  52.2854990  15.1719997 120.0389992  51.3504990  14.0309997
 120.5584858  51.5897882  14.6865344 126.6679992  46.8674990   2.1689997
 127.2469992  47.0174990   2.9149997 127.0819992  47.3374990   1.4449997
 126.8033358  46.9515966   2.1733935 117.6089992  47.7014990  13.9449997
 117.6789992  48.3524990  14.6439997 116.7179992  47.8044990  13.6099997
 117.4981690  47.8044261  13.9953026 124.3939992  53.6034990   5.6039997
 124.8679992  53.8994990   6.3809997 123.8309992  54.3424990   5.3709997
 124.3827890  53.7438047   5.6788084 118.9279992  53.5744990  15.4799997
 118.9359992  53.4384990  14.5329997 118.0119992  53.4574990  15.7319997
 118.8052528  53.5400475  15.3843226 130.3659992  38.6174990   1.9809997
 129.4659992  38.7554990   2.2769997 130.6179992  39.4484990   1.5799997
 130.2767727  38.7488705   1.9672935 118.4319992  47.4044990   3.9549997
 118.1399992  48.1724990   3.4639997 117.7579992  46.7454990   3.7919997
 118.3008843  47.4204537   3.8657695 131.5559992  52.9834990   0.3579997
 131.6289992  53.9224990   0.5279997 132.4609992  52.6784990   0.3019997
 131.6884170  53.0708294   0.3737045 114.5249992  49.7674990  12.7699997
 114.0239992  49.7394990  11.9549997 114.5309992  48.8624990  13.0799997
 114.4571690  49.6412234  12.7002770 114.2759992  52.5484990   9.6539997
 115.2219992  52.4034990   9.6349997 114.1629992  53.3324990  10.1909997
 114.3903578  52.6346708   9.7240300 105.2169992  30.8924990  90.7829997
 104.8709992  30.5104990  91.5889997 105.0169992  31.8254990  90.8539997
 105.1425400  30.9663489  90.9030401 132.4729992  53.2144990  15.3369997
 132.4239992  52.2584990  15.2989997 131.6469992  53.4814990  15.7379997
 132.3545096  53.1198416  15.3860698 123.4519992  52.7884990  14.2129997
 123.5389992  53.6144990  14.6879997 122.5879992  52.4584990  14.4619997
 123.3471944  52.8569871  14.3116558 123.8659992  56.5604990   4.0189997
 123.7909992  56.4394990   3.0719997 123.8989992  57.5094990   4.1369997
 123.8602083  56.6722639   3.9054973 117.5199992  55.3494990   5.7999997
 117.6719992  55.0014990   6.6779997 116.6689992  54.9924990   5.5439997
 117.4258344  55.2535891   5.8856851 126.9679992  55.7144990   1.0209997
 127.3429992  54.9704990   0.5499997 126.9719992  55.4444990   1.9389997
 127.0198969  55.5760920   1.0806475 126.6369992  55.6404990   3.7699997
 125.7019992  55.7404990   3.9489997 126.9169992  54.9304990   4.3489997
 126.5469471  55.5582944   3.8726678 129.6249992  44.7074990  15.8169997
 129.2179992  45.1874990  15.0959997 129.6659992  43.8014990  15.5089997
 129.5748403  44.6507989  15.6767253 116.7739992  51.0914990  13.8129997
 116.9899992  50.7294990  14.6729997 115.9189992  50.7164990  13.6039997
 116.6879082  50.9913377  13.9022396 119.3929992  39.5614990   9.8089997
 118.5309992  39.4744990   9.4009997 119.3709992  40.4174990  10.2369997
 119.2720557  39.6653078   9.8110202 124.0559992  39.2834990  13.1839997
 124.4759992  38.8684990  13.9369997 123.1229992  39.1044990  13.3009997
 123.9873736  39.2024921  13.3028950 108.3129992  25.3894990  79.4059997
 109.2049992  25.2514990  79.7249997 108.3699992  26.1804990  78.8689997
 108.4427380  25.4774777  79.3770981 127.3819992  43.0384990  14.0369997
 126.8679992  42.9134990  14.8349997 127.2269992  43.9514990  13.7929997
 127.2907802  43.1447433  14.1131504 128.1449992  47.8994990  -0.2020003
 128.1869992  47.6774990  -1.1320003 128.9939992  48.2984990  -0.0120003
 128.2655253  47.9230510  -0.3036196 123.7179992  41.7754990   0.4689997
 123.4639992  41.7944990   1.3909997 123.4609992  40.9044990   0.1669997
 123.6484508  41.6603292   0.5544786 119.4839992  44.5264990  10.9039997
 118.8419992  44.4864990  11.6129997 119.5209992  45.4534990  10.6659997
 119.4011659  44.6462540  10.9688463 119.4809992  44.7474990   5.8159997
 118.5879992  44.4074990   5.7569997 119.9319992  44.3704990   5.0599997
 119.4197185  44.6500220   5.7057698 125.0169992  45.1634990   4.6329997
 124.6079992  45.9784990   4.3409997 125.7369992  45.0234990   4.0189997
 125.0584439  45.2560383   4.5100098 124.1189992  45.3394990  16.1209997
 123.5559992  44.6344990  16.4419997 124.9449992  45.2184990  16.5889997
 124.1536674  45.2267176  16.2281734 126.0209992  44.6094990   7.4469997
 125.8259992  45.2154990   6.7319997 126.2029992  43.7764990   7.0129997
 126.0189195  44.5797936   7.2904079 117.2339992  44.8474990  12.7709997
 117.1959992  45.2474990  13.6399997 116.7429992  44.0304990  12.8609997
 117.1624374  44.7918228  12.9020980 120.5999992  42.2214990  -0.4300003
 120.1689992  41.7764990   0.2989997 119.8819992  42.5924990  -0.9430003
 120.4439176  42.2107063  -0.3995087  98.8219992  30.0034990  85.3149997
  99.5669992  30.0004990  84.7139997  98.8999992  29.1794990  85.7969997
  98.9344158  29.8917928  85.2979136 113.8419992  41.9634990   6.6219997
 114.4729992  41.9344990   7.3409997 114.2919992  41.5384990   5.8909997
 113.9891082  41.9021269   6.6216307 115.1159992  42.7094990   2.0459997
 115.5909992  43.3004990   1.4609997 114.3989992  43.2394990   2.3929997
 115.0840406  42.8621011   2.0128495 125.2849992  46.2474990  12.1179997
 125.6089992  45.6164990  11.4749997 124.8449992  45.7134990  12.7789997
 125.2698707  46.0888261  12.1193195 122.0629992  42.1754990   6.9019997
 121.1519992  42.2324990   7.1909997 122.5679992  42.1154990   7.7129997
 122.0066873  42.1751838   7.0511190 116.8909992  43.8044990   5.7289997
 116.0019992  43.9034990   5.3889997 117.1869992  42.9624990   5.3829997
 116.8094001  43.7042473   5.6357318 120.5439992  43.8044990   3.3859997
 121.4759992  43.9334990   3.5639997 120.3289992  44.4734990   2.7359997
 120.6424472  43.9125817   3.3224873 126.4679992  41.4104990  10.1659997
 125.7909992  41.5414990  10.8299997 125.9819992  41.2554990   9.3559997
 126.3097265  41.4074665  10.1473380 119.2179992  44.9984990   0.9519997
 118.6759992  44.6194990   0.2609997 120.0519992  45.1934990   0.5239997
 119.2564390  44.9729091   0.7994374 129.7549992  57.0814990  16.4429997
 129.9549992  57.5054990  15.6089997 130.4109992  57.4254990  17.0499997
 129.8709937  57.1859993  16.4108645 117.3529992  49.5554990  16.0509997
 118.0849992  49.8104990  16.6129997 116.5729992  49.7604990  16.5669997
 117.3476526  49.6180438  16.1975168 105.8229992  32.1664990  78.5709997
 105.5279992  32.9934990  78.9529997 105.1199992  31.5474990  78.7669997
 105.6875855  32.1959458  78.6497634 123.3829992  44.9624990   8.7889997
 123.9469992  44.4164990   8.2419997 123.2349992  44.4414990   9.5779997
 123.4403037  44.8171798   8.8207212 118.3849992  41.0994990   5.2079997
 118.0669992  40.1964990   5.1719997 119.1659992  41.1014990   4.6549997
 118.4471079  40.9762240   5.1282908 122.0089992  43.3514990  11.2029997
 121.1739992  43.8054990  11.3139997 122.5329992  43.6274990  11.9549997
 121.9656072  43.4508960  11.3198118 122.5529992  49.5644990   2.8879997
 121.8079992  49.0564990   2.5659997 122.4189992  49.6134990   3.8339997
 122.4329334  49.5016144   2.9718892 129.7029992  48.6974990  11.6749997
 130.3449992  49.1534990  11.1309997 128.8729992  48.8104990  11.2119997
 129.6786536  48.7751813  11.5379579 126.4509992  42.3784990   1.0869997
 125.5119992  42.4894990   0.9359997 126.7479992  43.2344990   1.3939997
 126.3626136  42.5094977   1.1078568 124.0729992  49.7484990  14.1249997
 123.7269992  49.3664990  14.9319997 123.8729992  50.6814990  14.1959997
 123.9985987  49.8224013  14.2450443 127.1689992  44.2454990   2.7479997
 128.0609992  44.1074990   3.0669997 127.2259992  45.0364990   2.2109997
 127.2987380  44.3334777   2.7190981 117.6779992  48.8594990   8.6579997
 118.4229992  48.8564990   8.0559997 117.7559992  48.0354990   9.1389997
 117.7903366  48.7477395   8.6407412 124.6789992  51.0224990   1.9129997
 124.3839992  51.8494990   2.2949997 123.9759992  50.4034990   2.1099997
 124.5436379  51.0519182   1.9918636  95.8299992  28.4634990  90.6299997
  96.0529992  28.0454990  91.4619997  95.2279992  27.8514990  90.2079997
  95.7790802  28.3235216  90.6867561 114.6859992  47.3194990  13.9729997
 114.9089992  46.9014990  14.8039997 114.0839992  46.7074990  13.5499997
 114.6351513  47.1794617  14.0296722 121.7029992  46.8364990  16.1859997
 121.4069992  46.6714990  15.2899997 122.6339992  46.6164990  16.1749997
 121.7884401  46.7841891  16.0620189 126.3229992  52.2104990  14.0749997
 125.4219992  52.3934990  13.8079997 126.3569992  52.4694990  14.9959997
 126.2043861  52.2705245  14.1629517 132.0539992  44.4544990   2.4429997
 131.4999992  44.0584990   1.7699997 132.1549992  45.3654990   2.1649997
 131.9918589  44.5233904   2.3133839 132.0169992  50.2554990  15.2799997
 131.1659992  50.4934990  14.9119997 132.6079992  50.2384990  14.5259997
 131.9803831  50.2857623  15.1278448 130.3489992  53.2404990   2.9079997
 129.9769992  52.4154990   3.2169997 130.6269992  53.0574990   2.0099997
 130.3355807  53.1027031   2.8290063 127.5099992  48.0484990   9.9289997
 126.5819992  47.8174990   9.9019997 127.9609992  47.2714990   9.5989997
 127.4438165  47.9117785   9.8806772 120.0529992  52.3774990   6.0619997
 120.5799992  53.1504990   5.8619997 119.1729992  52.6014990   5.7599997
 120.0062121  52.5137344   5.9937460 115.8079992  47.2394990   0.6489997
 116.4239992  47.8664990   1.0289997 114.9459992  47.5554990   0.9209997
 115.7757678  47.3679423   0.7377192 121.4799992  50.0404990   5.6379997
 121.2389992  50.9654990   5.6799997 120.7399992  49.5814990   6.0349997
 121.3469463  50.1050969   5.6974279 102.8469992  27.9804990  92.8429997
 102.5509992  27.8154990  91.9479997 103.7779992  27.7604990  92.8329997
 102.9323909  27.9281274  92.7190110 121.9949992  54.1894990  11.9529997
 122.3579992  55.0434990  11.7199997 122.5269992  53.8974990  12.6939997
 122.1165141  54.2668907  12.0212079 120.1629992  55.0614990   5.1839997
 119.2139992  55.1674990   5.2349997 120.5149992  55.8824990   5.5279997
 120.0805647  55.1870029   5.2374882 125.5389992  50.2884990  11.6539997
 125.1129992  50.0604990  12.4799997 126.1199992  49.5494990  11.4719997
 125.5592088  50.1574393  11.7424454 127.7419992  51.2174990   0.7279997
 128.0949992  50.8374990   1.5319997 126.7929992  51.1234990   0.8149997
 127.6620956  51.1527867   0.8498005 128.1979992  54.8404990  14.1229997
 127.5959992  54.2844990  13.6279997 128.4789992  55.5074990  13.4969997
 128.1535757  54.8545755  13.9705657 132.2449992  55.6964990   0.9289997
 132.9889992  56.2824990   0.7889997 131.5509992  56.2654990   1.2619997
 132.2529809  55.8535830   0.9548572 116.3199992  42.0734990  13.5309997
 115.4269992  42.4114990  13.4629997 116.2209992  41.2174990  13.9489997
 116.1844752  42.0040986  13.5781644 128.6079992  49.8894990   2.9549997
 128.3309992  49.1614990   3.5109997 129.5349992  50.0084990   3.1599997
 128.6954419  49.8059436   3.0588264 115.9709992  53.8774990  11.9659997
 116.1879992  52.9454990  11.9349997 116.2179992  54.1524990  12.8489997
 116.0340948  53.7870976  12.0811268 120.7699992  51.8994990   1.6309997
 120.9169992  51.3794990   2.4209997 120.7669992  52.8064990   1.9379997
 120.7897102  51.9508964   1.7805907 107.4669992  33.3544990  90.7329997
 106.5659992  33.5374990  90.4649997 107.5009992  33.6134990  91.6539997
 107.3483021  33.4145505  90.8208206 117.2229992  49.1514990   2.1419997
 116.5369992  49.5044990   2.7089997 117.7459992  49.9144990   1.8949997
 117.1998402  49.3028912   2.1861783 125.0539992  41.8144990  12.4209997
 125.7529992  41.8884990  13.0709997 124.6739992  40.9494990  12.5749997
 125.0982662  41.7077050  12.5307412 125.8389992  41.4664990   3.5179997
 126.0589992  41.9374990   2.7139997 126.3969992  41.8604990   4.1879997
 125.9446044  41.5842946   3.4985207 123.5079992  53.5964990   2.3809997
 122.6909992  54.0934990   2.4329997 124.0369992  54.0724990   1.7399997
 123.4678125  53.7287000   2.3015289 123.0389992  43.1944990   4.3529997
 123.8509992  43.6984990   4.3989997 122.7939992  43.0494990   5.2669997
 123.1171091  43.2439366   4.4828552 123.5749992  44.1804990  13.5369997
 123.6939992  44.7544990  14.2939997 124.2299992  43.4924990  13.6519997
 123.6798684  44.1660205  13.6561656 123.9229992  40.2754990   5.2909997
 123.5759992  40.8924990   5.9349997 124.5809992  40.7764990   4.8089997
 123.9644430  40.4276860   5.3140046 120.8459992  54.6404990   2.3619997
 121.0069992  55.4404990   1.8619997 120.6489992  54.9474990   3.2469997
 120.8413906  54.7913690   2.4132316 119.5799992  41.3384990   1.9779997
 119.4969992  42.2264990   2.3249997 120.4699992  41.0734990   2.2099997
 119.6889331  41.4241177   2.0568067 129.7789992  42.0874990  14.3719997
 128.8629992  42.3494990  14.2849997 130.1149992  42.0844990  13.4759997
 129.6988499  42.1230174  14.2388748 113.1979992  25.5984990  79.0999997
 112.6439992  25.2024990  78.4279997 113.2989992  26.5094990  78.8229997
 113.1357084  25.6673565  78.9704381 128.3809992  45.8374990   8.4679997
 127.5839992  45.4224990   8.1399997 128.8259992  45.1474990   8.9589997
 128.3320367  45.6873372   8.4894897 117.8389992  51.7654990   1.0379997
 118.4309992  52.4654990   1.3149997 118.2979992  51.3324990   0.3189997
 117.9821652  51.8027686   0.9786515 116.1549992  44.4304990   0.1539997
 116.1099992  45.3694990   0.3329997 115.2669992  44.1944990  -0.1150003
 116.0288166  44.5271698   0.1421507 129.4679992  55.0934990  10.0899997
 129.3119992  55.7724990   9.4329997 130.3999992  55.1654990  10.2929997
 129.5727328  55.1961586  10.0275529 116.9629992  39.2114990   8.8269997
 116.7339992  39.2704990   7.8999997 116.5199992  38.4204990   9.1339997
 116.8717387  39.1126412   8.7415223 115.8929992  53.1524990   4.9879997
 115.0609992  53.6244990   5.0149997 116.4389992  53.6624990   4.3889997
 115.8528710  53.2860317   4.9107570 115.1819992  55.7644990  16.3179997
 115.7219992  55.5484990  17.0779997 114.6999992  54.9594990  16.1279997
 115.1908485  55.6260463  16.3964870 119.7789992  54.6844990  17.9379997
 120.5469992  54.2254990  18.2789997 119.7579992  54.4584990  17.0079997
 119.8812135  54.5911680  17.8589473 123.8709992  54.1924990  -0.6870003
 123.2269992  53.5614990  -0.3650003 124.6329992  53.6614990  -0.9180003
 123.8858708  54.0343171  -0.6741539 126.3559992  53.0644990  16.6669997
 126.0049992  52.2074990  16.9099997 127.0819992  53.2064990  17.2739997
 126.4061590  52.9665189  16.7822889 113.1609992  31.3994990  91.9369997
 112.3099992  31.6374990  91.5699997 113.7519992  31.3824990  91.1839997
 113.1242468  31.4298251  91.7848902 128.4749992  54.0094990  -0.4530003
 128.7579992  53.2144990  -0.0000003 129.2149992  54.2424990  -1.0140003
 128.6137295  53.9322349  -0.4668531 115.0889992  49.5754990  17.2719997
 115.2329992  48.6734990  16.9859997 114.3159992  49.8614990  16.7849997
 115.0042266  49.4906548  17.1670102 119.4299992  49.9184990  -0.5950003
 119.4939992  49.1244990  -0.0650003 120.0829992  49.8004990  -1.2850003
 119.5270483  49.7937496  -0.6156593 121.7439992  49.5444990  16.7049997
 121.4159992  49.8154990  15.8479997 121.8959992  48.6034990  16.6169997
 121.7196412  49.4544058  16.5757804 127.4789992  49.4604990  14.0879997
 128.2239992  50.0494990  13.9689997 126.7209992  50.0424990  14.1509997
 127.4785289  49.6197067  14.0802292 115.9209992  46.7754990  16.6919997
 116.3289992  45.9184990  16.5709997 115.6609992  46.7894990  17.6129997
 115.9417082  46.6600596  16.7999469 120.5789992  47.8914990   1.7109997
 120.1199992  47.4074990   2.3959997 120.8339992  47.2224990   1.0749997
 120.5505997  47.7348491   1.7188734 119.8679992  45.7844990  14.0669997
 119.2499992  46.4584990  14.3469997 120.2119992  46.1054990  13.2329997
 119.8298078  45.9202298  13.9926609 121.6499992  46.1344990  -0.0270003
 121.4699992  45.9794990  -0.9540003 122.5999992  46.2424990   0.0179997
 121.7537804  46.1278821  -0.1478034 124.8879992  48.2554990  17.3439997
 125.8409992  48.3394990  17.3169997 124.7279992  47.5434990  17.9629997
 124.9967320  48.1707292  17.4239933 108.6539992  29.1924990  86.5869997
 107.7259992  28.9614990  86.5599997 109.1049992  28.4154990  86.2569997
 108.5878165  29.0557785  86.5386772 131.0399992  48.4884990  -0.5810003
 130.7669992  48.0644990  -1.3940003 131.0799992  49.4204990  -0.7980003
 131.0080201  48.5563523  -0.7216452 120.2079992  43.1394990  15.1489997
 120.3579992  42.4104990  14.5469997 120.2099992  43.9164990  14.5899997
 120.2287967  43.1447720  14.9910523 120.6199992  41.5084990  12.6419997
 121.1559992  41.9604990  11.9899997 119.7679992  41.4004990  12.2189997
 120.5781795  41.5557444  12.4956211 122.2019992  46.9484990  12.8809997
 122.9529992  46.7924990  12.3079997 121.8629992  47.8004990  12.6059997
 122.2589587  47.0423149  12.7654060 126.6179992  44.7634990  17.9099997
 126.8099992  43.8324990  17.7979997 127.4749992  45.1884990  17.8989997
 126.7602176  44.6935090  17.8931757 127.9339992  47.5524990  15.9869997
 127.6529992  48.2614990  15.4089997 128.8769992  47.4794990  15.8359997
 128.0229272  47.6396704  15.8874976 118.6859992  44.3374990  17.0599997
 117.9189992  43.8044990  16.8499997 119.3649992  44.0274990  16.4609997
 118.6728292  44.2226360  16.9502693 121.4259992  38.9654990  13.0729997
 121.3279992  39.9114990  12.9679997 120.6829992  38.5924990  12.5969997
 121.3122123  39.0446811  12.9943204 122.6899992  43.2864990  16.6369997
 122.4539992  43.0674990  17.5379997 121.9069992  43.0794990  16.1269997
 122.5518382  43.2285340  16.6913991 125.4059992  42.4144990  15.7119997
 124.4579992  42.4464990  15.8439997 125.7179992  41.7884990  16.3659997
 125.3185293  42.3342934  15.8184130 101.1969992  33.5214990  82.7199997
 101.7239992  34.2944990  82.5189997 100.3169992  33.7454990  82.4179997
 101.1501793  33.6576652  82.6516304 127.0399992  41.0484990  17.7169997
 126.9429992  40.0964990  17.7119997 126.7179992  41.3164990  18.5779997
 126.9832468  40.9545896  17.8326192 116.8669992  42.2574990  16.7649997
 117.0779992  41.5514990  16.1549997 116.7549992  41.8204990  17.6089997
 116.8807668  42.1016619  16.7955445 121.6479992  38.2594990  15.7439997
 122.3589992  37.6194990  15.7299997 121.5469992  38.5254990  14.8309997
 121.7316858  38.2078591  15.6185501 122.0009992  39.9414990  17.7979997
 121.8699992  39.4664990  16.9779997 121.4019992  40.6864990  17.7429997
 121.9020829  39.9770949  17.6781823 121.5479992  56.8244990   0.9739997
 122.4809992  56.9824990   1.1179997 121.2829992  57.5004990   0.3489997
 121.6399846  56.9374567   0.9092930 115.1159992  51.4614990   0.4569997
 116.0299992  51.5404990   0.7299997 115.1229992  50.7744990  -0.2090003
 115.2420624  51.3794074   0.4043045 113.7649992  56.8544990   5.5339997
 113.1179992  56.3924990   5.0019997 114.1199992  56.1824990   6.1169997
 113.7243741  56.7004785   5.5399157 114.6349992  54.9344990   7.3389997
 114.3009992  54.0544990   7.5109997 114.8569992  55.2804990   8.2039997
 114.6192565  54.8607410   7.4794263 132.1839992  55.7444990  10.3199997
 132.1619992  55.9294990  11.2579997 132.8739992  56.3124990   9.9789997
 132.2743383  55.8467104  10.4024580 131.7469992  55.3114990  13.2409997
 131.2599992  54.5754990  12.8699997 132.2959992  54.9174990  13.9189997
 131.7546101  55.1576267  13.2819034 102.6239992  31.1844990  82.2959997
 102.3829992  32.1094990  82.3379997 101.8839992  30.7254990  82.6919997
 102.4908934  31.2490881  82.3553191 130.1979992  51.1014990  17.8789997
 129.3319992  50.9964990  18.2739997 130.5739992  51.8594990  18.3259997
 130.1304940  51.1896141  17.9933958 131.4989992  49.3574990   3.3939997
 132.3489992  49.7784990   3.5209997 131.5039992  48.6174990   4.0009997
 131.6161143  49.3151106   3.4934732 131.8929992  47.4114990   5.2169997
 131.1669992  46.9314990   5.6149997 132.4739992  47.6164990   5.9489997
 131.8722504  47.3735592   5.3704199 131.6519992  50.1964990  10.1649997
 132.4859992  49.8184990   9.8839997 131.7639992  51.1394990  10.0459997
 131.7811917  50.2722954  10.1104844 130.1379992  53.0744990  12.4719997
 129.4909992  53.3994990  13.0969997 129.6209992  52.6334990  11.7979997
 129.9794112  53.0594133  12.4665272 132.1609992  47.3124990   1.6079997
 131.6399992  47.6684990   0.8899997 132.1279992  47.9874990   2.2869997
 132.0850955  47.4525023   1.6012634 130.5099992  44.5514990   0.1589997
 130.6069992  45.2184990  -0.5210003 130.3699992  43.7364990  -0.3220003
 130.5043407  44.5325670   0.0008312 129.6799992  45.9324990   5.7799997
 129.5299992  44.9874990   5.7599997 129.3259992  46.2134990   6.6239997
 129.6116351  45.8411656   5.8913202 114.7149992  48.0104990   9.7909997
 114.8989992  47.9284990   8.8549997 115.5639992  47.8864990  10.2139997
 114.8550132  47.9825066   9.7201460 130.5359992  47.9024990  15.4189997
 131.1189992  47.1674990  15.6109997 131.0999992  48.6744990  15.4659997
 130.6919781  47.9063156  15.4516146 103.1389992  35.3334990  88.6109997
 103.5019992  36.1874990  88.3779997 103.6709992  35.0414990  89.3519997
 103.2605141  35.4108907  88.6792079 132.0329992  45.8054990  16.1039997
 131.1689992  45.4264990  15.9379997 132.6369992  45.0664990  16.0289997
 131.9965394  45.6538378  16.0711778 129.3899992  43.5144990   4.2429997
 129.6699992  42.6074990   4.3669997 130.1489992  43.9484990   3.8539997
 129.5309258  43.4490935   4.2073691 130.0019992  44.0964990   9.6789997
 130.9349992  44.3084990   9.6439997 129.7669992  44.1974990  10.6009997
 130.0979517  44.1391844   9.7989113 130.0309992  44.8334990  12.4549997
 129.1879992  45.1014990  12.8199997 130.4739992  45.6554990  12.2439997
 129.9754035  44.9813351  12.4764770 114.3119992  43.2804990  15.9309997
 115.2319992  43.1584990  16.1679997 113.8629992  42.5304990  16.3209997
 114.3770500  43.1624576  16.0161016 132.3139992  38.8134990  17.8079997
 132.6639992  38.1594990  17.2019997 132.4609992  39.6504990  17.3679997
 132.3817192  38.8372545  17.6656712 130.0039992  40.7774990   4.2909997
 130.1859992  40.3284990   5.1159997 129.4039992  40.1934990   3.8269997
 129.9478187  40.6370563   4.3412721 115.5339992  41.5934990   8.8229997
 115.9789992  40.8014990   9.1249997 115.9999992  42.3094990   9.2529997
 115.6579718  41.5819546   8.9225247 113.8379992  44.5924990   9.8919997
 114.3299992  44.3714990   9.1009997 114.1999992  45.4324990  10.1729997
 113.9542923  44.6758480   9.8217389 131.8339992  40.9224990  16.1569997
 130.9169992  41.1934990  16.1209997 131.9569992  40.3874990  15.3729997
 131.7250828  40.8872711  16.0460767 101.3069992  36.2054990  81.8409997
 100.3579992  36.3114990  81.8929997 101.6589992  37.0264990  82.1859997
 101.2246214  36.3309361  81.8947317 131.8699992  40.8454990   0.8189997
 132.2829992  40.1244990   0.3439997 132.5519992  41.5144990   0.8769997
 132.0186060  40.8373741   0.7619233 114.1509992  40.8504990   3.9459997
 113.2259992  41.0584990   3.8169997 114.6049992  41.3344990   3.2559997
 114.0856298  40.9444311   3.8350433 128.9219992  55.8344990   5.8919997
 129.5739992  55.4864990   5.2839997 129.4329992  56.3224990   6.5379997
 129.0802872  55.8528248   5.8960964 114.1149992  39.5884990  12.2899997
 113.4499992  39.3424990  12.9329997 113.6719992  40.2104990  11.7129997
 113.9641168  39.6389225  12.2999830 116.3069992  52.7634990  16.4349997
 115.4859992  52.9384990  15.9739997 116.0549992  52.6904990  17.3549997
 116.1605594  52.7775728  16.4963593 119.2609992  53.7374990  12.6929997
 118.8359992  54.5474990  12.4109997 120.1649992  53.8234990  12.3909997
 119.3250706  53.8599557  12.6135836 123.5719992  55.1364990  15.6529997
 123.7569992  54.8034990  16.5309997 124.4189992  55.4464990  15.3309997
 123.7117291  55.1328214  15.7296140 125.9169992  56.4224990  14.8969997
 126.5939992  55.7894990  14.6569997 126.2389992  56.8234990  15.7039997
 126.0531618  56.3901147  14.9732802 130.8349992  39.0124990  13.9759997
 130.0219992  39.3374990  13.5889997 131.0679992  38.2514990  13.4429997
 130.7551347  38.9541891  13.8509824 116.6629992  56.9944990  12.7409997
 115.9419992  57.4344990  12.2899997 116.2969992  56.7434990  13.5889997
 116.5149632  57.0207235  12.7939649 106.6829992  31.4324990  88.3119997
 106.2569992  31.2044990  89.1379997 107.2639992  30.6934990  88.1289997
 106.7031587  31.3014084  88.4004111 119.1299992  56.5944990  11.7699997
 118.2649992  56.6664990  12.1739997 119.0749992  57.1414990  10.9869997
 119.0042289  56.6783242  11.7193749 123.8409992  56.4824990  10.9459997
 123.3839992  57.0114990  10.2919997 124.0029992  57.0854990  11.6709997
 123.8003919  56.6363990  10.9545740 126.1679992  55.3604990  11.8909997
 125.2639992  55.5254990  11.6249997 126.5969992  56.2134990  11.8249997
 126.1022017  55.4984184  11.8456495 128.7719992  56.9304990  12.1859997
 128.5909992  57.8464990  11.9749997 128.9489992  56.5194990  11.3389997
 128.7711377  57.0003365  12.0427178 116.0779992  55.6174990   9.6509997
 116.0589992  55.1914990  10.5079997 116.8819992  55.2984990   9.2419997
 116.1841393  55.5160297   9.7130155 118.2189992  54.3274990   8.3059997
 117.9999992  53.4104990   8.4759997 119.0429992  54.4674990   8.7719997
 118.3004702  54.2210523   8.3922510 120.7559992  54.7974990   9.1549997
 120.9689992  53.9094990   8.8679997 120.8209992  54.7624990  10.1089997
 120.7939149  54.6713338   9.2447351 124.2649992  40.4614990   8.2989997
 123.5899992  39.8314990   8.5549997 124.8289992  39.9774990   7.6959997
 124.2489363  40.3098886   8.2524810 129.4069992  38.5684990   8.4119997
 130.0109992  39.1164990   7.9099997 128.5379992  38.8874990   8.1709997
 129.3720419  38.6865628   8.3107741 131.1339992  39.7074990   6.7449997
 131.7459992  39.1934990   6.2179997 131.5169992  40.5844990   6.7679997
 131.2693867  39.7557613   6.6760888 109.3419992  35.9844990  90.7809997
 108.7399992  35.4284990  90.2859997 109.6229992  36.6514990  90.1549997
 109.2975757  35.9985755  90.6285657 116.5909992  39.0954990   6.1209997
 115.8139992  38.8604990   5.6139997 117.1219992  38.2984990   6.1299997
 116.5563735  38.9556462   6.0528090 115.4279992  38.8934990   1.9249997
 115.8669992  39.5044990   1.3329997 114.7939992  39.4314990   2.3989997
 115.4023859  39.0499076   1.9080287 121.1709992  39.0214990   5.9339997
 122.0449992  39.4104990   5.9049997 121.0349992  38.8064990   6.8569997
 121.2721953  39.0456654   6.0547599 126.7269992  39.0514990   7.5839997
 126.8039992  39.1474990   6.6339997 126.4519992  38.1444990   7.7119997
 126.7003233  38.9419093   7.4713665 128.0809992  39.0774990   3.2759997
 127.3779992  39.6924990   3.0659997 127.6359992  38.2404990   3.4069997
 127.9246550  39.0484679   3.2649819 115.3289992  54.8414990   2.8219997
 114.6439992  54.8034990   2.1549997 115.3319992  55.7534990   3.1099997
 115.2356806  54.9596669   2.7696961 117.2889992  40.8094990   0.3669997
 117.7799992  40.1794990  -0.1600003 117.9119992  41.1054990   1.0299997
 117.4405304  40.7632387   0.3844922 122.3149992  41.1024990   2.8239997
 122.4929992  40.4554990   3.5069997 122.2609992  41.9364990   3.2909997
 122.3320678  41.1266615   2.9806283 124.1929992  56.0504990   1.2199997
 125.0589992  56.4174990   1.0419997 123.9459992  55.6114990   0.4059997
 124.2781853  56.0414021   1.0855813 130.9019992  55.6134990   3.8989997
 130.7079992  54.8654990   3.3339997 130.8629992  56.3714990   3.3159997
 130.8701645  55.6135797   3.7428131  97.4639992  23.2174990  90.1879997
  96.5709992  23.5554990  90.1209997  97.3649992  22.3614990  90.6059997
  97.3285241  23.1480941  90.2352982 116.5489992  39.6094990  15.6389997
 116.1829992  38.8434990  16.0809997 117.4619992  39.6384990  15.9249997
 116.6223172  39.5085335  15.7381872 118.5219992  38.9594990  17.1739997
 119.4209992  38.6854990  16.9899997 118.1359992  38.2174990  17.6389997
 118.5927307  38.8217207  17.2117080 117.1469992  55.7614990  -0.1530003
 116.8789992  56.0474990   0.7209997 117.9179992  55.2154990  -0.0000003
 117.2145926  55.7267790  -0.0128812 126.9429992  38.2924990  17.3569997
 127.0199992  37.8664990  18.2099997 127.8369992  38.3054990  17.0139997
 127.0743263  38.2359345  17.4274366 130.1199992  54.3644990  16.0489997
 129.3379992  54.1784990  15.5289997 130.0479992  55.2944990  16.2659997
 130.0032975  54.4646973  16.0071822 135.8269992  47.1204990  11.0919997
 135.8679992  46.4954990  11.8149997 136.5299992  47.7444990  11.2739997
 135.9276223  47.1192318  11.2156164 136.7509992  51.5704990   9.6269997
 136.3809992  50.7684990   9.2569997 137.6919992  51.4024990   9.6729997
 136.8275984  51.4379649   9.5825586 133.3609992  45.2304990   5.0189997
 132.9129992  46.0764990   5.0009997 132.7999992  44.6514990   4.5039997
 133.2238546  45.2679004   4.9468874 134.0709992  47.3924990   7.1449997
 134.2849992  46.6224990   7.6719997 134.8089992  47.4824990   6.5419997
 134.2000073  47.2993546   7.1355786 138.1439992  42.4344990   7.5049997
 138.1869992  43.2944990   7.0859997 137.6859992  41.8814990   6.8709997
 138.0880163  42.4774174   7.3620604 109.7519992  31.0334990  79.6119997
 109.4749992  30.3054990  80.1679997 110.6789992  31.1524990  79.8179997
 109.8394181  30.9500068  79.7158972 134.7639992  44.8314990   8.2669997
 135.4179992  44.2814990   8.6989997 134.7879992  44.5574990   7.3499997
 134.8567199  44.7192178   8.2021650 136.9539992  41.3524990  11.5789997
 136.7349992  41.8824990  10.8119997 136.2859992  41.5784990  12.2259997
 136.8336975  41.4555979  11.5615123 139.5229992  49.0274990  11.8659997
 138.7829992  49.6264990  11.9699997 140.2369992  49.5814990  11.5499997
 139.5183146  49.1842611  11.8375150 136.5479992  43.2444990   9.5309997
 137.1609992  43.8774990   9.9039997 137.0599992  42.7724990   8.8749997
 136.7011933  43.2673380   9.4933477 137.9299992  50.9924990  12.6529997
 137.9249992  51.8714990  12.2749997 137.0769992  50.9084990  13.0779997
 137.8139199  51.1015901  12.6586942 134.0519992  50.6634990   3.4349997
 133.7799992  50.8924990   2.5459997 134.0969992  51.5004990   3.8959997
 134.0208360  50.8081034   3.3756186 138.2979992  48.3354990   6.3659997
 137.9679992  47.9644990   5.5479997 138.8859992  47.6644990   6.7129997
 138.3323182  48.1940648   6.3009898 138.6649992  47.1034990   9.9989997
 139.2299992  47.2254990   9.2369997 138.9829992  47.7414990  10.6379997
 138.7853619  47.2064388   9.9810019 139.5449992  51.5034990  14.7169997
 139.2329992  52.2854990  15.1719997 138.8949992  51.3504990  14.0309997
 139.4144858  51.5897882  14.6865344 136.4649992  47.7014990  13.9449997
 136.5349992  48.3524990  14.6439997 135.5739992  47.8044990  13.6099997
 136.3541690  47.8044261  13.9953026  97.1149992  35.0214990  88.6229997
  97.3319992  34.0894990  88.5919997  97.3619992  35.2964990  89.5069997
  97.1780543  34.9310877  88.7381412 137.7839992  53.5744990  15.4799997
 137.7919992  53.4384990  14.5329997 136.8679992  53.4574990  15.7319997
 137.6612528  53.5400475  15.3843226 137.2879992  47.4044990   3.9549997
 136.9959992  48.1724990   3.4639997 136.6139992  46.7454990   3.7919997
 137.1568843  47.4204537   3.8657695 133.3809992  49.7674990  12.7699997
 132.8799992  49.7394990  11.9549997 133.3869992  48.8624990  13.0799997
 133.3131690  49.6412234  12.7002770 133.1319992  52.5484990   9.6539997
 134.0779992  52.4034990   9.6349997 133.0189992  53.3324990  10.1909997
 133.2463578  52.6346708   9.7240300 136.3759992  55.3494990   5.7999997
 136.5279992  55.0014990   6.6779997 135.5249992  54.9924990   5.5439997
 136.2818344  55.2535891   5.8856851 135.6299992  51.0914990  13.8129997
 135.8459992  50.7294990  14.6729997 134.7749992  50.7164990  13.6039997
 135.5439082  50.9913377  13.9022396 138.2489992  39.5614990   9.8089997
 137.3869992  39.4744990   9.4009997 138.2269992  40.4174990  10.2369997
 138.1280557  39.6653078   9.8110202 138.3399992  44.5264990  10.9039997
 137.6979992  44.4864990  11.6129997 138.3769992  45.4534990  10.6659997
 138.2571659  44.6462540  10.9688463 138.3369992  44.7474990   5.8159997
 137.4439992  44.4074990   5.7569997 138.7879992  44.3704990   5.0599997
 138.2757185  44.6500220   5.7057698 136.0899992  44.8474990  12.7709997
 136.0519992  45.2474990  13.6399997 135.5989992  44.0304990  12.8609997
 136.0184374  44.7918228  12.9020980 101.9139992  33.0434990  78.2889997
 102.0609992  32.5234990  79.0789997 101.9109992  33.9504990  78.5949997
 101.9337300  33.0948975  78.4385877 139.4559992  42.2214990  -0.4300003
 139.0249992  41.7764990   0.2989997 138.7379992  42.5924990  -0.9430003
 139.2999176  42.2107063  -0.3995087 132.6979992  41.9634990   6.6219997
 133.3289992  41.9344990   7.3409997 133.1479992  41.5384990   5.8909997
 132.8451082  41.9021269   6.6216307 133.9719992  42.7094990   2.0459997
 134.4469992  43.3004990   1.4609997 133.2549992  43.2394990   2.3929997
 133.9400406  42.8621011   2.0128495 135.7469992  43.8044990   5.7289997
 134.8579992  43.9034990   5.3889997 136.0429992  42.9624990   5.3829997
 135.6654001  43.7042473   5.6357318 139.3999992  43.8044990   3.3859997
 140.3319992  43.9334990   3.5639997 139.1849992  44.4734990   2.7359997
 139.4984472  43.9125817   3.3224873 138.0739992  44.9984990   0.9519997
 137.5319992  44.6194990   0.2609997 138.9079992  45.1934990   0.5239997
 138.1124390  44.9729091   0.7994374 136.2089992  49.5554990  16.0509997
 136.9409992  49.8104990  16.6129997 135.4289992  49.7604990  16.5669997
 136.2036526  49.6180438  16.1975168 137.2409992  41.0994990   5.2079997
 136.9229992  40.1964990   5.1719997 138.0219992  41.1014990   4.6549997
 137.3031079  40.9762240   5.1282908 136.5339992  48.8594990   8.6579997
 137.2789992  48.8564990   8.0559997 136.6119992  48.0354990   9.1389997
 136.6463365  48.7477395   8.6407412 133.5419992  47.3194990  13.9729997
 133.7649992  46.9014990  14.8039997 132.9399992  46.7074990  13.5499997
 133.4911513  47.1794617  14.0296722 106.1979992  22.9584990  89.0779997
 106.8969992  23.0324990  89.7279997 105.8179992  22.0934990  89.2329997
 106.2422095  22.8517402  89.1877982 138.9089992  52.3774990   6.0619997
 139.4359992  53.1504990   5.8619997 138.0289992  52.6014990   5.7599997
 138.8622121  52.5137344   5.9937460 134.6639992  47.2394990   0.6489997
 135.2799992  47.8664990   1.0289997 133.8019992  47.5554990   0.9209997
 134.6317678  47.3679423   0.7377192 139.0189992  55.0614990   5.1839997
 138.0699992  55.1674990   5.2349997 139.3709992  55.8824990   5.5279997
 138.9365647  55.1870029   5.2374882 135.1759992  42.0734990  13.5309997
 134.2829992  42.4114990  13.4629997 135.0769992  41.2174990  13.9489997
 135.0404752  42.0040986  13.5781644 134.8269992  53.8774990  11.9659997
 135.0439992  52.9454990  11.9349997 135.0739992  54.1524990  12.8489997
 134.8900948  53.7870976  12.0811268 136.0789992  49.1514990   2.1419997
 135.3929992  49.5044990   2.7089997 136.6019992  49.9144990   1.8949997
 136.0558402  49.3028912   2.1861783 138.4359992  41.3384990   1.9779997
 138.3529992  42.2264990   2.3249997 139.3259992  41.0734990   2.2099997
 138.5449331  41.4241177   2.0568067 136.6949992  51.7654990   1.0379997
 137.2869992  52.4654990   1.3149997 137.1539992  51.3324990   0.3189997
 136.8381652  51.8027686   0.9786515 135.0109992  44.4304990   0.1539997
 134.9659992  45.3694990   0.3329997 134.1229992  44.1944990  -0.1150003
 134.8848166  44.5271698   0.1421507 135.8189992  39.2114990   8.8269997
 135.5899992  39.2704990   7.8999997 135.3759992  38.4204990   9.1339997
 135.7277387  39.1126412   8.7415223 106.9829992  22.6104990  80.1749997
 107.2029992  23.0814990  79.3719997 107.5409992  23.0044990  80.8459997
 107.0885851  22.7283272  80.1556134 134.7489992  53.1524990   4.9879997
 133.9169992  53.6244990   5.0149997 135.2949992  53.6624990   4.3889997
 134.7088710  53.2860317   4.9107570 134.0379992  55.7644990  16.3179997
 134.5779992  55.5484990  17.0779997 133.5559992  54.9594990  16.1279997
 134.0468485  55.6260463  16.3964870 138.6349992  54.6844990  17.9379997
 139.4029992  54.2254990  18.2789997 138.6139992  54.4584990  17.0079997
 138.7372135  54.5911680  17.8589473 133.9449992  49.5754990  17.2719997
 134.0889992  48.6734990  16.9859997 133.1719992  49.8614990  16.7849997
 133.8602266  49.4906548  17.1670102 138.2859992  49.9184990  -0.5950003
 138.3499992  49.1244990  -0.0650003 138.9389992  49.8004990  -1.2850003
 138.3830483  49.7937496  -0.6156593 134.7769992  46.7754990  16.6919997
 135.1849992  45.9184990  16.5709997 134.5169992  46.7894990  17.6129997
 134.7977082  46.6600596  16.7999469 139.4349992  47.8914990   1.7109997
 138.9759992  47.4074990   2.3959997 139.6899992  47.2224990   1.0749997
 139.4065997  47.7348491   1.7188734 138.7239992  45.7844990  14.0669997
 138.1059992  46.4584990  14.3469997 139.0679992  46.1054990  13.2329997
 138.6858078  45.9202298  13.9926609 139.0639992  43.1394990  15.1489997
 139.2139992  42.4104990  14.5469997 139.0659992  43.9164990  14.5899997
 139.0847967  43.1447720  14.9910523 139.4759992  41.5084990  12.6419997
 140.0119992  41.9604990  11.9899997 138.6239992  41.4004990  12.2189997
 139.4341795  41.5557444  12.4956211 104.6519992  34.7404990  79.0379997
 103.8349992  35.2374990  79.0909997 105.1809992  35.2164990  78.3979997
 104.6117898  34.8728123  78.9587274 137.5419992  44.3374990  17.0599997
 136.7749992  43.8044990  16.8499997 138.2209992  44.0274990  16.4609997
 137.5288292  44.2226360  16.9502693 135.7229992  42.2574990  16.7649997
 135.9339992  41.5514990  16.1549997 135.6109992  41.8204990  17.6089997
 135.7367668  42.1016619  16.7955445 133.9719992  51.4614990   0.4569997
 134.8859992  51.5404990   0.7299997 133.9789992  50.7744990  -0.2090003
 134.0980624  51.3794074   0.4043045 132.6209992  56.8544990   5.5339997
 131.9739992  56.3924990   5.0019997 132.9759992  56.1824990   6.1169997
 132.5803741  56.7004785   5.5399157 133.4909992  54.9344990   7.3389997
 133.1569992  54.0544990   7.5109997 133.7129992  55.2804990   8.2039997
 133.4752565  54.8607410   7.4794263 133.5709992  48.0104990   9.7909997
 133.7549992  47.9284990   8.8549997 134.4199992  47.8864990  10.2139997
 133.7110132  47.9825066   9.7201460 133.1679992  43.2804990  15.9309997
 134.0879992  43.1584990  16.1679997 132.7189992  42.5304990  16.3209997
 133.2330500  43.1624576  16.0161016 134.3899992  41.5934990   8.8229997
 134.8349992  40.8014990   9.1249997 134.8559992  42.3094990   9.2529997
 134.5139718  41.5819546   8.9225247 132.6939992  44.5924990   9.8919997
 133.1859992  44.3714990   9.1009997 133.0559992  45.4324990  10.1729997
 132.8102923  44.6758480   9.8217389 133.0069992  40.8504990   3.9459997
 132.0819992  41.0584990   3.8169997 133.4609992  41.3344990   3.2559997
 132.9416298  40.9444311   3.8350433 104.1829992  24.3384990  81.0099997
 104.9949992  24.8424990  81.0559997 103.9379992  24.1934990  81.9239997
 104.2611091  24.3879366  81.1398552 132.9709992  39.5884990  12.2899997
 132.3059992  39.3424990  12.9329997 132.5279992  40.2104990  11.7129997
 132.8201168  39.6389225  12.2999830 135.1629992  52.7634990  16.4349997
 134.3419992  52.9384990  15.9739997 134.9109992  52.6904990  17.3549997
 135.0165594  52.7775728  16.4963593 138.1169992  53.7374990  12.6929997
 137.6919992  54.5474990  12.4109997 139.0209992  53.8234990  12.3909997
 138.1810706  53.8599557  12.6135836 135.5189992  56.9944990  12.7409997
 134.7979992  57.4344990  12.2899997 135.1529992  56.7434990  13.5889997
 135.3709632  57.0207235  12.7939649 137.9859992  56.5944990  11.7699997
 137.1209992  56.6664990  12.1739997 137.9309992  57.1414990  10.9869997
 137.8602290  56.6783242  11.7193749 134.9339992  55.6174990   9.6509997
 134.9149992  55.1914990  10.5079997 135.7379992  55.2984990   9.2419997
 135.0401393  55.5160297   9.7130155 137.0749992  54.3274990   8.3059997
 136.8559992  53.4104990   8.4759997 137.8989992  54.4674990   8.7719997
 137.1564702  54.2210523   8.3922510 135.4469992  39.0954990   6.1209997
 134.6699992  38.8604990   5.6139997 135.9779992  38.2984990   6.1299997
 135.4123735  38.9556462   6.0528090 134.2839992  38.8934990   1.9249997
 134.7229992  39.5044990   1.3329997 133.6499992  39.4314990   2.3989997
 134.2583859  39.0499076   1.9080287 134.1849992  54.8414990   2.8219997
 133.4999992  54.8034990   2.1549997 134.1879992  55.7534990   3.1099997
 134.0916806  54.9596669   2.7696961 104.7189992  25.3244990  90.1949997
 104.8379992  25.8984990  90.9519997 105.3739992  24.6364990  90.3099997
 104.8238684  25.3100205  90.3141656 136.1449992  40.8094990   0.3669997
 136.6359992  40.1794990  -0.1600003 136.7679992  41.1054990   1.0299997
 136.2965304  40.7632387   0.3844922 135.4049992  39.6094990  15.6389997
 135.0389992  38.8434990  16.0809997 136.3179992  39.6384990  15.9249997
 135.4783172  39.5085335  15.7381872 137.3779992  38.9594990  17.1739997
 138.2769992  38.6854990  16.9899997 136.9919992  38.2174990  17.6389997
 137.4487307  38.8217207  17.2117080 136.0029992  55.7614990  -0.1530003
 135.7349992  56.0474990   0.7209997 136.7739992  55.2154990  -0.0000003
 136.0705926  55.7267790  -0.0128812  12.5339992  67.1074990   6.0799997
  12.6229992  68.0514990   5.9469997  11.8949992  66.8324990   5.4219997
  12.4598378  67.1993846   5.9729258  11.4669992  66.3624990   9.4989997
  11.4279992  65.7164990  10.2039997  11.1439992  65.8954990   8.7269997
  11.4180469  66.2110005   9.4912803   3.8349992  65.9764990  11.0919997
   3.8759992  65.3514990  11.8149997   4.5379992  66.6004990  11.2739997
   3.9356223  65.9752318  11.2156164  15.1729992  69.3014990   7.7999997
  14.7319992  68.5814990   8.2509997  15.1599992  70.0224990   8.4299997
  15.1109215  69.3004303   7.9468088   4.7589992  70.4264990   9.6269997
   4.3889992  69.6244990   9.2569997   5.6999992  70.2584990   9.6729997
   4.8355984  70.2939649   9.5825586   1.3689992  64.0864990   5.0189997
   0.9209992  64.9324990   5.0009997   0.8079992  63.5074990   4.5039997
   1.2318546  64.1239004   4.9468874 105.0669992  21.4194990  81.9479997
 104.7199992  22.0364990  82.5929997 105.7249992  21.9204990  81.4669997
 105.1085290  21.5716384  81.9711635   2.0789992  66.2484990   7.1449997
   2.2929992  65.4784990   7.6719997   2.8169992  66.3384990   6.5419997
   2.2080073  66.1553546   7.1355786  12.2839992  74.4054990   8.0119997
  12.9039992  73.7294990   7.7389997  12.0759992  74.1874990   8.9209997
  12.3407679  74.2835032   8.0974518   9.8559992  68.7944990   9.9049997
  10.1599992  68.1084990   9.3099997  10.5779992  68.9134990  10.5229997
   9.9951240  68.7167325   9.9070941  18.5189992  60.3964990  10.7649997
  18.5679992  61.0064990  11.5009997  18.9449992  60.8574990  10.0419997
  18.5832851  60.5423266  10.7680532  12.9969992  63.1884990  10.2319997
  13.1389992  62.2424990  10.2519997  12.8909992  63.3954990   9.3039997
  13.0021051  63.0869706  10.1092249   6.1519992  61.2904990   7.5049997
   6.1949992  62.1504990   7.0859997   5.6939992  60.7374990   6.8709997
   6.0960163  61.3334174   7.3620604  13.8739992  61.4214990   5.9049997
  14.5199992  61.0924990   6.5299997  14.3839992  61.9384990   5.2829997
  14.0314289  61.4464333   5.9063681   2.7719992  63.6874990   8.2669997
   3.4259992  63.1374990   8.6989997   2.7959992  63.4134990   7.3499997
   2.8647199  63.5752178   8.2021650   7.9279992  65.2374990   7.4819997
   8.5439992  64.7104990   7.9909997   7.3419992  64.5974990   7.0779997
   7.9330652  65.0788919   7.4970277  18.9109992  61.8744990  13.0009997
  18.2219992  62.5324990  12.9059997  18.9259992  61.6764990  13.9379997
  18.8187756  61.9377614  13.1145795 101.9899992  35.7844990  79.0199997
 102.1509992  36.5844990  78.5189997 101.7929992  36.0914990  79.9049997
 101.9853919  35.9354140  79.0710988   4.9619992  60.2084990  11.5789997
   4.7429992  60.7384990  10.8119997   4.2939992  60.4344990  12.2259997
   4.8416975  60.3115979  11.5615123  12.3309992  69.7084990   5.1229997
  12.0349992  69.3854990   4.2709997  12.0069992  70.6084990   5.1639997
  12.2467458  69.7859678   5.0120598   7.5309992  67.8834990  11.8659997
   6.7909992  68.4824990  11.9699997   8.2449992  68.4374990  11.5499997
   7.5263146  68.0402611  11.8375150  15.6379992  60.7124990   7.8859997
  15.4229992  59.9464990   8.4189997  16.2939992  61.1844990   8.3989997
  15.6972673  60.6715739   8.0281972   4.5559992  62.1004990   9.5309997
   5.1689992  62.7334990   9.9039997   5.0679992  61.6284990   8.8749997
   4.7091933  62.1233380   9.4933477   5.9379992  69.8484990  12.6529997
   5.9329992  70.7274990  12.2749997   5.0849992  69.7644990  13.0779997
   5.8219199  69.9575901  12.6586942   2.0599992  69.5194990   3.4349997
   1.7879992  69.7484990   2.5459997   2.1049992  70.3564990   3.8959997
   2.0288360  69.6641034   3.3756186  15.6849992  71.1404990  10.1479997
  14.7429992  71.1994990  10.3099997  15.9609992  72.0464990  10.0109997
  15.5935865  71.2710299  10.1516174  15.9849992  59.4274990  11.5649997
  15.2489992  60.0374990  11.5279997  16.6689992  59.8424990  11.0389997
  15.9765367  59.5672562  11.4888156   8.9879992  57.5134990   9.0309997
   8.8709992  56.5654990   8.9769997   8.1329992  57.8464990   9.3039997
   8.8563691  57.4285842   9.0605072 100.7239992  22.4824990  78.6359997
 100.6409992  23.3704990  78.9819997 101.6139992  22.2174990  78.8669997
 100.8329751  22.5682482  78.7146066  13.9369992  72.9214990   6.7729997
  14.3619992  72.2144990   6.2879997  14.2539992  73.7234990   6.3559997
  14.0380266  72.9330201   6.6502461  15.0959992  70.8224990   5.2819997
  14.8389992  70.1324990   4.6699997  15.1669992  70.3794990   6.1269997
  15.0704322  70.6681568   5.3125372  16.7819992  69.3894990  13.7589997
  16.9219992  68.7974990  13.0199997  16.9499992  70.2624990  13.4029997
  16.8238734  69.4264041  13.6096937  11.2549992  66.3514990   3.5319997
  10.5429992  66.8864990   3.1799997  11.9459992  66.4064990   2.8719997
  11.2509704  66.4321663   3.3945797  11.3089992  64.8084990   0.5699997
  12.0099992  64.8314990   1.2219997  11.6109992  64.1804990  -0.0860003
  11.4458202  64.7267223   0.5705591  18.6239992  65.7294990  11.8249997
  17.9719992  66.4234990  11.9139997  19.0889992  65.9394990  11.0149997
  18.5975357  65.8529544  11.7277056  14.6609992  66.5604990   4.4829997
  13.9289992  66.7894990   5.0559997  15.1079992  65.8474990   4.9379997
  14.6212753  66.4953984   4.6229698  14.5579992  64.7354990  13.5509997
  14.6379992  65.4984990  14.1229997  13.9569992  65.0144990  12.8609997
  14.4876547  64.8777468  13.5360029   6.3059992  67.1914990   6.3659997
   5.9759992  66.8204990   5.5479997   6.8939992  66.5204990   6.7129997
   6.3403182  67.0500648   6.3009898   7.6729992  70.6194990   9.0469997
   7.5779992  70.0404990   8.2909997   8.4019992  70.2484990   9.5429997
   7.7586011  70.4900572   9.0106011 110.9229992  23.2314990  91.0299997
 110.0069992  23.4934990  90.9419997 111.2589992  23.2284990  90.1329997
 110.8429789  23.2669637  90.8967829   6.6729992  65.9594990   9.9989997
   7.2379992  66.0814990   9.2369997   6.9909992  66.5974990  10.6379997
   6.7933619  66.0624388   9.9810019  12.9819992  71.4634990  10.7329997
  12.7409992  72.1254990  11.3809997  12.7839992  70.6284990  11.1579997
  12.9222662  71.4412704  10.8791008   7.5529992  70.3594990  14.7169997
   7.2409992  71.1414990  15.1719997   6.9029992  70.2064990  14.0309997
   7.4224858  70.4457882  14.6865344  13.5319992  65.7234990   2.1689997
  14.1109992  65.8734990   2.9149997  13.9459992  66.1934990   1.4449997
  13.6673358  65.8075966   2.1733935   4.4729992  66.5574990  13.9449997
   4.5429992  67.2084990  14.6439997   3.5819992  66.6604990  13.6099997
   4.3621690  66.6604261  13.9953026  11.2579992  72.4594990   5.6039997
  11.7319992  72.7554990   6.3809997  10.6949992  73.1984990   5.3709997
  11.2467890  72.5998047   5.6788084   5.7919992  72.4304990  15.4799997
   5.7999992  72.2944990  14.5329997   4.8759992  72.3134990  15.7319997
   5.6692528  72.3960475  15.3843226  17.2299992  57.4734990   1.9809997
  16.3299992  57.6114990   2.2769997  17.4819992  58.3044990   1.5799997
  17.1407727  57.6048705   1.9672935   5.2959992  66.2604990   3.9549997
   5.0039992  67.0284990   3.4639997   4.6219992  65.6014990   3.7919997
   5.1648843  66.2764537   3.8657695  18.4199992  71.8394990   0.3579997
  18.4929992  72.7784990   0.5279997  19.3249992  71.5344990   0.3019997
  18.5524170  71.9268294   0.3737045 109.5249992  26.9814990  85.1259997
 108.7279992  26.5664990  84.7969997 109.9699992  26.2914990  85.6169997
 109.4760317  26.8313197  85.1473556   1.3889992  68.6234990  12.7699997
   0.8879992  68.5954990  11.9549997   1.3949992  67.7184990  13.0799997
   1.3211690  68.4972234  12.7002770   1.1399992  71.4044990   9.6539997
   2.0859992  71.2594990   9.6349997   1.0269992  72.1884990  10.1909997
   1.2543578  71.4906708   9.7240300  19.3369992  72.0704990  15.3369997
  19.2879992  71.1144990  15.2989997  18.5109992  72.3374990  15.7379997
  19.2185096  71.9758416  15.3860698  10.3159992  71.6444990  14.2129997
  10.4029992  72.4704990  14.6879997   9.4519992  71.3144990  14.4619997
  10.2111944  71.7129871  14.3116558  10.7299992  75.4164990   4.0189997
  10.6549992  75.2954990   3.0719997  10.7629992  76.3654990   4.1369997
  10.7242083  75.5282639   3.9054973   4.3839992  74.2054990   5.7999997
   4.5359992  73.8574990   6.6779997   3.5329992  73.8484990   5.5439997
   4.2898344  74.1095891   5.8856851  13.8319992  74.5704990   1.0209997
  14.2069992  73.8264990   0.5499997  13.8359992  74.3004990   1.9389997
  13.8838969  74.4320920   1.0806475  13.5009992  74.4964990   3.7699997
  12.5659992  74.5964990   3.9489997  13.7809992  73.7864990   4.3489997
  13.4109471  74.4142944   3.8726678  16.4889992  63.5634990  15.8169997
  16.0819992  64.0434990  15.0959997  16.5299992  62.6574990  15.5089997
  16.4388403  63.5067989  15.6767253   3.6379992  69.9474990  13.8129997
   3.8539992  69.5854990  14.6729997   2.7829992  69.5724990  13.6039997
   3.5519082  69.8473377  13.9022396 110.6119992  36.2374990  86.7479997
 110.4559992  36.9164990  86.0909997 111.5439992  36.3094990  86.9509997
 110.7167328  36.3401586  86.6855529   6.2569992  58.4174990   9.8089997
   5.3949992  58.3304990   9.4009997   6.2349992  59.2734990  10.2369997
   6.1360557  58.5213078   9.8110202  10.9199992  58.1394990  13.1839997
  11.3399992  57.7244990  13.9369997   9.9869992  57.9604990  13.3009997
  10.8513736  58.0584921  13.3028950  14.2459992  61.8944990  14.0369997
  13.7319992  61.7694990  14.8349997  14.0909992  62.8074990  13.7929997
  14.1547802  62.0007433  14.1131504  15.0089992  66.7554990  -0.2020003
  15.0509992  66.5334990  -1.1320003  15.8579992  67.1544990  -0.0120003
  15.1295253  66.7790510  -0.3036196  10.5819992  60.6314990   0.4689997
  10.3279992  60.6504990   1.3909997  10.3249992  59.7604990   0.1669997
  10.5124508  60.5163292   0.5544786   6.3479992  63.3824990  10.9039997
   5.7059992  63.3424990  11.6129997   6.3849992  64.3094990  10.6659997
   6.2651659  63.5022540  10.9688463   6.3449992  63.6034990   5.8159997
   5.4519992  63.2634990   5.7569997   6.7959992  63.2264990   5.0599997
   6.2837185  63.5060220   5.7057698  11.8809992  64.0194990   4.6329997
  11.4719992  64.8344990   4.3409997  12.6009992  63.8794990   4.0189997
  11.9224439  64.1120383   4.5100098  10.9829992  64.1954990  16.1209997
  10.4199992  63.4904990  16.4419997  11.8089992  64.0744990  16.5889997
  11.0176674  64.0827176  16.2281734  12.8849992  63.4654990   7.4469997
  12.6899992  64.0714990   6.7319997  13.0669992  62.6324990   7.0129997
  12.8829195  63.4357936   7.2904079  98.1069992  20.3554990  85.4849997
  97.8779992  20.4144990  84.5579997  97.6639992  19.5644990  85.7919997
  98.0157387  20.2566412  85.3995223   4.0979992  63.7034990  12.7709997
   4.0599992  64.1034990  13.6399997   3.6069992  62.8864990  12.8609997
   4.0264374  63.6478228  12.9020980   7.4639992  61.0774990  -0.4300003
   7.0329992  60.6324990   0.2989997   6.7459992  61.4484990  -0.9430003
   7.3079176  61.0667063  -0.3995087   0.7059992  60.8194990   6.6219997
   1.3369992  60.7904990   7.3409997   1.1559992  60.3944990   5.8909997
   0.8531082  60.7581269   6.6216307   1.9799992  61.5654990   2.0459997
   2.4549992  62.1564990   1.4609997   1.2629992  62.0954990   2.3929997
   1.9480406  61.7181011   2.0128495  12.1489992  65.1034990  12.1179997
  12.4729992  64.4724990  11.4749997  11.7089992  64.5694990  12.7789997
  12.1338707  64.9448261  12.1193195   8.9269992  61.0314990   6.9019997
   8.0159992  61.0884990   7.1909997   9.4319992  60.9714990   7.7129997
   8.8706873  61.0311838   7.0511190   3.7549992  62.6604990   5.7289997
   2.8659992  62.7594990   5.3889997   4.0509992  61.8184990   5.3829997
   3.6734001  62.5602473   5.6357318   7.4079992  62.6604990   3.3859997
   8.3399992  62.7894990   3.5639997   7.1929992  63.3294990   2.7359997
   7.5064472  62.7685817   3.3224873  13.3319992  60.2664990  10.1659997
  12.6549992  60.3974990  10.8299997  12.8459992  60.1114990   9.3559997
  13.1737265  60.2634665  10.1473380   6.0819992  63.8544990   0.9519997
   5.5399992  63.4754990   0.2609997   6.9159992  64.0494990   0.5239997
   6.1204390  63.8289091   0.7994374  97.0369992  34.2964990  81.6459997
  96.2049992  34.7684990  81.6729997  97.5829992  34.8064990  81.0469997
  96.9968710  34.4300317  81.5687570  16.6189992  75.9374990  16.4429997
  16.8189992  76.3614990  15.6089997  17.2749992  76.2814990  17.0499997
  16.7349937  76.0419993  16.4108645   4.2169992  68.4114990  16.0509997
   4.9489992  68.6664990  16.6129997   3.4369992  68.6164990  16.5669997
   4.2116526  68.4740438  16.1975168  10.2469992  63.8184990   8.7889997
  10.8109992  63.2724990   8.2419997  10.0989992  63.2974990   9.5779997
  10.3043037  63.6731798   8.8207212   5.2489992  59.9554990   5.2079997
   4.9309992  59.0524990   5.1719997   6.0299992  59.9574990   4.6549997
   5.3111079  59.8322240   5.1282908   8.8729992  62.2074990  11.2029997
   8.0379992  62.6614990  11.3139997   9.3969992  62.4834990  11.9549997
   8.8296072  62.3068960  11.3198118   9.4169992  68.4204990   2.8879997
   8.6719992  67.9124990   2.5659997   9.2829992  68.4694990   3.8339997
   9.2969334  68.3576144   2.9718892  16.5669992  67.5534990  11.6749997
  17.2089992  68.0094990  11.1309997  15.7369992  67.6664990  11.2119997
  16.5426536  67.6311813  11.5379579  13.3149992  61.2344990   1.0869997
  12.3759992  61.3454990   0.9359997  13.6119992  62.0904990   1.3939997
  13.2266136  61.3654977   1.1078568  10.9369992  68.6044990  14.1249997
  10.5909992  68.2224990  14.9319997  10.7369992  69.5374990  14.1959997
  10.8625987  68.6784013  14.2450443  14.0329992  63.1014990   2.7479997
  14.9249992  62.9634990   3.0669997  14.0899992  63.8924990   2.2109997
  14.1627380  63.1894777   2.7190981  96.3259992  36.9084990  92.9759997
  96.8659992  36.6924990  93.7349997  95.8439992  36.1034990  92.7859997
  96.3349101  36.7700216  93.0544364   4.5419992  67.7154990   8.6579997
   5.2869992  67.7124990   8.0559997   4.6199992  66.8914990   9.1389997
   4.6543365  67.6037395   8.6407412  11.5429992  69.8784990   1.9129997
  11.2479992  70.7054990   2.2949997  10.8399992  69.2594990   2.1099997
  11.4076379  69.9079182   1.9918636   1.5499992  66.1754990  13.9729997
   1.7729992  65.7574990  14.8039997   0.9479992  65.5634990  13.5499997
   1.4991513  66.0354617  14.0296722   8.5669992  65.6924990  16.1859997
   8.2709992  65.5274990  15.2899997   9.4979992  65.4724990  16.1749997
   8.6524401  65.6401891  16.0620189  13.1869992  71.0664990  14.0749997
  12.2859992  71.2494990  13.8079997  13.2209992  71.3254990  14.9959997
  13.0683861  71.1265245  14.1629517  18.9179992  63.3104990   2.4429997
  18.3639992  62.9144990   1.7699997  19.0189992  64.2214990   2.1649997
  18.8558589  63.3793904   2.3133839  18.8809992  69.1114990  15.2799997
  18.0299992  69.3494990  14.9119997  19.4719992  69.0944990  14.5259997
  18.8443831  69.1417623  15.1278448  17.2129992  72.0964990   2.9079997
  16.8409992  71.2714990   3.2169997  17.4909992  71.9134990   2.0099997
  17.1995807  71.9587031   2.8290063  14.3739992  66.9044990   9.9289997
  13.4459992  66.6734990   9.9019997  14.8249992  66.1274990   9.5989997
  14.3078165  66.7677785   9.8806772   6.9169992  71.2334990   6.0619997
   7.4439992  72.0064990   5.8619997   6.0369992  71.4574990   5.7599997
   6.8702121  71.3697344   5.9937460 100.9229992  35.8284990  94.5959997
 101.6909992  35.3694990  94.9369997 100.9019992  35.6024990  93.6659997
 101.0252135  35.7351680  94.5169473   2.6719992  66.0954990   0.6489997
   3.2879992  66.7224990   1.0289997   1.8099992  66.4114990   0.9209997
   2.6397678  66.2239423   0.7377192   8.3439992  68.8964990   5.6379997
   8.1029992  69.8214990   5.6799997   7.6039992  68.4374990   6.0349997
   8.2109463  68.9610969   5.6974279   8.8589992  73.0454990  11.9529997
   9.2219992  73.8994990  11.7199997   9.3909992  72.7534990  12.6939997
   8.9805141  73.1228907  12.0212079   7.0269992  73.9174990   5.1839997
   6.0779992  74.0234990   5.2349997   7.3789992  74.7384990   5.5279997
   6.9445647  74.0430029   5.2374882  12.4029992  69.1444990  11.6539997
  11.9769992  68.9164990  12.4799997  12.9839992  68.4054990  11.4719997
  12.4232088  69.0134393  11.7424454  14.6059992  70.0734990   0.7279997
  14.9589992  69.6934990   1.5319997  13.6569992  69.9794990   0.8149997
  14.5260956  70.0087867   0.8498005  15.0619992  73.6964990  14.1229997
  14.4599992  73.1404990  13.6279997  15.3429992  74.3634990  13.4969997
  15.0175757  73.7105755  13.9705657  19.1089992  74.5524990   0.9289997
  19.8529992  75.1384990   0.7889997  18.4149992  75.1214990   1.2619997
  19.1169809  74.7095830   0.9548572   3.1839992  60.9294990  13.5309997
   2.2909992  61.2674990  13.4629997   3.0849992  60.0734990  13.9489997
   3.0484752  60.8600986  13.5781644  15.4719992  68.7454990   2.9549997
  15.1949992  68.0174990   3.5109997  16.3989992  68.8644990   3.1599997
  15.5594419  68.6619436   3.0588264 107.4999992  34.2084990  93.3249997
 107.1489992  33.3514990  93.5679997 108.2259992  34.3504990  93.9319997
 107.5501590  34.1105189  93.4402889   2.8349992  72.7334990  11.9659997
   3.0519992  71.8014990  11.9349997   3.0819992  73.0084990  12.8489997
   2.8980948  72.6430976  12.0811268   7.6339992  70.7554990   1.6309997
   7.7809992  70.2354990   2.4209997   7.6309992  71.6624990   1.9379997
   7.6537102  70.8068964   1.7805907   4.0869992  68.0074990   2.1419997
   3.4009992  68.3604990   2.7089997   4.6099992  68.7704990   1.8949997
   4.0638402  68.1588912   2.1861783  11.9179992  60.6704990  12.4209997
  12.6169992  60.7444990  13.0709997  11.5379992  59.8054990  12.5749997
  11.9622662  60.5637050  12.5307412  12.7029992  60.3224990   3.5179997
  12.9229992  60.7934990   2.7139997  13.2609992  60.7164990   4.1879997
  12.8086044  60.4402946   3.4985207  10.3719992  72.4524990   2.3809997
   9.5549992  72.9494990   2.4329997  10.9009992  72.9284990   1.7399997
  10.3318125  72.5847000   2.3015289   9.9029992  62.0504990   4.3529997
  10.7149992  62.5544990   4.3989997   9.6579992  61.9054990   5.2669997
   9.9811091  62.0999366   4.4828552  10.4389992  63.0364990  13.5369997
  10.5579992  63.6104990  14.2939997  11.0939992  62.3484990  13.6519997
  10.5438684  63.0220205  13.6561656  10.7869992  59.1314990   5.2909997
  10.4399992  59.7484990   5.9349997  11.4449992  59.6324990   4.8089997
  10.8284430  59.2836860   5.3140046   7.7099992  73.4964990   2.3619997
   7.8709992  74.2964990   1.8619997   7.5129992  73.8034990   3.2469997
   7.7053906  73.6473690   2.4132316  96.2329992  30.7194990  93.9299997
  96.3769992  29.8174990  93.6439997  95.4599992  31.0054990  93.4419997
  96.1482854  30.6346876  93.8249363   6.4439992  60.1944990   1.9779997
   6.3609992  61.0824990   2.3249997   7.3339992  59.9294990   2.2099997
   6.5529331  60.2801177   2.0568067  16.6429992  60.9434990  14.3719997
  15.7269992  61.2054990  14.2849997  16.9789992  60.9404990  13.4759997
  16.5628499  60.9790174  14.2388748  15.2449992  64.6934990   8.4679997
  14.4479992  64.2784990   8.1399997  15.6899992  64.0034990   8.9589997
  15.1960367  64.5433372   8.4894897   4.7029992  70.6214990   1.0379997
   5.2949992  71.3214990   1.3149997   5.1619992  70.1884990   0.3189997
   4.8461652  70.6587686   0.9786515   3.0189992  63.2864990   0.1539997
   2.9739992  64.2254990   0.3329997   2.1309992  63.0504990  -0.1150003
   2.8928166  63.3831698   0.1421507  16.3319992  73.9494990  10.0899997
  16.1759992  74.6284990   9.4329997  17.2639992  74.0214990  10.2929997
  16.4367328  74.0521586  10.0275529   3.8269992  58.0674990   8.8269997
   3.5979992  58.1264990   7.8999997   3.3839992  57.2764990   9.1339997
   3.7357387  57.9686413   8.7415223   2.7569992  72.0084990   4.9879997
   1.9249992  72.4804990   5.0149997   3.3029992  72.5184990   4.3889997
   2.7168710  72.1420317   4.9107570   2.0459992  74.6204990  16.3179997
   2.5859992  74.4044990  17.0779997   1.5639992  73.8154990  16.1279997
   2.0548485  74.4820463  16.3964870   6.6429992  73.5404990  17.9379997
   7.4109992  73.0814990  18.2789997   6.6219992  73.3144990  17.0079997
   6.7452135  73.4471680  17.8589473 102.8879992  30.6884990  93.3629997
 102.5599992  30.9594990  92.5049997 103.0399992  29.7474990  93.2749997
 102.8636970  30.5983694  93.2337953  10.7349992  73.0484990  -0.6870003
  10.0909992  72.4174990  -0.3650003  11.4969992  72.5174990  -0.9180003
  10.7498708  72.8903171  -0.6741539  13.2199992  71.9204990  16.6669997
  12.8689992  71.0634990  16.9099997  13.9459992  72.0624990  17.2739997
  13.2701590  71.8225189  16.7822889  15.3389992  72.8654990  -0.4530003
  15.6219992  72.0704990  -0.0000003  16.0789992  73.0984990  -1.0140003
  15.4777295  72.7882349  -0.4668531   1.9529992  68.4314990  17.2719997
   2.0969992  67.5294990  16.9859997   1.1799992  68.7174990  16.7849997
   1.8682266  68.3466548  17.1670102   6.2939992  68.7744990  -0.5950003
   6.3579992  67.9804990  -0.0650003   6.9469992  68.6564990  -1.2850003
   6.3910482  68.6497496  -0.6156593   8.6079992  68.4004990  16.7049997
   8.2799992  68.6714990  15.8479997   8.7599992  67.4594990  16.6169997
   8.5836412  68.3104058  16.5757804  14.3429992  68.3164990  14.0879997
  15.0879992  68.9054990  13.9689997  13.5849992  68.8984990  14.1509997
  14.3425289  68.4757067  14.0802292   2.7849992  65.6314990  16.6919997
   3.1929992  64.7744990  16.5709997   2.5249992  65.6454990  17.6129997
   2.8057082  65.5160596  16.7999469   7.4429992  66.7474990   1.7109997
   6.9839992  66.2634990   2.3959997   7.6979992  66.0784990   1.0749997
   7.4145997  66.5908491   1.7188734   6.7319992  64.6404990  14.0669997
   6.1139992  65.3144990  14.3469997   7.0759992  64.9614990  13.2329997
   6.6938078  64.7762298  13.9926609 108.6229992  30.6044990  90.7459997
 109.3679992  31.1934990  90.6259997 107.8649992  31.1864990  90.8089997
 108.6225185  30.7637000  90.7380940   8.5139992  64.9904990  -0.0270003
   8.3339992  64.8354990  -0.9540003   9.4639992  65.0984990   0.0179997
   8.6177804  64.9838821  -0.1478034  11.7519992  67.1114990  17.3439997
  12.7049992  67.1954990  17.3169997  11.5919992  66.3994990  17.9629997
  11.8607320  67.0267292  17.4239933  17.9039992  67.3444990  -0.5810003
  17.6309992  66.9204990  -1.3940003  17.9439992  68.2764990  -0.7980003
  17.8720201  67.4123523  -0.7216452   7.0719992  61.9954990  15.1489997
   7.2219992  61.2664990  14.5469997   7.0739992  62.7724990  14.5899997
   7.0927967  62.0007720  14.9910523   7.4839992  60.3644990  12.6419997
   8.0199992  60.8164990  11.9899997   6.6319992  60.2564990  12.2189997
   7.4421795  60.4117444  12.4956211   9.0659992  65.8044990  12.8809997
   9.8169992  65.6484990  12.3079997   8.7269992  66.6564990  12.6059997
   9.1229587  65.8983149  12.7654060  13.4819992  63.6194990  17.9099997
  13.6739992  62.6884990  17.7979997  14.3389992  64.0444990  17.8989997
  13.6242176  63.5495090  17.8931757  14.7979992  66.4084990  15.9869997
  14.5169992  67.1174990  15.4089997  15.7409992  66.3354990  15.8359997
  14.8869272  66.4956704  15.8874976   5.5499992  63.1934990  17.0599997
   4.7829992  62.6604990  16.8499997   6.2289992  62.8834990  16.4609997
   5.5368292  63.0786360  16.9502693   8.2899992  57.8214990  13.0729997
   8.1919992  58.7674990  12.9679997   7.5469992  57.4484990  12.5969997
   8.1762123  57.9006811  12.9943204  97.0649992  27.9194990  93.3499997
  97.4729992  27.0624990  93.2289997  96.8049992  27.9334990  94.2709997
  97.0857082  27.8040596  93.4579469   9.5539992  62.1424990  16.6369997
   9.3179992  61.9234990  17.5379997   8.7709992  61.9354990  16.1269997
   9.4158382  62.0845340  16.6913991  12.2699992  61.2704990  15.7119997
  11.3219992  61.3024990  15.8439997  12.5819992  60.6444990  16.3659997
  12.1825293  61.1902934  15.8184130  13.9039992  59.9044990  17.7169997
  13.8069992  58.9524990  17.7119997  13.5819992  60.1724990  18.5779997
  13.8472468  59.8105896  17.8326192   3.7309992  61.1134990  16.7649997
   3.9419992  60.4074990  16.1549997   3.6189992  60.6764990  17.6089997
   3.7447668  60.9576619  16.7955445   8.5119992  57.1154990  15.7439997
   9.2229992  56.4754990  15.7299997   8.4109992  57.3814990  14.8309997
   8.5956858  57.0638591  15.6185501   8.8649992  58.7974990  17.7979997
   8.7339992  58.3224990  16.9779997   8.2659992  59.5424990  17.7429997
   8.7660829  58.8330949  17.6781823   8.4119992  75.6804990   0.9739997
   9.3449992  75.8384990   1.1179997   8.1469992  76.3564990   0.3489997
   8.5039846  75.7934567   0.9092930   1.9799992  70.3174990   0.4569997
   2.8939992  70.3964990   0.7299997   1.9869992  69.6304990  -0.2090003
   2.1060624  70.2354074   0.4043045   0.6289992  75.7104990   5.5339997
  -0.0180008  75.2484990   5.0019997   0.9839992  75.0384990   6.1169997
   0.5883741  75.5564785   5.5399157   1.4989992  73.7904990   7.3389997
   1.1649992  72.9104990   7.5109997   1.7209992  74.1364990   8.2039997
   1.4832565  73.7167410   7.4794263 101.7229992  29.0354990  78.3679997
 101.2639992  28.5514990  79.0539997 101.9779992  28.3664990  77.7319997
 101.6946178  28.8788511  78.3759785  19.0479992  74.6004990  10.3199997
  19.0259992  74.7854990  11.2579997  19.7379992  75.1684990   9.9789997
  19.1383383  74.7027104  10.4024580  18.6109992  74.1674990  13.2409997
  18.1239992  73.4314990  12.8699997  19.1599992  73.7734990  13.9189997
  18.6186101  74.0136267  13.2819034  17.0619992  69.9574990  17.8789997
  16.1959992  69.8524990  18.2739997  17.4379992  70.7154990  18.3259997
  16.9944940  70.0456141  17.9933958  18.3629992  68.2134990   3.3939997
  19.2129992  68.6344990   3.5209997  18.3679992  67.4734990   4.0009997
  18.4801143  68.1711106   3.4934732  18.7569992  66.2674990   5.2169997
  18.0309992  65.7874990   5.6149997  19.3379992  66.4724990   5.9489997
  18.7362504  66.2295592   5.3704199  18.5159992  69.0524990  10.1649997
  19.3499992  68.6744990   9.8839997  18.6279992  69.9954990  10.0459997
  18.6451917  69.1282954  10.1104844  17.0019992  71.9304990  12.4719997
  16.3549992  72.2554990  13.0969997  16.4849992  71.4894990  11.7979997
  16.8434112  71.9154133  12.4665272  19.0249992  66.1684990   1.6079997
  18.5039992  66.5244990   0.8899997  18.9919992  66.8434990   2.2869997
  18.9490955  66.3085023   1.6012634  17.3739992  63.4074990   0.1589997
  17.4709992  64.0744990  -0.5210003  17.2339992  62.5924990  -0.3220003
  17.3683407  63.3885670   0.0008312  16.5439992  64.7884990   5.7799997
  16.3939992  63.8434990   5.7599997  16.1899992  65.0694990   6.6239997
  16.4756351  64.6971656   5.8913202 101.0119992  26.9284990  90.7239997
 100.3939992  27.6024990  91.0049997 101.3559992  27.2494990  89.8909997
 100.9738181  27.0643233  90.6498266   1.5789992  66.8664990   9.7909997
   1.7629992  66.7844990   8.8549997   2.4279992  66.7424990  10.2139997
   1.7190132  66.8385066   9.7201460  17.3999992  66.7584990  15.4189997
  17.9829992  66.0234990  15.6109997  17.9639992  67.5304990  15.4659997
  17.5559781  66.7623156  15.4516146  18.8969992  64.6614990  16.1039997
  18.0329992  64.2824990  15.9379997  19.5009992  63.9224990  16.0289997
  18.8605394  64.5098378  16.0711778  16.2539992  62.3704990   4.2429997
  16.5339992  61.4634990   4.3669997  17.0129992  62.8044990   3.8539997
  16.3949258  62.3050935   4.2073691  16.8659992  62.9524990   9.6789997
  17.7989992  63.1644990   9.6439997  16.6309992  63.0534990  10.6009997
  16.9619517  62.9951844   9.7989113  16.8949992  63.6894990  12.4549997
  16.0519992  63.9574990  12.8199997  17.3379992  64.5114990  12.2439997
  16.8394035  63.8373351  12.4764770   1.1759992  62.1364990  15.9309997
   2.0959992  62.0144990  16.1679997   0.7269992  61.3864990  16.3209997
   1.2410500  62.0184576  16.0161016  19.1779992  57.6694990  17.8079997
  19.5279992  57.0154990  17.2019997  19.3249992  58.5064990  17.3679997
  19.2457192  57.6932545  17.6656712  16.8679992  59.6334990   4.2909997
  17.0499992  59.1844990   5.1159997  16.2679992  59.0494990   3.8269997
  16.8118187  59.4930563   4.3412721   2.3979992  60.4494990   8.8229997
   2.8429992  59.6574990   9.1249997   2.8639992  61.1654990   9.2529997
   2.5219718  60.4379546   8.9225247 106.0319992  29.3994990  94.0019997
 106.9849992  29.4834990  93.9739997 105.8719992  28.6874990  94.6209997
 106.1408161  29.3147198  94.0818689   0.7019992  63.4484990   9.8919997
   1.1939992  63.2274990   9.1009997   1.0639992  64.2884990  10.1729997
   0.8182923  63.5318480   9.8217389  18.6979992  59.7784990  16.1569997
  17.7809992  60.0494990  16.1209997  18.8209992  59.2434990  15.3729997
  18.5890828  59.7432711  16.0460767  18.7339992  59.7014990   0.8189997
  19.1469992  58.9804990   0.3439997  19.4159992  60.3704990   0.8769997
  18.8826060  59.6933741   0.7619233   1.0149992  59.7064990   3.9459997
   0.0899992  59.9144990   3.8169997   1.4689992  60.1904990   3.2559997
   0.9496298  59.8004311   3.8350433  15.7859992  74.6904990   5.8919997
  16.4379992  74.3424990   5.2839997  16.2969992  75.1784990   6.5379997
  15.9442872  74.7088248   5.8960964   0.9789992  58.4444990  12.2899997
   0.3139992  58.1984990  12.9329997   0.5359992  59.0664990  11.7129997
   0.8281168  58.4949225  12.2999830   3.1709992  71.6194990  16.4349997
   2.3499992  71.7944990  15.9739997   2.9189992  71.5464990  17.3549997
   3.0245594  71.6335728  16.4963593   6.1249992  72.5934990  12.6929997
   5.6999992  73.4034990  12.4109997   7.0289992  72.6794990  12.3909997
   6.1890706  72.7159557  12.6135836  10.4359992  73.9924990  15.6529997
  10.6209992  73.6594990  16.5309997  11.2829992  74.3024990  15.3309997
  10.5757291  73.9888214  15.7296140  12.7809992  75.2784990  14.8969997
  13.4579992  74.6454990  14.6569997  13.1029992  75.6794990  15.7039997
  12.9171618  75.2461147  14.9732802 101.3519992  24.2834990  91.8069997
 101.5019992  23.5544990  91.2039997 101.3539992  25.0604990  91.2479997
 101.3727664  24.2888971  91.6490525  17.6989992  57.8684990  13.9759997
  16.8859992  58.1934990  13.5889997  17.9319992  57.1074990  13.4429997
  17.6191347  57.8101891  13.8509824   3.5269992  75.8504990  12.7409997
   2.8059992  76.2904990  12.2899997   3.1609992  75.5994990  13.5889997
   3.3789632  75.8767235  12.7939649   5.9939992  75.4504990  11.7699997
   5.1289992  75.5224990  12.1739997   5.9389992  75.9974990  10.9869997
   5.8682289  75.5343242  11.7193749  10.7049992  75.3384990  10.9459997
  10.2479992  75.8674990  10.2919997  10.8669992  75.9414990  11.6709997
  10.6643919  75.4923990  10.9545740  13.0319992  74.2164990  11.8909997
  12.1279992  74.3814990  11.6249997  13.4609992  75.0694990  11.8249997
  12.9662017  74.3544184  11.8456495  15.6359992  75.7864990  12.1859997
  15.4549992  76.7024990  11.9749997  15.8129992  75.3754990  11.3389997
  15.6351377  75.8563365  12.0427178   2.9419992  74.4734990   9.6509997
   2.9229992  74.0474990  10.5079997   3.7459992  74.1544990   9.2419997
   3.0481393  74.3720297   9.7130155   5.0829992  73.1834990   8.3059997
   4.8639992  72.2664990   8.4759997   5.9069992  73.3234990   8.7719997
   5.1644702  73.0770523   8.3922510   7.6199992  73.6534990   9.1549997
   7.8329992  72.7654990   8.8679997   7.6849992  73.6184990  10.1089997
   7.6579149  73.5273338   9.2447351  11.1289992  59.3174990   8.2989997
  10.4539992  58.6874990   8.5549997  11.6929992  58.8334990   7.6959997
  11.1129363  59.1658886   8.2524810 101.7639992  22.6524990  89.2989997
 102.2999992  23.1044990  88.6469997 100.9119992  22.5444990  88.8769997
 101.7221648  22.6997883  89.1526395  16.2709992  57.4244990   8.4119997
  16.8749992  57.9724990   7.9099997  15.4019992  57.7434990   8.1709997
  16.2360419  57.5425628   8.3107741  17.9979992  58.5634990   6.7449997
  18.6099992  58.0494990   6.2179997  18.3809992  59.4404990   6.7679997
  18.1333867  58.6117613   6.6760888   3.4549992  57.9514990   6.1209997
   2.6779992  57.7164990   5.6139997   3.9859992  57.1544990   6.1299997
   3.4203735  57.8116462   6.0528090   2.2919992  57.7494990   1.9249997
   2.7309992  58.3604990   1.3329997   1.6579992  58.2874990   2.3989997
   2.2663859  57.9059076   1.9080287   8.0349992  57.8774990   5.9339997
   8.9089992  58.2664990   5.9049997   7.8989992  57.6624990   6.8569997
   8.1361953  57.9016654   6.0547599  13.5909992  57.9074990   7.5839997
  13.6679992  58.0034990   6.6339997  13.3159992  57.0004990   7.7119997
  13.5643233  57.7979093   7.4713665  14.9449992  57.9334990   3.2759997
  14.2419992  58.5484990   3.0659997  14.4999992  57.0964990   3.4069997
  14.7886550  57.9044679   3.2649819   2.1929992  73.6974990   2.8219997
   1.5079992  73.6594990   2.1549997   2.1959992  74.6094990   3.1099997
   2.0996806  73.8156669   2.7696961   4.1529992  59.6654990   0.3669997
   4.6439992  59.0354990  -0.1600003   4.7759992  59.9614990   1.0299997
   4.3045304  59.6192387   0.3844922   9.1789992  59.9584990   2.8239997
   9.3569992  59.3114990   3.5069997   9.1249992  60.7924990   3.2909997
   9.1960678  59.9826615   2.9806283 103.3459992  28.0924990  89.5389997
 104.0969992  27.9364990  88.9659997 103.0069992  28.9444990  89.2629997
 103.4029052  28.1862745  89.4233469  11.0569992  74.9064990   1.2199997
  11.9229992  75.2734990   1.0419997  10.8099992  74.4674990   0.4059997
  11.1421853  74.8974021   1.0855813  17.7659992  74.4694990   3.8989997
  17.5719992  73.7214990   3.3339997  17.7269992  75.2274990   3.3159997
  17.7341645  74.4695797   3.7428131   3.4129992  58.4654990  15.6389997
   3.0469992  57.6994990  16.0809997   4.3259992  58.4944990  15.9249997
   3.4863172  58.3645335  15.7381872   5.3859992  57.8154990  17.1739997
   6.2849992  57.5414990  16.9899997   4.9999992  57.0734990  17.6389997
   5.4567307  57.6777207  17.2117080   4.0109992  74.6174990  -0.1530003
   3.7429992  74.9034990   0.7209997   4.7819992  74.0714990  -0.0000003
   4.0785927  74.5827790  -0.0128812  13.8069992  57.1484990  17.3569997
  13.8839992  56.7224990  18.2099997  14.7009992  57.1614990  17.0139997
  13.9383263  57.0919345  17.4274366  16.9839992  73.2204990  16.0489997
  16.2019992  73.0344990  15.5289997  16.9119992  74.1504990  16.2659997
  16.8672975  73.3206973  16.0071822  31.3899992  67.1074990   6.0799997
  31.4789992  68.0514990   5.9469997  30.7509992  66.8324990   5.4219997
  31.3158378  67.1993846   5.9729258  30.3229992  66.3624990   9.4989997
  30.2839992  65.7164990  10.2039997  29.9999992  65.8954990   8.7269997
  30.2740469  66.2110005   9.4912803  22.6909992  65.9764990  11.0919997
  22.7319992  65.3514990  11.8149997  23.3939992  66.6004990  11.2739997
  22.7916223  65.9752318  11.2156164 107.7619992  25.9074990  94.5669997
 107.9539992  24.9764990  94.4559997 108.6189992  26.3324990  94.5569997
 107.9042320  25.8374743  94.5504433  34.0289992  69.3014990   7.7999997
  33.5879992  68.5814990   8.2509997  34.0159992  70.0224990   8.4299997
  33.9669215  69.3004303   7.9468088  23.6149992  70.4264990   9.6269997
  23.2449992  69.6244990   9.2569997  24.5559992  70.2584990   9.6729997
  23.6915984  70.2939649   9.5825586  20.2249992  64.0864990   5.0189997
  19.7769992  64.9324990   5.0009997  19.6639992  63.5074990   4.5039997
  20.0878546  64.1239004   4.9468874  20.9349992  66.2484990   7.1449997
  21.1489992  65.4784990   7.6719997  21.6729992  66.3384990   6.5419997
  21.0640073  66.1553546   7.1355786  31.1399992  74.4054990   8.0119997
  31.7599992  73.7294990   7.7389997  30.9319992  74.1874990   8.9209997
  31.1967679  74.2835032   8.0974518  28.7119992  68.7944990   9.9049997
  29.0159992  68.1084990   9.3099997  29.4339992  68.9134990  10.5229997
  28.8511240  68.7167325   9.9070941  37.3749992  60.3964990  10.7649997
  37.4239992  61.0064990  11.5009997  37.8009992  60.8574990  10.0419997
  37.4392851  60.5423266  10.7680532  31.8529992  63.1884990  10.2319997
  31.9949992  62.2424990  10.2519997  31.7469992  63.3954990   9.3039997
  31.8581051  63.0869706  10.1092249  25.0079992  61.2904990   7.5049997
  25.0509992  62.1504990   7.0859997  24.5499992  60.7374990   6.8709997
  24.9520163  61.3334174   7.3620604  32.7299992  61.4214990   5.9049997
  33.3759992  61.0924990   6.5299997  33.2399992  61.9384990   5.2829997
  32.8874289  61.4464333   5.9063681 109.0779992  28.6964990  92.6449997
 108.7969992  29.4054990  92.0669997 110.0209992  28.6234990  92.4939997
 109.1669272  28.7836704  92.5454976  21.6279992  63.6874990   8.2669997
  22.2819992  63.1374990   8.6989997  21.6519992  63.4134990   7.3499997
  21.7207199  63.5752178   8.2021650  26.7839992  65.2374990   7.4819997
  27.3999992  64.7104990   7.9909997  26.1979992  64.5974990   7.0779997
  26.7890652  65.0788919   7.4970277  37.7669992  61.8744990  13.0009997
  37.0779992  62.5324990  12.9059997  37.7819992  61.6764990  13.9379997
  37.6747756  61.9377614  13.1145795  23.8179992  60.2084990  11.5789997
  23.5989992  60.7384990  10.8119997  23.1499992  60.4344990  12.2259997
  23.6976975  60.3115979  11.5615123  31.1869992  69.7084990   5.1229997
  30.8909992  69.3854990   4.2709997  30.8629992  70.6084990   5.1639997
  31.1027458  69.7859678   5.0120598  26.3869992  67.8834990  11.8659997
  25.6469992  68.4824990  11.9699997  27.1009992  68.4374990  11.5499997
  26.3823146  68.0402611  11.8375150  34.4939992  60.7124990   7.8859997
  34.2789992  59.9464990   8.4189997  35.1499992  61.1844990   8.3989997
  34.5532673  60.6715739   8.0281972  23.4119992  62.1004990   9.5309997
  24.0249992  62.7334990   9.9039997  23.9239992  61.6284990   8.8749997
  23.5651933  62.1233380   9.4933477  24.7939992  69.8484990  12.6529997
  24.7889992  70.7274990  12.2749997  23.9409992  69.7644990  13.0779997
  24.6779199  69.9575901  12.6586942  20.9159992  69.5194990   3.4349997
  20.6439992  69.7484990   2.5459997  20.9609992  70.3564990   3.8959997
  20.8848360  69.6641034   3.3756186  99.8299992  25.4814990  93.7179997
  99.0629992  24.9484990  93.5079997 100.5089992  25.1714990  93.1189997
  99.8168292  25.3666360  93.6082693  34.5409992  71.1404990  10.1479997
  33.5989992  71.1994990  10.3099997  34.8169992  72.0464990  10.0109997
  34.4495865  71.2710299  10.1516174  34.8409992  59.4274990  11.5649997
  34.1049992  60.0374990  11.5279997  35.5249992  59.8424990  11.0389997
  34.8325367  59.5672562  11.4888156  27.8439992  57.5134990   9.0309997
  27.7269992  56.5654990   8.9769997  26.9889992  57.8464990   9.3039997
  27.7123691  57.4285842   9.0605072  32.7929992  72.9214990   6.7729997
  33.2179992  72.2144990   6.2879997  33.1099992  73.7234990   6.3559997
  32.8940266  72.9330201   6.6502461  33.9519992  70.8224990   5.2819997
  33.6949992  70.1324990   4.6699997  34.0229992  70.3794990   6.1269997
  33.9264322  70.6681568   5.3125372  35.6379992  69.3894990  13.7589997
  35.7779992  68.7974990  13.0199997  35.8059992  70.2624990  13.4029997
  35.6798734  69.4264041  13.6096937  30.1109992  66.3514990   3.5319997
  29.3989992  66.8864990   3.1799997  30.8019992  66.4064990   2.8719997
  30.1069704  66.4321663   3.3945797  30.1649992  64.8084990   0.5699997
  30.8659992  64.8314990   1.2219997  30.4669992  64.1804990  -0.0860003
  30.3018202  64.7267223   0.5705591  37.4799992  65.7294990  11.8249997
  36.8279992  66.4234990  11.9139997  37.9449992  65.9394990  11.0149997
  37.4535357  65.8529544  11.7277056  33.5169992  66.5604990   4.4829997
  32.7849992  66.7894990   5.0559997  33.9639992  65.8474990   4.9379997
  33.4772753  66.4953984   4.6229698 102.5699992  20.1094990  89.7309997
 102.4719992  21.0554990  89.6249997 101.8269992  19.7364990  89.2549997
 102.4562363  20.1885987  89.6522029  33.4139992  64.7354990  13.5509997
  33.4939992  65.4984990  14.1229997  32.8129992  65.0144990  12.8609997
  33.3436547  64.8777468  13.5360029  25.1619992  67.1914990   6.3659997
  24.8319992  66.8204990   5.5479997  25.7499992  66.5204990   6.7129997
  25.1963182  67.0500648   6.3009898  26.5289992  70.6194990   9.0469997
  26.4339992  70.0404990   8.2909997  27.2579992  70.2484990   9.5429997
  26.6146011  70.4900572   9.0106011  25.5289992  65.9594990   9.9989997
  26.0939992  66.0814990   9.2369997  25.8469992  66.5974990  10.6379997
  25.6493619  66.0624388   9.9810019  31.8379992  71.4634990  10.7329997
  31.5969992  72.1254990  11.3809997  31.6399992  70.6284990  11.1579997
  31.7782662  71.4412704  10.8791008  26.4089992  70.3594990  14.7169997
  26.0969992  71.1414990  15.1719997  25.7589992  70.2064990  14.0309997
  26.2784858  70.4457882  14.6865344  32.3879992  65.7234990   2.1689997
  32.9669992  65.8734990   2.9149997  32.8019992  66.1934990   1.4449997
  32.5233358  65.8075966   2.1733935  23.3289992  66.5574990  13.9449997
  23.3989992  67.2084990  14.6439997  22.4379992  66.6604990  13.6099997
  23.2181690  66.6604261  13.9953026  30.1139992  72.4594990   5.6039997
  30.5879992  72.7554990   6.3809997  29.5509992  73.1984990   5.3709997
  30.1027890  72.5998047   5.6788084  24.6479992  72.4304990  15.4799997
  24.6559992  72.2944990  14.5329997  23.7319992  72.3134990  15.7319997
  24.5252528  72.3960475  15.3843226 103.8339992  24.4304990  93.2939997
 103.5979992  24.2114990  94.1959997 103.0509992  24.2234990  92.7849997
 103.6958444  24.3725688  93.3484518  36.0859992  57.4734990   1.9809997
  35.1859992  57.6114990   2.2769997  36.3379992  58.3044990   1.5799997
  35.9967727  57.6048705   1.9672935  24.1519992  66.2604990   3.9549997
  23.8599992  67.0284990   3.4639997  23.4779992  65.6014990   3.7919997
  24.0208843  66.2764537   3.8657695  37.2759992  71.8394990   0.3579997
  37.3489992  72.7784990   0.5279997  38.1809992  71.5344990   0.3019997
  37.4084170  71.9268294   0.3737045  20.2449992  68.6234990  12.7699997
  19.7439992  68.5954990  11.9549997  20.2509992  67.7184990  13.0799997
  20.1771690  68.4972234  12.7002770  19.9959992  71.4044990   9.6539997
  20.9419992  71.2594990   9.6349997  19.8829992  72.1884990  10.1909997
  20.1103578  71.4906708   9.7240300  38.1929992  72.0704990  15.3369997
  38.1439992  71.1144990  15.2989997  37.3669992  72.3374990  15.7379997
  38.0745096  71.9758416  15.3860698  29.1719992  71.6444990  14.2129997
  29.2589992  72.4704990  14.6879997  28.3079992  71.3144990  14.4619997
  29.0671944  71.7129871  14.3116558  29.5859992  75.4164990   4.0189997
  29.5109992  75.2954990   3.0719997  29.6189992  76.3654990   4.1369997
  29.5802083  75.5282639   3.9054973  23.2399992  74.2054990   5.7999997
  23.3919992  73.8574990   6.6779997  22.3889992  73.8484990   5.5439997
  23.1458344  74.1095891   5.8856851  32.6879992  74.5704990   1.0209997
  33.0629992  73.8264990   0.5499997  32.6919992  74.3004990   1.9389997
  32.7398969  74.4320920   1.0806475 106.5499992  23.5584990  92.3699997
 105.6019992  23.5904990  92.5019997 106.8619992  22.9324990  93.0239997
 106.4625293  23.4782934  92.4764130  32.3569992  74.4964990   3.7699997
  31.4219992  74.5964990   3.9489997  32.6369992  73.7864990   4.3489997
  32.2669471  74.4142944   3.8726678  35.3449992  63.5634990  15.8169997
  34.9379992  64.0434990  15.0959997  35.3859992  62.6574990  15.5089997
  35.2948403  63.5067989  15.6767253  22.4939992  69.9474990  13.8129997
  22.7099992  69.5854990  14.6729997  21.6389992  69.5724990  13.6039997
  22.4079082  69.8473377  13.9022396  25.1129992  58.4174990   9.8089997
  24.2509992  58.3304990   9.4009997  25.0909992  59.2734990  10.2369997
  24.9920557  58.5213078   9.8110202  29.7759992  58.1394990  13.1839997
  30.1959992  57.7244990  13.9369997  28.8429992  57.9604990  13.3009997
  29.7073736  58.0584921  13.3028950  33.1019992  61.8944990  14.0369997
  32.5879992  61.7694990  14.8349997  32.9469992  62.8074990  13.7929997
  33.0107802  62.0007433  14.1131504  33.8649992  66.7554990  -0.2020003
  33.9069992  66.5334990  -1.1320003  34.7139992  67.1544990  -0.0120003
  33.9855253  66.7790510  -0.3036196  29.4379992  60.6314990   0.4689997
  29.1839992  60.6504990   1.3909997  29.1809992  59.7604990   0.1669997
  29.3684508  60.5163292   0.5544786  25.2039992  63.3824990  10.9039997
  24.5619992  63.3424990  11.6129997  25.2409992  64.3094990  10.6659997
  25.1211659  63.5022540  10.9688463  25.2009992  63.6034990   5.8159997
  24.3079992  63.2634990   5.7569997  25.6519992  63.2264990   5.0599997
  25.1397185  63.5060220   5.7057698 108.1839992  22.1924990  94.3749997
 108.0869992  21.2404990  94.3689997 107.8619992  22.4604990  95.2359997
 108.1272229  22.0984706  94.4905108  30.7369992  64.0194990   4.6329997
  30.3279992  64.8344990   4.3409997  31.4569992  63.8794990   4.0189997
  30.7784439  64.1120383   4.5100098  29.8389992  64.1954990  16.1209997
  29.2759992  63.4904990  16.4419997  30.6649992  64.0744990  16.5889997
  29.8736674  64.0827176  16.2281734  31.7409992  63.4654990   7.4469997
  31.5459992  64.0714990   6.7319997  31.9229992  62.6324990   7.0129997
  31.7389195  63.4357936   7.2904079  22.9539992  63.7034990  12.7709997
  22.9159992  64.1034990  13.6399997  22.4629992  62.8864990  12.8609997
  22.8824374  63.6478228  12.9020980  26.3199992  61.0774990  -0.4300003
  25.8889992  60.6324990   0.2989997  25.6019992  61.4484990  -0.9430003
  26.1639176  61.0667063  -0.3995087  19.5619992  60.8194990   6.6219997
  20.1929992  60.7904990   7.3409997  20.0119992  60.3944990   5.8909997
  19.7091082  60.7581269   6.6216307  20.8359992  61.5654990   2.0459997
  21.3109992  62.1564990   1.4609997  20.1189992  62.0954990   2.3929997
  20.8040406  61.7181011   2.0128495  31.0049992  65.1034990  12.1179997
  31.3289992  64.4724990  11.4749997  30.5649992  64.5694990  12.7789997
  30.9898707  64.9448261  12.1193195  27.7829992  61.0314990   6.9019997
  26.8719992  61.0884990   7.1909997  28.2879992  60.9714990   7.7129997
  27.7266873  61.0311838   7.0511190  22.6109992  62.6604990   5.7289997
  21.7219992  62.7594990   5.3889997  22.9069992  61.8184990   5.3829997
  22.5294001  62.5602473   5.6357318  98.0109992  23.4014990  93.4229997
  98.2219992  22.6954990  92.8119997  97.8989992  22.9644990  94.2669997
  98.0247674  23.2456376  93.4534199  26.2639992  62.6604990   3.3859997
  27.1959992  62.7894990   3.5639997  26.0489992  63.3294990   2.7359997
  26.3624472  62.7685817   3.3224873  32.1879992  60.2664990  10.1659997
  31.5109992  60.3974990  10.8299997  31.7019992  60.1114990   9.3559997
  32.0297265  60.2634665  10.1473380  24.9379992  63.8544990   0.9519997
  24.3959992  63.4754990   0.2609997  25.7719992  64.0494990   0.5239997
  24.9764390  63.8289091   0.7994374  35.4749992  75.9374990  16.4429997
  35.6749992  76.3614990  15.6089997  36.1309992  76.2814990  17.0499997
  35.5909937  76.0419993  16.4108645  23.0729992  68.4114990  16.0509997
  23.8049992  68.6664990  16.6129997  22.2929992  68.6164990  16.5669997
  23.0676526  68.4740438  16.1975168  29.1029992  63.8184990   8.7889997
  29.6669992  63.2724990   8.2419997  28.9549992  63.2974990   9.5779997
  29.1603037  63.6731798   8.8207212  24.1049992  59.9554990   5.2079997
  23.7869992  59.0524990   5.1719997  24.8859992  59.9574990   4.6549997
  24.1671079  59.8322240   5.1282908  27.7289992  62.2074990  11.2029997
  26.8939992  62.6614990  11.3139997  28.2529992  62.4834990  11.9549997
  27.6856072  62.3068960  11.3198118  28.2729992  68.4204990   2.8879997
  27.5279992  67.9124990   2.5659997  28.1389992  68.4694990   3.8339997
  28.1529334  68.3576144   2.9718892  35.4229992  67.5534990  11.6749997
  36.0649992  68.0094990  11.1309997  34.5929992  67.6664990  11.2119997
  35.3986536  67.6311813  11.5379579 102.7919992  19.4034990  92.4019997
 103.5029992  18.7634990  92.3879997 102.6909992  19.6694990  91.4879997
 102.8756732  19.3518451  92.2765475  32.1709992  61.2344990   1.0869997
  31.2319992  61.3454990   0.9359997  32.4679992  62.0904990   1.3939997
  32.0826136  61.3654977   1.1078568  29.7929992  68.6044990  14.1249997
  29.4469992  68.2224990  14.9319997  29.5929992  69.5374990  14.1959997
  29.7185987  68.6784013  14.2450443  32.8889992  63.1014990   2.7479997
  33.7809992  62.9634990   3.0669997  32.9459992  63.8924990   2.2109997
  33.0187380  63.1894777   2.7190981  23.3979992  67.7154990   8.6579997
  24.1429992  67.7124990   8.0559997  23.4759992  66.8914990   9.1389997
  23.5103365  67.6037395   8.6407412  30.3989992  69.8784990   1.9129997
  30.1039992  70.7054990   2.2949997  29.6959992  69.2594990   2.1099997
  30.2636379  69.9079182   1.9918636  20.4059992  66.1754990  13.9729997
  20.6289992  65.7574990  14.8039997  19.8039992  65.5634990  13.5499997
  20.3551513  66.0354617  14.0296722  27.4229992  65.6924990  16.1859997
  27.1269992  65.5274990  15.2899997  28.3539992  65.4724990  16.1749997
  27.5084401  65.6401891  16.0620189  32.0429992  71.0664990  14.0749997
  31.1419992  71.2494990  13.8079997  32.0769992  71.3254990  14.9959997
  31.9243861  71.1265245  14.1629517  37.7739992  63.3104990   2.4429997
  37.2199992  62.9144990   1.7699997  37.8749992  64.2214990   2.1649997
  37.7118589  63.3793904   2.3133839  37.7369992  69.1114990  15.2799997
  36.8859992  69.3494990  14.9119997  38.3279992  69.0944990  14.5259997
  37.7003831  69.1417623  15.1278448 103.1449992  21.0854990  94.4559997
 103.0139992  20.6104990  93.6349997 102.5459992  21.8304990  94.3999997
 103.0461524  21.1211968  94.3361553  36.0689992  72.0964990   2.9079997
  35.6969992  71.2714990   3.2169997  36.3469992  71.9134990   2.0099997
  36.0555807  71.9587031   2.8290063  33.2299992  66.9044990   9.9289997
  32.3019992  66.6734990   9.9019997  33.6809992  66.1274990   9.5989997
  33.1638165  66.7677785   9.8806772  25.7729992  71.2334990   6.0619997
  26.2999992  72.0064990   5.8619997  24.8929992  71.4574990   5.7599997
  25.7262121  71.3697344   5.9937460  21.5279992  66.0954990   0.6489997
  22.1439992  66.7224990   1.0289997  20.6659992  66.4114990   0.9209997
  21.4957678  66.2239423   0.7377192  27.1999992  68.8964990   5.6379997
  26.9589992  69.8214990   5.6799997  26.4599992  68.4374990   6.0349997
  27.0669463  68.9610969   5.6974279  27.7149992  73.0454990  11.9529997
  28.0779992  73.8994990  11.7199997  28.2469992  72.7534990  12.6939997
  27.8365141  73.1228907  12.0212079  25.8829992  73.9174990   5.1839997
  24.9339992  74.0234990   5.2349997  26.2349992  74.7384990   5.5279997
  25.8005647  74.0430029   5.2374882  31.2589992  69.1444990  11.6539997
  30.8329992  68.9164990  12.4799997  31.8399992  68.4054990  11.4719997
  31.2792088  69.0134393  11.7424454  33.4619992  70.0734990   0.7279997
  33.8149992  69.6934990   1.5319997  32.5129992  69.9794990   0.8149997
  33.3820956  70.0087867   0.8498005  33.9179992  73.6964990  14.1229997
  33.3159992  73.1404990  13.6279997  34.1989992  74.3634990  13.4969997
  33.8735757  73.7105755  13.9705657  94.9089992  37.9984990  82.1919997
  94.2619992  37.5364990  81.6589997  95.2639992  37.3264990  82.7749997
  94.8683861  37.8444707  82.1977939  37.9649992  74.5524990   0.9289997
  38.7089992  75.1384990   0.7889997  37.2709992  75.1214990   1.2619997
  37.9729809  74.7095830   0.9548572  22.0399992  60.9294990  13.5309997
  21.1469992  61.2674990  13.4629997  21.9409992  60.0734990  13.9489997
  21.9044752  60.8600986  13.5781644  34.3279992  68.7454990   2.9549997
  34.0509992  68.0174990   3.5109997  35.2549992  68.8644990   3.1599997
  34.4154419  68.6619436   3.0588264  21.6909992  72.7334990  11.9659997
  21.9079992  71.8014990  11.9349997  21.9379992  73.0084990  12.8489997
  21.7540948  72.6430976  12.0811268  26.4899992  70.7554990   1.6309997
  26.6369992  70.2354990   2.4209997  26.4869992  71.6624990   1.9379997
  26.5097102  70.8068964   1.7805907  22.9429992  68.0074990   2.1419997
  22.2569992  68.3604990   2.7089997  23.4659992  68.7704990   1.8949997
  22.9198402  68.1588912   2.1861784  30.7739992  60.6704990  12.4209997
  31.4729992  60.7444990  13.0709997  30.3939992  59.8054990  12.5749997
  30.8182662  60.5637050  12.5307412  31.5589992  60.3224990   3.5179997
  31.7789992  60.7934990   2.7139997  32.1169992  60.7164990   4.1879997
  31.6646044  60.4402946   3.4985207  29.2279992  72.4524990   2.3809997
  28.4109992  72.9494990   2.4329997  29.7569992  72.9284990   1.7399997
  29.1878125  72.5847000   2.3015289  28.7589992  62.0504990   4.3529997
  29.5709992  62.5544990   4.3989997  28.5139992  61.9054990   5.2669997
  28.8371091  62.0999366   4.4828552  95.7789992  36.0784990  83.9969997
  95.4449992  35.1984990  84.1689997  96.0009992  36.4244990  84.8609997
  95.7632677  36.0047365  84.1374252  29.2949992  63.0364990  13.5369997
  29.4139992  63.6104990  14.2939997  29.9499992  62.3484990  13.6519997
  29.3998684  63.0220205  13.6561656  29.6429992  59.1314990   5.2909997
  29.2959992  59.7484990   5.9349997  30.3009992  59.6324990   4.8089997
  29.6844430  59.2836860   5.3140045  26.5659992  73.4964990   2.3619997
  26.7269992  74.2964990   1.8619997  26.3689992  73.8034990   3.2469997
  26.5613906  73.6473690   2.4132316  25.2999992  60.1944990   1.9779997
  25.2169992  61.0824990   2.3249997  26.1899992  59.9294990   2.2099997
  25.4089331  60.2801177   2.0568067  35.4989992  60.9434990  14.3719997
  34.5829992  61.2054990  14.2849997  35.8349992  60.9404990  13.4759997
  35.4188499  60.9790174  14.2388748  34.1009992  64.6934990   8.4679997
  33.3039992  64.2784990   8.1399997  34.5459992  64.0034990   8.9589997
  34.0520367  64.5433372   8.4894897  23.5589992  70.6214990   1.0379997
  24.1509992  71.3214990   1.3149997  24.0179992  70.1884990   0.3189997
  23.7021652  70.6587686   0.9786515  21.8749992  63.2864990   0.1539997
  21.8299992  64.2254990   0.3329997  20.9869992  63.0504990  -0.1150003
  21.7488166  63.3831698   0.1421507  35.1879992  73.9494990  10.0899997
  35.0319992  74.6284990   9.4329997  36.1199992  74.0214990  10.2929997
  35.2927328  74.0521586  10.0275529  22.6829992  58.0674990   8.8269997
  22.4539992  58.1264990   7.8999997  22.2399992  57.2764990   9.1339997
  22.5917387  57.9686412   8.7415223 113.3279992  36.8884990  86.9769997
 113.3059992  37.0734990  87.9159997 114.0179992  37.4564990  86.6359997
 113.4183439  36.9906898  87.0594774  21.6129992  72.0084990   4.9879997
  20.7809992  72.4804990   5.0149997  22.1589992  72.5184990   4.3889997
  21.5728710  72.1420317   4.9107570  20.9019992  74.6204990  16.3179997
  21.4419992  74.4044990  17.0779997  20.4199992  73.8154990  16.1279997
  20.9108485  74.4820463  16.3964870  25.4989992  73.5404990  17.9379997
  26.2669992  73.0814990  18.2789997  25.4779992  73.3144990  17.0079997
  25.6012135  73.4471680  17.8589473  29.5909992  73.0484990  -0.6870003
  28.9469992  72.4174990  -0.3650003  30.3529992  72.5174990  -0.9180003
  29.6058708  72.8903171  -0.6741539  32.0759992  71.9204990  16.6669997
  31.7249992  71.0634990  16.9099997  32.8019992  72.0624990  17.2739997
  32.1261590  71.8225189  16.7822889  34.1949992  72.8654990  -0.4530003
  34.4779992  72.0704990  -0.0000003  34.9349992  73.0984990  -1.0140003
  34.3337295  72.7882349  -0.4668531  20.8089992  68.4314990  17.2719997
  20.9529992  67.5294990  16.9859997  20.0359992  68.7174990  16.7849997
  20.7242266  68.3466548  17.1670102  25.1499992  68.7744990  -0.5950003
  25.2139992  67.9804990  -0.0650003  25.8029992  68.6564990  -1.2850003
  25.2470482  68.6497496  -0.6156593  27.4639992  68.4004990  16.7049997
  27.1359992  68.6714990  15.8479997  27.6159992  67.4594990  16.6169997
  27.4396412  68.3104058  16.5757804  33.1989992  68.3164990  14.0879997
  33.9439992  68.9054990  13.9689997  32.4409992  68.8984990  14.1509997
  33.1985289  68.4757067  14.0802292 112.8909992  36.4554990  89.8989997
 112.4039992  35.7194990  89.5279997 113.4399992  36.0614990  90.5769997
 112.8986101  36.3016267  89.9399034  21.6409992  65.6314990  16.6919997
  22.0489992  64.7744990  16.5709997  21.3809992  65.6454990  17.6129997
  21.6617082  65.5160596  16.7999469  26.2989992  66.7474990   1.7109997
  25.8399992  66.2634990   2.3959997  26.5539992  66.0784990   1.0749997
  26.2705997  66.5908491   1.7188734  25.5879992  64.6404990  14.0669997
  24.9699992  65.3144990  14.3469997  25.9319992  64.9614990  13.2329997
  25.5498078  64.7762298  13.9926609  27.3699992  64.9904990  -0.0270003
  27.1899992  64.8354990  -0.9540003  28.3199992  65.0984990   0.0179997
  27.4737804  64.9838821  -0.1478034  30.6079992  67.1114990  17.3439997
  31.5609992  67.1954990  17.3169997  30.4479992  66.3994990  17.9629997
  30.7167320  67.0267292  17.4239933  36.7599992  67.3444990  -0.5810003
  36.4869992  66.9204990  -1.3940003  36.7999992  68.2764990  -0.7980003
  36.7280201  67.4123523  -0.7216452  25.9279992  61.9954990  15.1489997
  26.0779992  61.2664990  14.5469997  25.9299992  62.7724990  14.5899997
  25.9487967  62.0007720  14.9910523  26.3399992  60.3644990  12.6419997
  26.8759992  60.8164990  11.9899997  25.4879992  60.2564990  12.2189997
  26.2981795  60.4117444  12.4956211  27.9219992  65.8044990  12.8809997
  28.6729992  65.6484990  12.3079997  27.5829992  66.6564990  12.6059997
  27.9789587  65.8983149  12.7654060  32.3379992  63.6194990  17.9099997
  32.5299992  62.6884990  17.7979997  33.1949992  64.0444990  17.8989997
  32.4802176  63.5495090  17.8931757 111.3419992  32.2454990  94.5369997
 110.4759992  32.1404990  94.9309997 111.7179992  33.0034990  94.9839997
 111.2743768  32.3336151  94.6513258  33.6539992  66.4084990  15.9869997
  33.3729992  67.1174990  15.4089997  34.5969992  66.3354990  15.8359997
  33.7429272  66.4956704  15.8874976  24.4059992  63.1934990  17.0599997
  23.6389992  62.6604990  16.8499997  25.0849992  62.8834990  16.4609997
  24.3928292  63.0786360  16.9502693  27.1459992  57.8214990  13.0729997
  27.0479992  58.7674990  12.9679997  26.4029992  57.4484990  12.5969997
  27.0322123  57.9006811  12.9943204  28.4099992  62.1424990  16.6369997
  28.1739992  61.9234990  17.5379997  27.6269992  61.9354990  16.1269997
  28.2718382  62.0845340  16.6913991  31.1259992  61.2704990  15.7119997
  30.1779992  61.3024990  15.8439997  31.4379992  60.6444990  16.3659997
  31.0385293  61.1902934  15.8184130  32.7599992  59.9044990  17.7169997
  32.6629992  58.9524990  17.7119997  32.4379992  60.1724990  18.5779997
  32.7032468  59.8105896  17.8326192  22.5869992  61.1134990  16.7649997
  22.7979992  60.4074990  16.1549997  22.4749992  60.6764990  17.6089997
  22.6007668  60.9576619  16.7955445  27.3679992  57.1154990  15.7439997
  28.0789992  56.4754990  15.7299997  27.2669992  57.3814990  14.8309997
  27.4516858  57.0638591  15.6185501  27.7209992  58.7974990  17.7979997
  27.5899992  58.3224990  16.9779997  27.1219992  59.5424990  17.7429997
  27.6220829  58.8330949  17.6781823  27.2679992  75.6804990   0.9739997
  28.2009992  75.8384990   1.1179997  27.0029992  76.3564990   0.3489997
  27.3599846  75.7934567   0.9092930 112.6429992  30.5014990  80.0509997
 113.4929992  30.9224990  80.1789997 112.6479992  29.7614990  80.6589997
 112.7599745  30.4591347  80.1506479  20.8359992  70.3174990   0.4569997
  21.7499992  70.3964990   0.7299997  20.8429992  69.6304990  -0.2090003
  20.9620624  70.2354074   0.4043045  19.4849992  75.7104990   5.5339997
  18.8379992  75.2484990   5.0019997  19.8399992  75.0384990   6.1169997
  19.4443741  75.5564785   5.5399157  20.3549992  73.7904990   7.3389997
  20.0209992  72.9104990   7.5109997  20.5769992  74.1364990   8.2039997
  20.3392565  73.7167410   7.4794263  37.9039992  74.6004990  10.3199997
  37.8819992  74.7854990  11.2579997  38.5939992  75.1684990   9.9789997
  37.9943383  74.7027104  10.4024580  37.4669992  74.1674990  13.2409997
  36.9799992  73.4314990  12.8699997  38.0159992  73.7734990  13.9189997
  37.4746101  74.0136267  13.2819034  35.9179992  69.9574990  17.8789997
  35.0519992  69.8524990  18.2739997  36.2939992  70.7154990  18.3259997
  35.8504940  70.0456141  17.9933958  37.2189992  68.2134990   3.3939997
  38.0689992  68.6344990   3.5209997  37.2239992  67.4734990   4.0009997
  37.3361143  68.1711106   3.4934732  37.6129992  66.2674990   5.2169997
  36.8869992  65.7874990   5.6149997  38.1939992  66.4724990   5.9489997
  37.5922504  66.2295592   5.3704199  37.3719992  69.0524990  10.1649997
  38.2059992  68.6744990   9.8839997  37.4839992  69.9954990  10.0459997
  37.5011917  69.1282954  10.1104844  35.8579992  71.9304990  12.4719997
  35.2109992  72.2554990  13.0969997  35.3409992  71.4894990  11.7979997
  35.6994112  71.9154133  12.4665272 113.0369992  28.5554990  81.8749997
 112.3109992  28.0754990  82.2729997 113.6179992  28.7604990  82.6069997
 113.0162504  28.5175592  82.0284199  37.8809992  66.1684990   1.6079997
  37.3599992  66.5244990   0.8899997  37.8479992  66.8434990   2.2869997
  37.8050955  66.3085023   1.6012634  36.2299992  63.4074990   0.1589997
  36.3269992  64.0744990  -0.5210003  36.0899992  62.5924990  -0.3220003
  36.2243407  63.3885670   0.0008312  35.3999992  64.7884990   5.7799997
  35.2499992  63.8434990   5.7599997  35.0459992  65.0694990   6.6239997
  35.3316351  64.6971656   5.8913202  20.4349992  66.8664990   9.7909997
  20.6189992  66.7844990   8.8549997  21.2839992  66.7424990  10.2139997
  20.5750132  66.8385066   9.7201460  36.2559992  66.7584990  15.4189997
  36.8389992  66.0234990  15.6109997  36.8199992  67.5304990  15.4659997
  36.4119781  66.7623156  15.4516146  37.7529992  64.6614990  16.1039997
  36.8889992  64.2824990  15.9379997  38.3569992  63.9224990  16.0289997
  37.7165394  64.5098378  16.0711778  35.1099992  62.3704990   4.2429997
  35.3899992  61.4634990   4.3669997  35.8689992  62.8044990   3.8539997
  35.2509258  62.3050935   4.2073691  35.7219992  62.9524990   9.6789997
  36.6549992  63.1644990   9.6439997  35.4869992  63.0534990  10.6009997
  35.8179517  62.9951844   9.7989113  35.7509992  63.6894990  12.4549997
  34.9079992  63.9574990  12.8199997  36.1939992  64.5114990  12.2439997
  35.6954035  63.8373351  12.4764770  20.0319992  62.1364990  15.9309997
  20.9519992  62.0144990  16.1679997  19.5829992  61.3864990  16.3209997
  20.0970500  62.0184576  16.0161016 112.7959992  31.3404990  86.8229997
 113.6299992  30.9624990  86.5419997 112.9079992  32.2834990  86.7039997
 112.9251917  31.4162954  86.7684844  38.0339992  57.6694990  17.8079997
  38.3839992  57.0154990  17.2019997  38.1809992  58.5064990  17.3679997
  38.1017192  57.6932545  17.6656712  35.7239992  59.6334990   4.2909997
  35.9059992  59.1844990   5.1159997  35.1239992  59.0494990   3.8269997
  35.6678187  59.4930563   4.3412721  21.2539992  60.4494990   8.8229997
  21.6989992  59.6574990   9.1249997  21.7199992  61.1654990   9.2529997
  21.3779718  60.4379546   8.9225247  19.5579992  63.4484990   9.8919997
  20.0499992  63.2274990   9.1009997  19.9199992  64.2884990  10.1729997
  19.6742923  63.5318480   9.8217389  37.5539992  59.7784990  16.1569997
  36.6369992  60.0494990  16.1209997  37.6769992  59.2434990  15.3729997
  37.4450828  59.7432711  16.0460767  37.5899992  59.7014990   0.8189997
  38.0029992  58.9804990   0.3439997  38.2719992  60.3704990   0.8769997
  37.7386060  59.6933741   0.7619233  19.8709992  59.7064990   3.9459997
  18.9459992  59.9144990   3.8169997  20.3249992  60.1904990   3.2559997
  19.8056298  59.8004311   3.8350433  34.6419992  74.6904990   5.8919997
  35.2939992  74.3424990   5.2839997  35.1529992  75.1784990   6.5379997
  34.8002872  74.7088248   5.8960964  19.8349992  58.4444990  12.2899997
  19.1699992  58.1984990  12.9329997  19.3919992  59.0664990  11.7129997
  19.6841168  58.4949225  12.2999830  22.0269992  71.6194990  16.4349997
  21.2059992  71.7944990  15.9739997  21.7749992  71.5464990  17.3549997
  21.8805594  71.6335728  16.4963593 111.2819992  34.2184990  89.1299997
 110.6349992  34.5434990  89.7549997 110.7649992  33.7774990  88.4549997
 111.1234068  34.2034726  89.1244918  24.9809992  72.5934990  12.6929997
  24.5559992  73.4034990  12.4109997  25.8849992  72.6794990  12.3909997
  25.0450706  72.7159557  12.6135836  29.2919992  73.9924990  15.6529997
  29.4769992  73.6594990  16.5309997  30.1389992  74.3024990  15.3309997
  29.4317291  73.9888214  15.7296140  31.6369992  75.2784990  14.8969997
  32.3139992  74.6454990  14.6569997  31.9589992  75.6794990  15.7039997
  31.7731618  75.2461147  14.9732802  36.5549992  57.8684990  13.9759997
  35.7419992  58.1934990  13.5889997  36.7879992  57.1074990  13.4429997
  36.4751347  57.8101891  13.8509824  22.3829992  75.8504990  12.7409997
  21.6619992  76.2904990  12.2899997  22.0169992  75.5994990  13.5889997
  22.2349632  75.8767235  12.7939649  24.8499992  75.4504990  11.7699997
  23.9849992  75.5224990  12.1739997  24.7949992  75.9974990  10.9869997
  24.7242289  75.5343242  11.7193749  29.5609992  75.3384990  10.9459997
  29.1039992  75.8674990  10.2919997  29.7229992  75.9414990  11.6709997
  29.5203919  75.4923990  10.9545740  31.8879992  74.2164990  11.8909997
  30.9839992  74.3814990  11.6249997  32.3169992  75.0694990  11.8249997
  31.8222017  74.3544184  11.8456495  34.4919992  75.7864990  12.1859997
  34.3109992  76.7024990  11.9749997  34.6689992  75.3754990  11.3389997
  34.4911377  75.8563365  12.0427178  21.7979992  74.4734990   9.6509997
  21.7789992  74.0474990  10.5079997  22.6019992  74.1544990   9.2419997
  21.9041393  74.3720297   9.7130155 113.3049992  28.4564990  78.2659997
 112.7839992  28.8124990  77.5469997 113.2719992  29.1314990  78.9439997
 113.2291525  28.5965273  78.2591408  23.9389992  73.1834990   8.3059997
  23.7199992  72.2664990   8.4759997  24.7629992  73.3234990   8.7719997
  24.0204702  73.0770523   8.3922510  26.4759992  73.6534990   9.1549997
  26.6889992  72.7654990   8.8679997  26.5409992  73.6184990  10.1089997
  26.5139149  73.5273338   9.2447351  29.9849992  59.3174990   8.2989997
  29.3099992  58.6874990   8.5549997  30.5489992  58.8334990   7.6959997
  29.9689363  59.1658886   8.2524810  35.1269992  57.4244990   8.4119997
  35.7309992  57.9724990   7.9099997  34.2579992  57.7434990   8.1709997
  35.0920419  57.5425628   8.3107741  36.8539992  58.5634990   6.7449997
  37.4659992  58.0494990   6.2179997  37.2369992  59.4404990   6.7679997
  36.9893867  58.6117613   6.6760888  22.3109992  57.9514990   6.1209997
  21.5339992  57.7164990   5.6139997  22.8419992  57.1544990   6.1299997
  22.2763735  57.8116462   6.0528090  21.1479992  57.7494990   1.9249997
  21.5869992  58.3604990   1.3329997  20.5139992  58.2874990   2.3989997
  21.1223859  57.9059076   1.9080287  26.8909992  57.8774990   5.9339997
  27.7649992  58.2664990   5.9049997  26.7549992  57.6624990   6.8569997
  26.9921953  57.9016654   6.0547599  32.4469992  57.9074990   7.5839997
  32.5239992  58.0034990   6.6339997  32.1719992  57.0004990   7.7119997
  32.4203233  57.7979093   7.4713665  33.8009992  57.9334990   3.2759997
  33.0979992  58.5484990   3.0659997  33.3559992  57.0964990   3.4069997
  33.6446550  57.9044679   3.2649819 110.8239992  27.0764990  82.4379997
 110.6739992  26.1314990  82.4179997 110.4699992  27.3574990  83.2819997
 110.7556351  26.9851656  82.5493202  21.0489992  73.6974990   2.8219997
  20.3639992  73.6594990   2.1549997  21.0519992  74.6094990   3.1099997
  20.9556806  73.8156669   2.7696961  23.0089992  59.6654990   0.3669997
  23.4999992  59.0354990  -0.1600003  23.6319992  59.9614990   1.0299997
  23.1605304  59.6192387   0.3844922  28.0349992  59.9584990   2.8239997
  28.2129992  59.3114990   3.5069997  27.9809992  60.7924990   3.2909997
  28.0520678  59.9826615   2.9806283  29.9129992  74.9064990   1.2199997
  30.7789992  75.2734990   1.0419997  29.6659992  74.4674990   0.4059997
  29.9981853  74.8974021   1.0855813  36.6219992  74.4694990   3.8989997
  36.4279992  73.7214990   3.3339997  36.5829992  75.2274990   3.3159997
  36.5901645  74.4695797   3.7428131  22.2689992  58.4654990  15.6389997
  21.9029992  57.6994990  16.0809997  23.1819992  58.4944990  15.9249997
  22.3423172  58.3645335  15.7381872  24.2419992  57.8154990  17.1739997
  25.1409992  57.5414990  16.9899997  23.8559992  57.0734990  17.6389997
  24.3127307  57.6777207  17.2117080  22.8669992  74.6174990  -0.1530003
  22.5989992  74.9034990   0.7209997  23.6379992  74.0714990  -0.0000003
  22.9345927  74.5827790  -0.0128812  32.6629992  57.1484990  17.3569997
  32.7399992  56.7224990  18.2099997  33.5569992  57.1614990  17.0139997
  32.7943263  57.0919345  17.4274366  35.8399992  73.2204990  16.0489997
  35.0579992  73.0344990  15.5289997  35.7679992  74.1504990  16.2659997
  35.7232975  73.3206973  16.0071822  95.8589992  29.1544990  86.4479997
  96.0429992  29.0724990  85.5129997  96.7079992  29.0304990  86.8719997
  95.9990259  29.1264915  86.3771771  50.2459992  67.1074990   6.0799997
  50.3349992  68.0514990   5.9469997  49.6069992  66.8324990   5.4219997
  50.1718378  67.1993846   5.9729258  49.1789992  66.3624990   9.4989997
  49.1399992  65.7164990  10.2039997  48.8559992  65.8954990   8.7269997
  49.1300469  66.2110005   9.4912803  41.5469992  65.9764990  11.0919997
  41.5879992  65.3514990  11.8149997  42.2499992  66.6004990  11.2739997
  41.6476223  65.9752318  11.2156164  52.8849992  69.3014990   7.7999997
  52.4439992  68.5814990   8.2509997  52.8719992  70.0224990   8.4299997
  52.8229215  69.3004303   7.9468088  42.4709992  70.4264990   9.6269997
  42.1009992  69.6244990   9.2569997  43.4119992  70.2584990   9.6729997
  42.5475984  70.2939649   9.5825586  39.0809992  64.0864990   5.0189997
  38.6329992  64.9324990   5.0009997  38.5199992  63.5074990   4.5039997
  38.9438546  64.1239004   4.9468874  39.7909992  66.2484990   7.1449997
  40.0049992  65.4784990   7.6719997  40.5289992  66.3384990   6.5419997
  39.9200073  66.1553546   7.1355786  49.9959992  74.4054990   8.0119997
  50.6159992  73.7294990   7.7389997  49.7879992  74.1874990   8.9209997
  50.0527679  74.2835032   8.0974518  47.5679992  68.7944990   9.9049997
  47.8719992  68.1084990   9.3099997  48.2899992  68.9134990  10.5229997
  47.7071240  68.7167325   9.9070941  56.2309992  60.3964990  10.7649997
  56.2799992  61.0064990  11.5009997  56.6569992  60.8574990  10.0419997
  56.2952851  60.5423266  10.7680532 111.6799992  29.0464990  92.0769997
 112.2629992  28.3114990  92.2679997 112.2439992  29.8184990  92.1229997
 111.8360326  29.0502746  92.1093579  50.7089992  63.1884990  10.2319997
  50.8509992  62.2424990  10.2519997  50.6029992  63.3954990   9.3039997
  50.7141051  63.0869706  10.1092249  43.8639992  61.2904990   7.5049997
  43.9069992  62.1504990   7.0859997  43.4059992  60.7374990   6.8709997
  43.8080163  61.3334174   7.3620604  51.5859992  61.4214990   5.9049997
  52.2319992  61.0924990   6.5299997  52.0959992  61.9384990   5.2829997
  51.7434289  61.4464333   5.9063681  40.4839992  63.6874990   8.2669997
  41.1379992  63.1374990   8.6989997  40.5079992  63.4134990   7.3499997
  40.5767199  63.5752178   8.2021650  45.6399992  65.2374990   7.4819997
  46.2559992  64.7104990   7.9909997  45.0539992  64.5974990   7.0779997
  45.6450652  65.0788919   7.4970277  56.6229992  61.8744990  13.0009997
  55.9339992  62.5324990  12.9059997  56.6379992  61.6764990  13.9379997
  56.5307756  61.9377614  13.1145795  42.6739992  60.2084990  11.5789997
  42.4549992  60.7384990  10.8119997  42.0059992  60.4344990  12.2259997
  42.5536975  60.3115979  11.5615123  50.0429992  69.7084990   5.1229997
  49.7469992  69.3854990   4.2709997  49.7189992  70.6084990   5.1639997
  49.9587458  69.7859678   5.0120598  45.2429992  67.8834990  11.8659997
  44.5029992  68.4824990  11.9699997  45.9569992  68.4374990  11.5499997
  45.2383146  68.0402611  11.8375150  53.3499992  60.7124990   7.8859997
  53.1349992  59.9464990   8.4189997  54.0059992  61.1844990   8.3989997
  53.4092673  60.6715739   8.0281972 113.1769992  26.9494990  92.7609997
 112.3129992  26.5704990  92.5959997 113.7809992  26.2104990  92.6869997
 113.1404912  26.7977937  92.7284360  42.2679992  62.1004990   9.5309997
  42.8809992  62.7334990   9.9039997  42.7799992  61.6284990   8.8749997
  42.4211933  62.1233380   9.4933477  43.6499992  69.8484990  12.6529997
  43.6449992  70.7274990  12.2749997  42.7969992  69.7644990  13.0779997
  43.5339199  69.9575901  12.6586942  39.7719992  69.5194990   3.4349997
  39.4999992  69.7484990   2.5459997  39.8169992  70.3564990   3.8959997
  39.7408360  69.6641034   3.3756186  53.3969992  71.1404990  10.1479997
  52.4549992  71.1994990  10.3099997  53.6729992  72.0464990  10.0109997
  53.3055865  71.2710299  10.1516174  53.6969992  59.4274990  11.5649997
  52.9609992  60.0374990  11.5279997  54.3809992  59.8424990  11.0389997
  53.6885367  59.5672562  11.4888156  46.6999992  57.5134990   9.0309997
  46.5829992  56.5654990   8.9769997  45.8449992  57.8464990   9.3039997
  46.5683691  57.4285842   9.0605072  51.6489992  72.9214990   6.7729997
  52.0739992  72.2144990   6.2879997  51.9659992  73.7234990   6.3559997
  51.7500266  72.9330201   6.6502461  52.8079992  70.8224990   5.2819997
  52.5509992  70.1324990   4.6699997  52.8789992  70.3794990   6.1269997
  52.7824322  70.6681568   5.3125372  54.4939992  69.3894990  13.7589997
  54.6339992  68.7974990  13.0199997  54.6619992  70.2624990  13.4029997
  54.5358734  69.4264041  13.6096937  48.9669992  66.3514990   3.5319997
  48.2549992  66.8864990   3.1799997  49.6579992  66.4064990   2.8719997
  48.9629704  66.4321663   3.3945797 110.5339992  24.6584990  80.8999997
 110.8139992  23.7514990  81.0249997 111.2929992  25.0924990  80.5109997
 110.6749471  24.5930654  80.8645052  49.0209992  64.8084990   0.5699997
  49.7219992  64.8314990   1.2219997  49.3229992  64.1804990  -0.0860003
  49.1578202  64.7267223   0.5705591  56.3359992  65.7294990  11.8249997
  55.6839992  66.4234990  11.9139997  56.8009992  65.9394990  11.0149997
  56.3095357  65.8529544  11.7277056  52.3729992  66.5604990   4.4829997
  51.6409992  66.7894990   5.0559997  52.8199992  65.8474990   4.9379997
  52.3332753  66.4953984   4.6229698  52.2699992  64.7354990  13.5509997
  52.3499992  65.4984990  14.1229997  51.6689992  65.0144990  12.8609997
  52.1996547  64.8777468  13.5360029  44.0179992  67.1914990   6.3659997
  43.6879992  66.8204990   5.5479997  44.6059992  66.5204990   6.7129997
  44.0523182  67.0500648   6.3009898  45.3849992  70.6194990   9.0469997
  45.2899992  70.0404990   8.2909997  46.1139992  70.2484990   9.5429997
  45.4706011  70.4900572   9.0106011  44.3849992  65.9594990   9.9989997
  44.9499992  66.0814990   9.2369997  44.7029992  66.5974990  10.6379997
  44.5053619  66.0624388   9.9810019  50.6939992  71.4634990  10.7329997
  50.4529992  72.1254990  11.3809997  50.4959992  70.6284990  11.1579997
  50.6342662  71.4412704  10.8791008  45.2649992  70.3594990  14.7169997
  44.9529992  71.1414990  15.1719997  44.6149992  70.2064990  14.0309997
  45.1344858  70.4457882  14.6865344  51.2439992  65.7234990   2.1689997
  51.8229992  65.8734990   2.9149997  51.6579992  66.1934990   1.4449997
  51.3793358  65.8075966   2.1733935 111.1459992  25.2404990  86.3359997
 112.0789992  25.4524990  86.3019997 110.9109992  25.3414990  87.2589997
 111.2418357  25.2831303  86.4560232  42.1849992  66.5574990  13.9449997
  42.2549992  67.2084990  14.6439997  41.2939992  66.6604990  13.6099997
  42.0741690  66.6604261  13.9953026  48.9699992  72.4594990   5.6039997
  49.4439992  72.7554990   6.3809997  48.4069992  73.1984990   5.3709997
  48.9587890  72.5998047   5.6788084  43.5039992  72.4304990  15.4799997
  43.5119992  72.2944990  14.5329997  42.5879992  72.3134990  15.7319997
  43.3812528  72.3960475  15.3843226  54.9419992  57.4734990   1.9809997
  54.0419992  57.6114990   2.2769997  55.1939992  58.3044990   1.5799997
  54.8527727  57.6048705   1.9672935  43.0079992  66.2604990   3.9549997
  42.7159992  67.0284990   3.4639997  42.3339992  65.6014990   3.7919997
  42.8768843  66.2764537   3.8657695  56.1319992  71.8394990   0.3579997
  56.2049992  72.7784990   0.5279997  57.0369992  71.5344990   0.3019997
  56.2644170  71.9268294   0.3737045  39.1009992  68.6234990  12.7699997
  38.5999992  68.5954990  11.9549997  39.1069992  67.7184990  13.0799997
  39.0331690  68.4972234  12.7002770  38.8519992  71.4044990   9.6539997
  39.7979992  71.2594990   9.6349997  38.7389992  72.1884990  10.1909997
  38.9663578  71.4906708   9.7240300  57.0489992  72.0704990  15.3369997
  56.9999992  71.1144990  15.2989997  56.2229992  72.3374990  15.7379997
  56.9305096  71.9758416  15.3860698  48.0279992  71.6444990  14.2129997
  48.1149992  72.4704990  14.6879997  47.1639992  71.3144990  14.4619997
  47.9231944  71.7129871  14.3116558 111.1749992  25.9774990  89.1119997
 110.3319992  26.2454990  89.4779997 111.6179992  26.7994990  88.9009997
 111.1194358  26.1253294  89.1335999  48.4419992  75.4164990   4.0189997
  48.3669992  75.2954990   3.0719997  48.4749992  76.3654990   4.1369997
  48.4362083  75.5282639   3.9054973  42.0959992  74.2054990   5.7999997
  42.2479992  73.8574990   6.6779997  41.2449992  73.8484990   5.5439997
  42.0018344  74.1095891   5.8856851  51.5439992  74.5704990   1.0209997
  51.9189992  73.8264990   0.5499997  51.5479992  74.3004990   1.9389997
  51.5958969  74.4320920   1.0806475  51.2129992  74.4964990   3.7699997
  50.2779992  74.5964990   3.9489997  51.4929992  73.7864990   4.3489997
  51.1229471  74.4142944   3.8726678  54.2009992  63.5634990  15.8169997
  53.7939992  64.0434990  15.0959997  54.2419992  62.6574990  15.5089997
  54.1508403  63.5067989  15.6767253  41.3499992  69.9474990  13.8129997
  41.5659992  69.5854990  14.6729997  40.4949992  69.5724990  13.6039997
  41.2639082  69.8473377  13.9022396  43.9689992  58.4174990   9.8089997
  43.1069992  58.3304990   9.4009997  43.9469992  59.2734990  10.2369997
  43.8480557  58.5213078   9.8110202  48.6319992  58.1394990  13.1839997
  49.0519992  57.7244990  13.9369997  47.6989992  57.9604990  13.3009997
  48.5633736  58.0584921  13.3028950  51.9579992  61.8944990  14.0369997
  51.4439992  61.7694990  14.8349997  51.8029992  62.8074990  13.7929997
  51.8667802  62.0007433  14.1131504  52.7209992  66.7554990  -0.2020003
  52.7629992  66.5334990  -1.1320003  53.5699992  67.1544990  -0.0120003
  52.8415253  66.7790510  -0.3036196  95.4559992  24.4244990  92.5889997
  96.3759992  24.3024990  92.8249997  95.0069992  23.6744990  92.9779997
  95.5211561  24.3063720  92.6739015  48.2939992  60.6314990   0.4689997
  48.0399992  60.6504990   1.3909997  48.0369992  59.7604990   0.1669997
  48.2244508  60.5163292   0.5544786  44.0599992  63.3824990  10.9039997
  43.4179992  63.3424990  11.6129997  44.0969992  64.3094990  10.6659997
  43.9771659  63.5022540  10.9688463  44.0569992  63.6034990   5.8159997
  43.1639992  63.2634990   5.7569997  44.5079992  63.2264990   5.0599997
  43.9957185  63.5060220   5.7057698  49.5929992  64.0194990   4.6329997
  49.1839992  64.8344990   4.3409997  50.3129992  63.8794990   4.0189997
  49.6344439  64.1120383   4.5100098  48.6949992  64.1954990  16.1209997
  48.1319992  63.4904990  16.4419997  49.5209992  64.0744990  16.5889997
  48.7296674  64.0827176  16.2281734  50.5969992  63.4654990   7.4469997
  50.4019992  64.0714990   6.7319997  50.7789992  62.6324990   7.0129997
  50.5949195  63.4357936   7.2904079  41.8099992  63.7034990  12.7709997
  41.7719992  64.1034990  13.6399997  41.3189992  62.8864990  12.8609997
  41.7384374  63.6478228  12.9020980  45.1759992  61.0774990  -0.4300003
  44.7449992  60.6324990   0.2989997  44.4579992  61.4484990  -0.9430003
  45.0199176  61.0667063  -0.3995087  38.4179992  60.8194990   6.6219997
  39.0489992  60.7904990   7.3409997  38.8679992  60.3944990   5.8909997
  38.5651082  60.7581269   6.6216307  39.6919992  61.5654990   2.0459997
  40.1669992  62.1564990   1.4609997  38.9749992  62.0954990   2.3929997
  39.6600406  61.7181011   2.0128495 113.4579992  19.9574990  94.4659997
 113.8079992  19.3034990  93.8599997 113.6049992  20.7944990  94.0259997
 113.5257192  19.9812545  94.3236712  49.8609992  65.1034990  12.1179997
  50.1849992  64.4724990  11.4749997  49.4209992  64.5694990  12.7789997
  49.8458707  64.9448261  12.1193195  46.6389992  61.0314990   6.9019997
  45.7279992  61.0884990   7.1909997  47.1439992  60.9714990   7.7129997
  46.5826873  61.0311838   7.0511190  41.4669992  62.6604990   5.7289997
  40.5779992  62.7594990   5.3889997  41.7629992  61.8184990   5.3829997
  41.3854001  62.5602473   5.6357318  45.1199992  62.6604990   3.3859997
  46.0519992  62.7894990   3.5639997  44.9049992  63.3294990   2.7359997
  45.2184472  62.7685817   3.3224873  51.0439992  60.2664990  10.1659997
  50.3669992  60.3974990  10.8299997  50.5579992  60.1114990   9.3559997
  50.8857265  60.2634665  10.1473380  43.7939992  63.8544990   0.9519997
  43.2519992  63.4754990   0.2609997  44.6279992  64.0494990   0.5239997
  43.8324390  63.8289091   0.7994374  54.3309992  75.9374990  16.4429997
  54.5309992  76.3614990  15.6089997  54.9869992  76.2814990  17.0499997
  54.4469937  76.0419993  16.4108645  41.9289992  68.4114990  16.0509997
  42.6609992  68.6664990  16.6129997  41.1489992  68.6164990  16.5669997
  41.9236526  68.4740438  16.1975168  47.9589992  63.8184990   8.7889997
  48.5229992  63.2724990   8.2419997  47.8109992  63.2974990   9.5779997
  48.0163037  63.6731798   8.8207212  42.9609992  59.9554990   5.2079997
  42.6429992  59.0524990   5.1719997  43.7419992  59.9574990   4.6549997
  43.0231079  59.8322240   5.1282908 111.1479992  21.9214990  80.9489997
 111.3299992  21.4724990  81.7739997 110.5479992  21.3374990  80.4849997
 111.0918187  21.7810563  80.9992721  46.5849992  62.2074990  11.2029997
  45.7499992  62.6614990  11.3139997  47.1089992  62.4834990  11.9549997
  46.5416072  62.3068960  11.3198118  47.1289992  68.4204990   2.8879997
  46.3839992  67.9124990   2.5659997  46.9949992  68.4694990   3.8339997
  47.0089334  68.3576144   2.9718892  54.2789992  67.5534990  11.6749997
  54.9209992  68.0094990  11.1309997  53.4489992  67.6664990  11.2119997
  54.2546536  67.6311813  11.5379579  51.0269992  61.2344990   1.0869997
  50.0879992  61.3454990   0.9359997  51.3239992  62.0904990   1.3939997
  50.9386136  61.3654977   1.1078568  48.6489992  68.6044990  14.1249997
  48.3029992  68.2224990  14.9319997  48.4489992  69.5374990  14.1959997
  48.5745987  68.6784013  14.2450443  51.7449992  63.1014990   2.7479997
  52.6369992  62.9634990   3.0669997  51.8019992  63.8924990   2.2109997
  51.8747380  63.1894777   2.7190981  42.2539992  67.7154990   8.6579997
  42.9989992  67.7124990   8.0559997  42.3319992  66.8914990   9.1389997
  42.3663365  67.6037395   8.6407412  49.2549992  69.8784990   1.9129997
  48.9599992  70.7054990   2.2949997  48.5519992  69.2594990   2.1099997
  49.1196379  69.9079182   1.9918636  39.2619992  66.1754990  13.9729997
  39.4849992  65.7574990  14.8039997  38.6599992  65.5634990  13.5499997
  39.2111513  66.0354617  14.0296722  46.2789992  65.6924990  16.1859997
  45.9829992  65.5274990  15.2899997  47.2099992  65.4724990  16.1749997
  46.3644401  65.6401891  16.0620189  96.6779992  22.7374990  85.4799997
  97.1229992  21.9454990  85.7819997  97.1439992  23.4534990  85.9109997
  96.8019059  22.7259485  85.5796061  50.8989992  71.0664990  14.0749997
  49.9979992  71.2494990  13.8079997  50.9329992  71.3254990  14.9959997
  50.7803861  71.1265245  14.1629517  56.6299992  63.3104990   2.4429997
  56.0759992  62.9144990   1.7699997  56.7309992  64.2214990   2.1649997
  56.5678589  63.3793904   2.3133839  56.5929992  69.1114990  15.2799997
  55.7419992  69.3494990  14.9119997  57.1839992  69.0944990  14.5259997
  56.5563831  69.1417623  15.1278448  54.9249992  72.0964990   2.9079997
  54.5529992  71.2714990   3.2169997  55.2029992  71.9134990   2.0099997
  54.9115807  71.9587031   2.8290063  52.0859992  66.9044990   9.9289997
  51.1579992  66.6734990   9.9019997  52.5369992  66.1274990   9.5989997
  52.0198165  66.7677785   9.8806772  44.6289992  71.2334990   6.0619997
  45.1559992  72.0064990   5.8619997  43.7489992  71.4574990   5.7599997
  44.5822121  71.3697344   5.9937460  40.3839992  66.0954990   0.6489997
  40.9999992  66.7224990   1.0289997  39.5219992  66.4114990   0.9209997
  40.3517678  66.2239423   0.7377192  46.0559992  68.8964990   5.6379997
  45.8149992  69.8214990   5.6799997  45.3159992  68.4374990   6.0349997
  45.9229463  68.9610969   5.6974279  46.5709992  73.0454990  11.9529997
  46.9339992  73.8994990  11.7199997  47.1029992  72.7534990  12.6939997
  46.6925141  73.1228907  12.0212079  44.7389992  73.9174990   5.1839997
  43.7899992  74.0234990   5.2349997  45.0909992  74.7384990   5.5279997
  44.6565647  74.0430029   5.2374882  94.9819992  25.7364990  86.5489997
  95.4739992  25.5154990  85.7589997  95.3439992  26.5764990  86.8299997
  95.0983429  25.8198220  86.4787918  50.1149992  69.1444990  11.6539997
  49.6889992  68.9164990  12.4799997  50.6959992  68.4054990  11.4719997
  50.1352088  69.0134393  11.7424454  52.3179992  70.0734990   0.7279997
  52.6709992  69.6934990   1.5319997  51.3689992  69.9794990   0.8149997
  52.2380956  70.0087867   0.8498005  52.7739992  73.6964990  14.1229997
  52.1719992  73.1404990  13.6279997  53.0549992  74.3634990  13.4969997
  52.7295757  73.7105755  13.9705657  56.8209992  74.5524990   0.9289997
  57.5649992  75.1384990   0.7889997  56.1269992  75.1214990   1.2619997
  56.8289809  74.7095830   0.9548572  40.8959992  60.9294990  13.5309997
  40.0029992  61.2674990  13.4629997  40.7969992  60.0734990  13.9489997
  40.7604752  60.8600986  13.5781644  53.1839992  68.7454990   2.9549997
  52.9069992  68.0174990   3.5109997  54.1109992  68.8644990   3.1599997
  53.2714419  68.6619436   3.0588264  40.5469992  72.7334990  11.9659997
  40.7639992  71.8014990  11.9349997  40.7939992  73.0084990  12.8489997
  40.6100948  72.6430976  12.0811268  45.3459992  70.7554990   1.6309997
  45.4929992  70.2354990   2.4209997  45.3429992  71.6624990   1.9379997
  45.3657102  70.8068964   1.7805907  41.7989992  68.0074990   2.1419997
  41.1129992  68.3604990   2.7089997  42.3219992  68.7704990   1.8949997
  41.7758402  68.1588912   2.1861783  49.6299992  60.6704990  12.4209997
  50.3289992  60.7444990  13.0709997  49.2499992  59.8054990  12.5749997
  49.6742662  60.5637050  12.5307412 112.9779992  22.0664990  92.8149997
 112.0609992  22.3374990  92.7789997 113.1009992  21.5314990  92.0309997
 112.8690828  22.0312711  92.7040767  50.4149992  60.3224990   3.5179997
  50.6349992  60.7934990   2.7139997  50.9729992  60.7164990   4.1879997
  50.5206044  60.4402946   3.4985207  48.0839992  72.4524990   2.3809997
  47.2669992  72.9494990   2.4329997  48.6129992  72.9284990   1.7399997
  48.0438125  72.5847000   2.3015289  47.6149992  62.0504990   4.3529997
  48.4269992  62.5544990   4.3989997  47.3699992  61.9054990   5.2669997
  47.6931091  62.0999366   4.4828552  48.1509992  63.0364990  13.5369997
  48.2699992  63.6104990  14.2939997  48.8059992  62.3484990  13.6519997
  48.2558684  63.0220205  13.6561656  48.4989992  59.1314990   5.2909997
  48.1519992  59.7484990   5.9349997  49.1569992  59.6324990   4.8089997
  48.5404430  59.2836860   5.3140046  45.4219992  73.4964990   2.3619997
  45.5829992  74.2964990   1.8619997  45.2249992  73.8034990   3.2469997
  45.4173906  73.6473690   2.4132316  44.1559992  60.1944990   1.9779997
  44.0729992  61.0824990   2.3249997  45.0459992  59.9294990   2.2099997
  44.2649331  60.2801177   2.0568067  54.3549992  60.9434990  14.3719997
  53.4389992  61.2054990  14.2849997  54.6909992  60.9404990  13.4759997
  54.2748499  60.9790174  14.2388748  52.9569992  64.6934990   8.4679997
  52.1599992  64.2784990   8.1399997  53.4019992  64.0034990   8.9589997
  52.9080367  64.5433372   8.4894897  42.4149992  70.6214990   1.0379997
  43.0069992  71.3214990   1.3149997  42.8739992  70.1884990   0.3189997
  42.5581652  70.6587686   0.9786515  95.2949992  21.9944990  80.6039997
  94.3699992  22.2024990  80.4739997  95.7489992  22.4784990  79.9139997
  95.2297401  22.0883895  80.4929433  40.7309992  63.2864990   0.1539997
  40.6859992  64.2254990   0.3329997  39.8429992  63.0504990  -0.1150003
  40.6048166  63.3831698   0.1421507  54.0439992  73.9494990  10.0899997
  53.8879992  74.6284990   9.4329997  54.9759992  74.0214990  10.2929997
  54.1487328  74.0521586  10.0275529  41.5389992  58.0674990   8.8269997
  41.3099992  58.1264990   7.8999997  41.0959992  57.2764990   9.1339997
  41.4477387  57.9686412   8.7415223  40.4689992  72.0084990   4.9879997
  39.6369992  72.4804990   5.0149997  41.0149992  72.5184990   4.3889997
  40.4288710  72.1420317   4.9107570  39.7579992  74.6204990  16.3179997
  40.2979992  74.4044990  17.0779997  39.2759992  73.8154990  16.1279997
  39.7668485  74.4820463  16.3964870  44.3549992  73.5404990  17.9379997
  45.1229992  73.0814990  18.2789997  44.3339992  73.3144990  17.0079997
  44.4572135  73.4471680  17.8589473  48.4469992  73.0484990  -0.6870003
  47.8029992  72.4174990  -0.3650003  49.2089992  72.5174990  -0.9180003
  48.4618708  72.8903171  -0.6741539  50.9319992  71.9204990  16.6669997
  50.5809992  71.0634990  16.9099997  51.6579992  72.0624990  17.2739997
  50.9821590  71.8225189  16.7822889  53.0509992  72.8654990  -0.4530003
  53.3339992  72.0704990  -0.0000003  53.7909992  73.0984990  -1.0140003
  53.1897295  72.7882349  -0.4668531  39.6649992  68.4314990  17.2719997
  39.8089992  67.5294990  16.9859997  38.8919992  68.7174990  16.7849997
  39.5802266  68.3466548  17.1670102 110.0659992  36.9784990  82.5489997
 110.7179992  36.6304990  81.9409997 110.5769992  37.4664990  83.1949997
 110.2242872  36.9968248  82.5530964  44.0059992  68.7744990  -0.5950003
  44.0699992  67.9804990  -0.0650003  44.6589992  68.6564990  -1.2850003
  44.1030483  68.6497496  -0.6156593  46.3199992  68.4004990  16.7049997
  45.9919992  68.6714990  15.8479997  46.4719992  67.4594990  16.6169997
  46.2956412  68.3104058  16.5757804  52.0549992  68.3164990  14.0879997
  52.7999992  68.9054990  13.9689997  51.2969992  68.8984990  14.1509997
  52.0545289  68.4757067  14.0802292  40.4969992  65.6314990  16.6919997
  40.9049992  64.7744990  16.5709997  40.2369992  65.6454990  17.6129997
  40.5177082  65.5160596  16.7999469  45.1549992  66.7474990   1.7109997
  44.6959992  66.2634990   2.3959997  45.4099992  66.0784990   1.0749997
  45.1265997  66.5908491   1.7188734  44.4439992  64.6404990  14.0669997
  43.8259992  65.3144990  14.3469997  44.7879992  64.9614990  13.2329997
  44.4058078  64.7762298  13.9926609  46.2259992  64.9904990  -0.0270003
  46.0459992  64.8354990  -0.9540003  47.1759992  65.0984990   0.0179997
  46.3297804  64.9838821  -0.1478034  49.4639992  67.1114990  17.3439997
  50.4169992  67.1954990  17.3169997  49.3039992  66.3994990  17.9629997
  49.5727320  67.0267292  17.4239933  55.6159992  67.3444990  -0.5810003
  55.3429992  66.9204990  -1.3940003  55.6559992  68.2764990  -0.7980003
  55.5840201  67.4123523  -0.7216452  44.7839992  61.9954990  15.1489997
  44.9339992  61.2664990  14.5469997  44.7859992  62.7724990  14.5899997
  44.8047967  62.0007720  14.9910523  95.2589992  20.7324990  88.9479997
  94.5939992  20.4864990  89.5909997  94.8159992  21.3544990  88.3709997
  95.1081168  20.7829225  88.9579830  45.1959992  60.3644990  12.6419997
  45.7319992  60.8164990  11.9899997  44.3439992  60.2564990  12.2189997
  45.1541795  60.4117444  12.4956211  46.7779992  65.8044990  12.8809997
  47.5289992  65.6484990  12.3079997  46.4389992  66.6564990  12.6059997
  46.8349587  65.8983149  12.7654060  51.1939992  63.6194990  17.9099997
  51.3859992  62.6884990  17.7979997  52.0509992  64.0444990  17.8989997
  51.3362176  63.5495090  17.8931757  52.5099992  66.4084990  15.9869997
  52.2289992  67.1174990  15.4089997  53.4529992  66.3354990  15.8359997
  52.5989272  66.4956704  15.8874976  43.2619992  63.1934990  17.0599997
  42.4949992  62.6604990  16.8499997  43.9409992  62.8834990  16.4609997
  43.2488292  63.0786360  16.9502693  46.0019992  57.8214990  13.0729997
  45.9039992  58.7674990  12.9679997  45.2589992  57.4484990  12.5969997
  45.8882123  57.9006811  12.9943204  47.2659992  62.1424990  16.6369997
  47.0299992  61.9234990  17.5379997  46.4829992  61.9354990  16.1269997
  47.1278382  62.0845340  16.6913991  49.9819992  61.2704990  15.7119997
  49.0339992  61.3024990  15.8439997  50.2939992  60.6444990  16.3659997
  49.8945293  61.1902934  15.8184130  51.6159992  59.9044990  17.7169997
  51.5189992  58.9524990  17.7119997  51.2939992  60.1724990  18.5779997
  51.5592468  59.8105896  17.8326192  41.4429992  61.1134990  16.7649997
  41.6539992  60.4074990  16.1549997  41.3309992  60.6764990  17.6089997
  41.4567668  60.9576619  16.7955445  97.4509992  33.9074990  93.0919997
  96.6299992  34.0824990  92.6319997  97.1989992  33.8344990  94.0129997
  97.3046173  33.9215806  93.1534954  46.2239992  57.1154990  15.7439997
  46.9349992  56.4754990  15.7299997  46.1229992  57.3814990  14.8309997
  46.3076858  57.0638591  15.6185501  46.5769992  58.7974990  17.7979997
  46.4459992  58.3224990  16.9779997  45.9779992  59.5424990  17.7429997
  46.4780829  58.8330949  17.6781823  46.1239992  75.6804990   0.9739997
  47.0569992  75.8384990   1.1179997  45.8589992  76.3564990   0.3489997
  46.2159846  75.7934567   0.9092930  39.6919992  70.3174990   0.4569997
  40.6059992  70.3964990   0.7299997  39.6989992  69.6304990  -0.2090003
  39.8180624  70.2354074   0.4043045  38.3409992  75.7104990   5.5339997
  37.6939992  75.2484990   5.0019997  38.6959992  75.0384990   6.1169997
  38.3003741  75.5564785   5.5399157  39.2109992  73.7904990   7.3389997
  38.8769992  72.9104990   7.5109997  39.4329992  74.1364990   8.2039997
  39.1952565  73.7167410   7.4794263  56.7599992  74.6004990  10.3199997
  56.7379992  74.7854990  11.2579997  57.4499992  75.1684990   9.9789997
  56.8503383  74.7027104  10.4024580  56.3229992  74.1674990  13.2409997
  55.8359992  73.4314990  12.8699997  56.8719992  73.7734990  13.9189997
  56.3306101  74.0136267  13.2819034  54.7739992  69.9574990  17.8789997
  53.9079992  69.8524990  18.2739997  55.1499992  70.7154990  18.3259997
  54.7064940  70.0456141  17.9933958  56.0749992  68.2134990   3.3939997
  56.9249992  68.6344990   3.5209997  56.0799992  67.4734990   4.0009997
  56.1921143  68.1711106   3.4934732 100.4049992  34.8814990  89.3509997
  99.9799992  35.6914990  89.0679997 101.3089992  34.9674990  89.0489997
 100.4691002  35.0038728  89.2714798  56.4689992  66.2674990   5.2169997
  55.7429992  65.7874990   5.6149997  57.0499992  66.4724990   5.9489997
  56.4482504  66.2295592   5.3704199  56.2279992  69.0524990  10.1649997
  57.0619992  68.6744990   9.8839997  56.3399992  69.9954990  10.0459997
  56.3571917  69.1282954  10.1104844  54.7139992  71.9304990  12.4719997
  54.0669992  72.2554990  13.0969997  54.1969992  71.4894990  11.7979997
  54.5554112  71.9154133  12.4665272  56.7369992  66.1684990   1.6079997
  56.2159992  66.5244990   0.8899997  56.7039992  66.8434990   2.2869997
  56.6610955  66.3085023   1.6012634  55.0859992  63.4074990   0.1589997
  55.1829992  64.0744990  -0.5210003  54.9459992  62.5924990  -0.3220003
  55.0803407  63.3885670   0.0008312  54.2559992  64.7884990   5.7799997
  54.1059992  63.8434990   5.7599997  53.9019992  65.0694990   6.6239997
  54.1876351  64.6971656   5.8913202  39.2909992  66.8664990   9.7909997
  39.4749992  66.7844990   8.8549997  40.1399992  66.7424990  10.2139997
  39.4310132  66.8385066   9.7201460  55.1119992  66.7584990  15.4189997
  55.6949992  66.0234990  15.6109997  55.6759992  67.5304990  15.4659997
  55.2679781  66.7623156  15.4516146  56.6089992  64.6614990  16.1039997
  55.7449992  64.2824990  15.9379997  57.2129992  63.9224990  16.0289997
  56.5725394  64.5098378  16.0711778  53.9659992  62.3704990   4.2429997
  54.2459992  61.4634990   4.3669997  54.7249992  62.8044990   3.8539997
  54.1069258  62.3050935   4.2073691 104.7159992  36.2804990  92.3099997
 104.9009992  35.9474990  93.1879997 105.5629992  36.5904990  91.9879997
 104.8557291  36.2768214  92.3866140  54.5779992  62.9524990   9.6789997
  55.5109992  63.1644990   9.6439997  54.3429992  63.0534990  10.6009997
  54.6739517  62.9951844   9.7989113  54.6069992  63.6894990  12.4549997
  53.7639992  63.9574990  12.8199997  55.0499992  64.5114990  12.2439997
  54.5514035  63.8373351  12.4764770  38.8879992  62.1364990  15.9309997
  39.8079992  62.0144990  16.1679997  38.4389992  61.3864990  16.3209997
  38.9530500  62.0184576  16.0161016  56.8899992  57.6694990  17.8079997
  57.2399992  57.0154990  17.2019997  57.0369992  58.5064990  17.3679997
  56.9577192  57.6932545  17.6656712  54.5799992  59.6334990   4.2909997
  54.7619992  59.1844990   5.1159997  53.9799992  59.0494990   3.8269997
  54.5238187  59.4930563   4.3412721  40.1099992  60.4494990   8.8229997
  40.5549992  59.6574990   9.1249997  40.5759992  61.1654990   9.2529997
  40.2339718  60.4379546   8.9225247  38.4139992  63.4484990   9.8919997
  38.9059992  63.2274990   9.1009997  38.7759992  64.2884990  10.1729997
  38.5302923  63.5318480   9.8217389  56.4099992  59.7784990  16.1569997
  55.4929992  60.0494990  16.1209997  56.5329992  59.2434990  15.3729997
  56.3010828  59.7432711  16.0460767  56.4459992  59.7014990   0.8189997
  56.8589992  58.9804990   0.3439997  57.1279992  60.3704990   0.8769997
  56.5946060  59.6933741   0.7619233  38.7269992  59.7064990   3.9459997
  37.8019992  59.9144990   3.8169997  39.1809992  60.1904990   3.2559997
  38.6616298  59.8004311   3.8350433 107.0609992  37.5664990  91.5539997
 107.7379992  36.9334990  91.3139997 107.3829992  37.9674990  92.3619997
 107.1971280  37.5340638  91.6303190  53.4979992  74.6904990   5.8919997
  54.1499992  74.3424990   5.2839997  54.0089992  75.1784990   6.5379997
  53.6562872  74.7088248   5.8960964  38.6909992  58.4444990  12.2899997
  38.0259992  58.1984990  12.9329997  38.2479992  59.0664990  11.7129997
  38.5401168  58.4949225  12.2999830  40.8829992  71.6194990  16.4349997
  40.0619992  71.7944990  15.9739997  40.6309992  71.5464990  17.3549997
  40.7365594  71.6335728  16.4963593  43.8369992  72.5934990  12.6929997
  43.4119992  73.4034990  12.4109997  44.7409992  72.6794990  12.3909997
  43.9010706  72.7159557  12.6135836  48.1479992  73.9924990  15.6529997
  48.3329992  73.6594990  16.5309997  48.9949992  74.3024990  15.3309997
  48.2877291  73.9888214  15.7296140  50.4929992  75.2784990  14.8969997
  51.1699992  74.6454990  14.6569997  50.8149992  75.6794990  15.7039997
  50.6291618  75.2461147  14.9732802  55.4109992  57.8684990  13.9759997
  54.5979992  58.1934990  13.5889997  55.6439992  57.1074990  13.4429997
  55.3311347  57.8101891  13.8509824  41.2389992  75.8504990  12.7409997
  40.5179992  76.2904990  12.2899997  40.8729992  75.5994990  13.5889997
  41.0909632  75.8767235  12.7939649  43.7059992  75.4504990  11.7699997
  42.8409992  75.5224990  12.1739997  43.6509992  75.9974990  10.9869997
  43.5802289  75.5343242  11.7193749  48.4169992  75.3384990  10.9459997
  47.9599992  75.8674990  10.2919997  48.5789992  75.9414990  11.6709997
  48.3763919  75.4923990  10.9545740 111.9789992  20.1564990  90.6339997
 111.1659992  20.4814990  90.2459997 112.2119992  19.3954990  90.1009997
 111.8992566  20.0981570  90.5089196  50.7439992  74.2164990  11.8909997
  49.8399992  74.3814990  11.6249997  51.1729992  75.0694990  11.8249997
  50.6782017  74.3544184  11.8456495  53.3479992  75.7864990  12.1859997
  53.1669992  76.7024990  11.9749997  53.5249992  75.3754990  11.3389997
  53.3471377  75.8563365  12.0427178  40.6539992  74.4734990   9.6509997
  40.6349992  74.0474990  10.5079997  41.4579992  74.1544990   9.2419997
  40.7601393  74.3720297   9.7130155  42.7949992  73.1834990   8.3059997
  42.5759992  72.2664990   8.4759997  43.6189992  73.3234990   8.7719997
  42.8764702  73.0770523   8.3922510  45.3319992  73.6534990   9.1549997
  45.5449992  72.7654990   8.8679997  45.3969992  73.6184990  10.1089997
  45.3699149  73.5273338   9.2447351  48.8409992  59.3174990   8.2989997
  48.1659992  58.6874990   8.5549997  49.4049992  58.8334990   7.6959997
  48.8249363  59.1658886   8.2524810  53.9829992  57.4244990   8.4119997
  54.5869992  57.9724990   7.9099997  53.1139992  57.7434990   8.1709997
  53.9480419  57.5425628   8.3107741  55.7099992  58.5634990   6.7449997
  56.3219992  58.0494990   6.2179997  56.0929992  59.4404990   6.7679997
  55.8453867  58.6117613   6.6760888  41.1669992  57.9514990   6.1209997
  40.3899992  57.7164990   5.6139997  41.6979992  57.1544990   6.1299997
  41.1323735  57.8116462   6.0528090  40.0039992  57.7494990   1.9249997
  40.4429992  58.3604990   1.3329997  39.3699992  58.2874990   2.3989997
  39.9783859  57.9059076   1.9080287  97.8069992  38.1384990  89.3979997
  97.0859992  38.5784990  88.9469997  97.4409992  37.8874990  90.2469997
  97.6589785  38.1647691  89.4509849  45.7469992  57.8774990   5.9339997
  46.6209992  58.2664990   5.9049997  45.6109992  57.6624990   6.8569997
  45.8481953  57.9016654   6.0547599  51.3029992  57.9074990   7.5839997
  51.3799992  58.0034990   6.6339997  51.0279992  57.0004990   7.7119997
  51.2763233  57.7979093   7.4713665  52.6569992  57.9334990   3.2759997
  51.9539992  58.5484990   3.0659997  52.2119992  57.0964990   3.4069997
  52.5006550  57.9044679   3.2649819  39.9049992  73.6974990   2.8219997
  39.2199992  73.6594990   2.1549997  39.9079992  74.6094990   3.1099997
  39.8116806  73.8156669   2.7696961  41.8649992  59.6654990   0.3669997
  42.3559992  59.0354990  -0.1600003  42.4879992  59.9614990   1.0299997
  42.0165304  59.6192387   0.3844922  46.8909992  59.9584990   2.8239997
  47.0689992  59.3114990   3.5069997  46.8369992  60.7924990   3.2909997
  46.9080678  59.9826615   2.9806283  48.7689992  74.9064990   1.2199997
  49.6349992  75.2734990   1.0419997  48.5219992  74.4674990   0.4059997
  48.8541853  74.8974021   1.0855813  55.4779992  74.4694990   3.8989997
  55.2839992  73.7214990   3.3339997  55.4389992  75.2274990   3.3159997
  55.4461645  74.4695797   3.7428131  41.1249992  58.4654990  15.6389997
  40.7589992  57.6994990  16.0809997  42.0379992  58.4944990  15.9249997
  41.1983172  58.3645335  15.7381872  43.0979992  57.8154990  17.1739997
  43.9969992  57.5414990  16.9899997  42.7119992  57.0734990  17.6389997
  43.1687307  57.6777207  17.2117080 100.2739992  37.7384990  88.4279997
  99.4089992  37.8104990  88.8319997 100.2189992  38.2854990  87.6439997
 100.1482066  37.8222678  88.3773371  41.7229992  74.6174990  -0.1530003
  41.4549992  74.9034990   0.7209997  42.4939992  74.0714990  -0.0000003
  41.7905926  74.5827790  -0.0128812  51.5189992  57.1484990  17.3569997
  51.5959992  56.7224990  18.2099997  52.4129992  57.1614990  17.0139997
  51.6503263  57.0919345  17.4274366  54.6959992  73.2204990  16.0489997
  53.9139992  73.0344990  15.5289997  54.6239992  74.1504990  16.2659997
  54.5792975  73.3206973  16.0071822  69.1019992  67.1074990   6.0799997
  69.1909992  68.0514990   5.9469997  68.4629992  66.8324990   5.4219997
  69.0278378  67.1993846   5.9729258  68.0349992  66.3624990   9.4989997
  67.9959992  65.7164990  10.2039997  67.7119992  65.8954990   8.7269997
  67.9860469  66.2110005   9.4912803  60.4029992  65.9764990  11.0919997
  60.4439992  65.3514990  11.8149997  61.1059992  66.6004990  11.2739997
  60.5036223  65.9752318  11.2156164  71.7409992  69.3014990   7.7999997
  71.2999992  68.5814990   8.2509997  71.7279992  70.0224990   8.4299997
  71.6789215  69.3004303   7.9468088  61.3269992  70.4264990   9.6269997
  60.9569992  69.6244990   9.2569997  62.2679992  70.2584990   9.6729997
  61.4035984  70.2939649   9.5825586  57.9369992  64.0864990   5.0189997
  57.4889992  64.9324990   5.0009997  57.3759992  63.5074990   4.5039997
  57.7998546  64.1239004   4.9468874  58.6469992  66.2484990   7.1449997
  58.8609992  65.4784990   7.6719997  59.3849992  66.3384990   6.5419997
  58.7760073  66.1553546   7.1355786 104.9849992  37.6264990  87.6039997
 104.5279992  38.1554990  86.9499997 105.1469992  38.2294990  88.3289997
 104.9443919  37.7803990  87.6125740  68.8519992  74.4054990   8.0119997
  69.4719992  73.7294990   7.7389997  68.6439992  74.1874990   8.9209997
  68.9087679  74.2835032   8.0974518  66.4239992  68.7944990   9.9049997
  66.7279992  68.1084990   9.3099997  67.1459992  68.9134990  10.5229997
  66.5631240  68.7167325   9.9070941  75.0869992  60.3964990  10.7649997
  75.1359992  61.0064990  11.5009997  75.5129992  60.8574990  10.0419997
  75.1512851  60.5423266  10.7680532  69.5649992  63.1884990  10.2319997
  69.7069992  62.2424990  10.2519997  69.4589992  63.3954990   9.3039997
  69.5701051  63.0869706  10.1092249  62.7199992  61.2904990   7.5049997
  62.7629992  62.1504990   7.0859997  62.2619992  60.7374990   6.8709997
  62.6640163  61.3334174   7.3620604  70.4419992  61.4214990   5.9049997
  71.0879992  61.0924990   6.5299997  70.9519992  61.9384990   5.2829997
  70.5994289  61.4464333   5.9063681  59.3399992  63.6874990   8.2669997
  59.9939992  63.1374990   8.6989997  59.3639992  63.4134990   7.3499997
  59.4327199  63.5752178   8.2021650  64.4959992  65.2374990   7.4819997
  65.1119992  64.7104990   7.9909997  63.9099992  64.5974990   7.0779997
  64.5010652  65.0788919   7.4970277  75.4789992  61.8744990  13.0009997
  74.7899992  62.5324990  12.9059997  75.4939992  61.6764990  13.9379997
  75.3867756  61.9377614  13.1145795  61.5299992  60.2084990  11.5789997
  61.3109992  60.7384990  10.8119997  60.8619992  60.4344990  12.2259997
  61.4096975  60.3115979  11.5615123 107.3119992  36.5044990  88.5489997
 106.4079992  36.6694990  88.2829997 107.7409992  37.3574990  88.4829997
 107.2462017  36.6424184  88.5036495  68.8989992  69.7084990   5.1229997
  68.6029992  69.3854990   4.2709997  68.5749992  70.6084990   5.1639997
  68.8147458  69.7859678   5.0120598  64.0989992  67.8834990  11.8659997
  63.3589992  68.4824990  11.9699997  64.8129992  68.4374990  11.5499997
  64.0943146  68.0402611  11.8375150  72.2059992  60.7124990   7.8859997
  71.9909992  59.9464990   8.4189997  72.8619992  61.1844990   8.3989997
  72.2652673  60.6715739   8.0281972  61.1239992  62.1004990   9.5309997
  61.7369992  62.7334990   9.9039997  61.6359992  61.6284990   8.8749997
  61.2771933  62.1233380   9.4933477  62.5059992  69.8484990  12.6529997
  62.5009992  70.7274990  12.2749997  61.6529992  69.7644990  13.0779997
  62.3899199  69.9575901  12.6586942  58.6279992  69.5194990   3.4349997
  58.3559992  69.7484990   2.5459997  58.6729992  70.3564990   3.8959997
  58.5968360  69.6641034   3.3756186  72.2529992  71.1404990  10.1479997
  71.3109992  71.1994990  10.3099997  72.5289992  72.0464990  10.0109997
  72.1615865  71.2710299  10.1516174  72.5529992  59.4274990  11.5649997
  71.8169992  60.0374990  11.5279997  73.2369992  59.8424990  11.0389997
  72.5445367  59.5672562  11.4888156  65.5559992  57.5134990   9.0309997
  65.4389992  56.5654990   8.9769997  64.7009992  57.8464990   9.3039997
  65.4243691  57.4285842   9.0605072  70.5049992  72.9214990   6.7729997
  70.9299992  72.2144990   6.2879997  70.8219992  73.7234990   6.3559997
  70.6060266  72.9330201   6.6502461 109.9159992  38.0744990  88.8439997
 109.7349992  38.9904990  88.6329997 110.0929992  37.6634990  87.9969997
 109.9151377  38.1443365  88.7007178  71.6639992  70.8224990   5.2819997
  71.4069992  70.1324990   4.6699997  71.7349992  70.3794990   6.1269997
  71.6384322  70.6681568   5.3125372  73.3499992  69.3894990  13.7589997
  73.4899992  68.7974990  13.0199997  73.5179992  70.2624990  13.4029997
  73.3918734  69.4264041  13.6096937  67.8229992  66.3514990   3.5319997
  67.1109992  66.8864990   3.1799997  68.5139992  66.4064990   2.8719997
  67.8189704  66.4321663   3.3945797  67.8769992  64.8084990   0.5699997
  68.5779992  64.8314990   1.2219997  68.1789992  64.1804990  -0.0860003
  68.0138202  64.7267223   0.5705591  75.1919992  65.7294990  11.8249997
  74.5399992  66.4234990  11.9139997  75.6569992  65.9394990  11.0149997
  75.1655357  65.8529544  11.7277056  71.2289992  66.5604990   4.4829997
  70.4969992  66.7894990   5.0559997  71.6759992  65.8474990   4.9379997
  71.1892753  66.4953984   4.6229698  71.1259992  64.7354990  13.5509997
  71.2059992  65.4984990  14.1229997  70.5249992  65.0144990  12.8609997
  71.0556547  64.8777468  13.5360029  62.8739992  67.1914990   6.3659997
  62.5439992  66.8204990   5.5479997  63.4619992  66.5204990   6.7129997
  62.9083182  67.0500648   6.3009898  64.2409992  70.6194990   9.0469997
  64.1459992  70.0404990   8.2909997  64.9699992  70.2484990   9.5429997
  64.3266011  70.4900572   9.0106011  63.2409992  65.9594990   9.9989997
  63.8059992  66.0814990   9.2369997  63.5589992  66.5974990  10.6379997
  63.3613619  66.0624388   9.9810019  97.2219992  36.7614990  86.3089997
  97.2029992  36.3354990  87.1659997  98.0259992  36.4424990  85.8999997
  97.3281393  36.6600297  86.3710155  69.5499992  71.4634990  10.7329997
  69.3089992  72.1254990  11.3809997  69.3519992  70.6284990  11.1579997
  69.4902662  71.4412704  10.8791008  64.1209992  70.3594990  14.7169997
  63.8089992  71.1414990  15.1719997  63.4709992  70.2064990  14.0309997
  63.9904858  70.4457882  14.6865344  70.0999992  65.7234990   2.1689997
  70.6789992  65.8734990   2.9149997  70.5139992  66.1934990   1.4449997
  70.2353358  65.8075966   2.1733935  61.0409992  66.5574990  13.9449997
  61.1109992  67.2084990  14.6439997  60.1499992  66.6604990  13.6099997
  60.9301690  66.6604261  13.9953026  67.8259992  72.4594990   5.6039997
  68.2999992  72.7554990   6.3809997  67.2629992  73.1984990   5.3709997
  67.8147890  72.5998047   5.6788084  62.3599992  72.4304990  15.4799997
  62.3679992  72.2944990  14.5329997  61.4439992  72.3134990  15.7319997
  62.2372528  72.3960475  15.3843226  73.7979992  57.4734990   1.9809997
  72.8979992  57.6114990   2.2769997  74.0499992  58.3044990   1.5799997
  73.7087727  57.6048705   1.9672935  61.8639992  66.2604990   3.9549997
  61.5719992  67.0284990   3.4639997  61.1899992  65.6014990   3.7919997
  61.7328843  66.2764537   3.8657695  74.9879992  71.8394990   0.3579997
  75.0609992  72.7784990   0.5279997  75.8929992  71.5344990   0.3019997
  75.1204170  71.9268294   0.3737045  57.9569992  68.6234990  12.7699997
  57.4559992  68.5954990  11.9549997  57.9629992  67.7184990  13.0799997
  57.8891690  68.4972234  12.7002770  99.3629992  35.4714990  84.9639997
  99.1439992  34.5544990  85.1329997 100.1869992  35.6114990  85.4299997
  99.4444637  35.3649586  85.0501414  57.7079992  71.4044990   9.6539997
  58.6539992  71.2594990   9.6349997  57.5949992  72.1884990  10.1909997
  57.8223578  71.4906708   9.7240300  75.9049992  72.0704990  15.3369997
  75.8559992  71.1144990  15.2989997  75.0789992  72.3374990  15.7379997
  75.7865096  71.9758416  15.3860698  66.8839992  71.6444990  14.2129997
  66.9709992  72.4704990  14.6879997  66.0199992  71.3144990  14.4619997
  66.7791944  71.7129871  14.3116558  67.2979992  75.4164990   4.0189997
  67.2229992  75.2954990   3.0719997  67.3309992  76.3654990   4.1369997
  67.2922083  75.5282639   3.9054973  60.9519992  74.2054990   5.7999997
  61.1039992  73.8574990   6.6779997  60.1009992  73.8484990   5.5439997
  60.8578344  74.1095891   5.8856851  70.3999992  74.5704990   1.0209997
  70.7749992  73.8264990   0.5499997  70.4039992  74.3004990   1.9389997
  70.4518969  74.4320920   1.0806475  70.0689992  74.4964990   3.7699997
  69.1339992  74.5964990   3.9489997  70.3489992  73.7864990   4.3489997
  69.9789471  74.4142944   3.8726678  73.0569992  63.5634990  15.8169997
  72.6499992  64.0434990  15.0959997  73.0979992  62.6574990  15.5089997
  73.0068403  63.5067989  15.6767253  60.2059992  69.9474990  13.8129997
  60.4219992  69.5854990  14.6729997  59.3509992  69.5724990  13.6039997
  60.1199082  69.8473377  13.9022396  62.8249992  58.4174990   9.8089997
  61.9629992  58.3304990   9.4009997  62.8029992  59.2734990  10.2369997
  62.7040557  58.5213078   9.8110202 101.8999992  35.9414990  85.8119997
 102.1129992  35.0534990  85.5249997 101.9649992  35.9064990  86.7669997
 101.9379075  35.8153318  85.9017355  67.4879992  58.1394990  13.1839997
  67.9079992  57.7244990  13.9369997  66.5549992  57.9604990  13.3009997
  67.4193736  58.0584921  13.3028950  70.8139992  61.8944990  14.0369997
  70.2999992  61.7694990  14.8349997  70.6589992  62.8074990  13.7929997
  70.7227802  62.0007433  14.1131504  71.5769992  66.7554990  -0.2020003
  71.6189992  66.5334990  -1.1320003  72.4259992  67.1544990  -0.0120003
  71.6975253  66.7790510  -0.3036196  67.1499992  60.6314990   0.4689997
  66.8959992  60.6504990   1.3909997  66.8929992  59.7604990   0.1669997
  67.0804508  60.5163292   0.5544786  62.9159992  63.3824990  10.9039997
  62.2739992  63.3424990  11.6129997  62.9529992  64.3094990  10.6659997
  62.8331659  63.5022540  10.9688463  62.9129992  63.6034990   5.8159997
  62.0199992  63.2634990   5.7569997  63.3639992  63.2264990   5.0599997
  62.8517185  63.5060220   5.7057698  68.4489992  64.0194990   4.6329997
  68.0399992  64.8344990   4.3409997  69.1689992  63.8794990   4.0189997
  68.4904439  64.1120383   4.5100098  67.5509992  64.1954990  16.1209997
  66.9879992  63.4904990  16.4419997  68.3769992  64.0744990  16.5889997
  67.5856674  64.0827176  16.2281734  69.4529992  63.4654990   7.4469997
  69.2579992  64.0714990   6.7319997  69.6349992  62.6324990   7.0129997
  69.4509195  63.4357936   7.2904079  60.6659992  63.7034990  12.7709997
  60.6279992  64.1034990  13.6399997  60.1749992  62.8864990  12.8609997
  60.5944374  63.6478228  12.9020980 105.4089992  21.6054990  84.9569997
 104.7339992  20.9754990  85.2119997 105.9729992  21.1214990  84.3539997
 105.3929558  21.4539283  84.9103451  64.0319992  61.0774990  -0.4300003
  63.6009992  60.6324990   0.2989997  63.3139992  61.4484990  -0.9430003
  63.8759176  61.0667063  -0.3995087  57.2739992  60.8194990   6.6219997
  57.9049992  60.7904990   7.3409997  57.7239992  60.3944990   5.8909997
  57.4211082  60.7581269   6.6216307  58.5479992  61.5654990   2.0459997
  59.0229992  62.1564990   1.4609997  57.8309992  62.0954990   2.3929997
  58.5160406  61.7181011   2.0128495  68.7169992  65.1034990  12.1179997
  69.0409992  64.4724990  11.4749997  68.2769992  64.5694990  12.7789997
  68.7018707  64.9448261  12.1193195  65.4949992  61.0314990   6.9019997
  64.5839992  61.0884990   7.1909997  65.9999992  60.9714990   7.7129997
  65.4386873  61.0311838   7.0511190  60.3229992  62.6604990   5.7289997
  59.4339992  62.7594990   5.3889997  60.6189992  61.8184990   5.3829997
  60.2414001  62.5602473   5.6357318  63.9759992  62.6604990   3.3859997
  64.9079992  62.7894990   3.5639997  63.7609992  63.3294990   2.7359997
  64.0744472  62.7685817   3.3224873  69.8999992  60.2664990  10.1659997
  69.2229992  60.3974990  10.8299997  69.4139992  60.1114990   9.3559997
  69.7417265  60.2634665  10.1473380  62.6499992  63.8544990   0.9519997
  62.1079992  63.4754990   0.2609997  63.4839992  64.0494990   0.5239997
  62.6884390  63.8289091   0.7994374  73.1869992  75.9374990  16.4429997
  73.3869992  76.3614990  15.6089997  73.8429992  76.2814990  17.0499997
  73.3029937  76.0419993  16.4108645 110.5509992  19.7124990  85.0689997
 111.1549992  20.2604990  84.5679997 109.6819992  20.0314990  84.8289997
 110.5161126  19.8307070  84.9679180  60.7849992  68.4114990  16.0509997
  61.5169992  68.6664990  16.6129997  60.0049992  68.6164990  16.5669997
  60.7796526  68.4740438  16.1975168  66.8149992  63.8184990   8.7889997
  67.3789992  63.2724990   8.2419997  66.6669992  63.2974990   9.5779997
  66.8723037  63.6731798   8.8207212  61.8169992  59.9554990   5.2079997
  61.4989992  59.0524990   5.1719997  62.5979992  59.9574990   4.6549997
  61.8791079  59.8322240   5.1282908  65.4409992  62.2074990  11.2029997
  64.6059992  62.6614990  11.3139997  65.9649992  62.4834990  11.9549997
  65.3976072  62.3068960  11.3198118  65.9849992  68.4204990   2.8879997
  65.2399992  67.9124990   2.5659997  65.8509992  68.4694990   3.8339997
  65.8649334  68.3576144   2.9718892  73.1349992  67.5534990  11.6749997
  73.7769992  68.0094990  11.1309997  72.3049992  67.6664990  11.2119997
  73.1106536  67.6311813  11.5379579  69.8829992  61.2344990   1.0869997
  68.9439992  61.3454990   0.9359997  70.1799992  62.0904990   1.3939997
  69.7946136  61.3654977   1.1078568  67.5049992  68.6044990  14.1249997
  67.1589992  68.2224990  14.9319997  67.3049992  69.5374990  14.1959997
  67.4305987  68.6784013  14.2450443  70.6009992  63.1014990   2.7479997
  71.4929992  62.9634990   3.0669997  70.6579992  63.8924990   2.2109997
  70.7307380  63.1894777   2.7190981  61.1099992  67.7154990   8.6579997
  61.8549992  67.7124990   8.0559997  61.1879992  66.8914990   9.1389997
  61.2223365  67.6037395   8.6407412 112.2779992  20.8514990  83.4029997
 112.8899992  20.3374990  82.8759997 112.6609992  21.7284990  83.4259997
 112.4133867  20.8997613  83.3340888  68.1109992  69.8784990   1.9129997
  67.8159992  70.7054990   2.2949997  67.4079992  69.2594990   2.1099997
  67.9756379  69.9079182   1.9918636  58.1179992  66.1754990  13.9729997
  58.3409992  65.7574990  14.8039997  57.5159992  65.5634990  13.5499997
  58.0671513  66.0354617  14.0296722  65.1349992  65.6924990  16.1859997
  64.8389992  65.5274990  15.2899997  66.0659992  65.4724990  16.1749997
  65.2204401  65.6401891  16.0620189  69.7549992  71.0664990  14.0749997
  68.8539992  71.2494990  13.8079997  69.7889992  71.3254990  14.9959997
  69.6363861  71.1265245  14.1629517  75.4859992  63.3104990   2.4429997
  74.9319992  62.9144990   1.7699997  75.5869992  64.2214990   2.1649997
  75.4238589  63.3793904   2.3133839  75.4489992  69.1114990  15.2799997
  74.5979992  69.3494990  14.9119997  76.0399992  69.0944990  14.5259997
  75.4123831  69.1417623  15.1278448  73.7809992  72.0964990   2.9079997
  73.4089992  71.2714990   3.2169997  74.0589992  71.9134990   2.0099997
  73.7675807  71.9587031   2.8290063  70.9419992  66.9044990   9.9289997
  70.0139992  66.6734990   9.9019997  71.3929992  66.1274990   9.5989997
  70.8758165  66.7677785   9.8806772  63.4849992  71.2334990   6.0619997
  64.0119992  72.0064990   5.8619997  62.6049992  71.4574990   5.7599997
  63.4382121  71.3697344   5.9937460  59.2399992  66.0954990   0.6489997
  59.8559992  66.7224990   1.0289997  58.3779992  66.4114990   0.9209997
  59.2077678  66.2239423   0.7377192  97.7349992  20.2394990  82.7789997
  96.9579992  20.0044990  82.2709997  98.2659992  19.4424990  82.7879997
  97.7004443  20.0996721  82.7107200  64.9119992  68.8964990   5.6379997
  64.6709992  69.8214990   5.6799997  64.1719992  68.4374990   6.0349997
  64.7789463  68.9610969   5.6974279  65.4269992  73.0454990  11.9529997
  65.7899992  73.8994990  11.7199997  65.9589992  72.7534990  12.6939997
  65.5485141  73.1228907  12.0212079  63.5949992  73.9174990   5.1839997
  62.6459992  74.0234990   5.2349997  63.9469992  74.7384990   5.5279997
  63.5125647  74.0430029   5.2374882  68.9709992  69.1444990  11.6539997
  68.5449992  68.9164990  12.4799997  69.5519992  68.4054990  11.4719997
  68.9912088  69.0134393  11.7424454  71.1739992  70.0734990   0.7279997
  71.5269992  69.6934990   1.5319997  70.2249992  69.9794990   0.8149997
  71.0940956  70.0087867   0.8498005  71.6299992  73.6964990  14.1229997
  71.0279992  73.1404990  13.6279997  71.9109992  74.3634990  13.4969997
  71.5855757  73.7105755  13.9705657  75.6769992  74.5524990   0.9289997
  76.4209992  75.1384990   0.7889997  74.9829992  75.1214990   1.2619997
  75.6849809  74.7095830   0.9548572  59.7519992  60.9294990  13.5309997
  58.8589992  61.2674990  13.4629997  59.6529992  60.0734990  13.9489997
  59.6164752  60.8600986  13.5781644  72.0399992  68.7454990   2.9549997
  71.7629992  68.0174990   3.5109997  72.9669992  68.8644990   3.1599997
  72.1274419  68.6619436   3.0588264  59.4029992  72.7334990  11.9659997
  59.6199992  71.8014990  11.9349997  59.6499992  73.0084990  12.8489997
  59.4660948  72.6430976  12.0811268 102.3149992  20.1654990  82.5919997
 103.1889992  20.5544990  82.5619997 102.1789992  19.9504990  83.5149997
 102.4163125  20.1897120  82.7126523  64.2019992  70.7554990   1.6309997
  64.3489992  70.2354990   2.4209997  64.1989992  71.6624990   1.9379997
  64.2217102  70.8068964   1.7805907  60.6549992  68.0074990   2.1419997
  59.9689992  68.3604990   2.7089997  61.1779992  68.7704990   1.8949997
  60.6318402  68.1588912   2.1861783  68.4859992  60.6704990  12.4209997
  69.1849992  60.7444990  13.0709997  68.1059992  59.8054990  12.5749997
  68.5302662  60.5637050  12.5307412  69.2709992  60.3224990   3.5179997
  69.4909992  60.7934990   2.7139997  69.8289992  60.7164990   4.1879997
  69.3766044  60.4402946   3.4985207  66.9399992  72.4524990   2.3809997
  66.1229992  72.9494990   2.4329997  67.4689992  72.9284990   1.7399997
  66.8998125  72.5847000   2.3015289  66.4709992  62.0504990   4.3529997
  67.2829992  62.5544990   4.3989997  66.2259992  61.9054990   5.2669997
  66.5491091  62.0999366   4.4828552  67.0069992  63.0364990  13.5369997
  67.1259992  63.6104990  14.2939997  67.6619992  62.3484990  13.6519997
  67.1118684  63.0220205  13.6561656  67.3549992  59.1314990   5.2909997
  67.0079992  59.7484990   5.9349997  68.0129992  59.6324990   4.8089997
  67.3964430  59.2836860   5.3140046  64.2779992  73.4964990   2.3619997
  64.4389992  74.2964990   1.8619997  64.0809992  73.8034990   3.2469997
  64.2733906  73.6473690   2.4132316  63.0119992  60.1944990   1.9779997
  62.9289992  61.0824990   2.3249997  63.9019992  59.9294990   2.2099997
  63.1209331  60.2801177   2.0568067 107.8709992  20.1954990  84.2409997
 107.9479992  20.2914990  83.2919997 107.5959992  19.2884990  84.3699997
 107.8443407  20.0859188  84.1283532  73.2109992  60.9434990  14.3719997
  72.2949992  61.2054990  14.2849997  73.5469992  60.9404990  13.4759997
  73.1308499  60.9790174  14.2388748  71.8129992  64.6934990   8.4679997
  71.0159992  64.2784990   8.1399997  72.2579992  64.0034990   8.9589997
  71.7640367  64.5433372   8.4894897  61.2709992  70.6214990   1.0379997
  61.8629992  71.3214990   1.3149997  61.7299992  70.1884990   0.3189997
  61.4141652  70.6587686   0.9786515  59.5869992  63.2864990   0.1539997
  59.5419992  64.2254990   0.3329997  58.6989992  63.0504990  -0.1150003
  59.4608166  63.3831698   0.1421507  72.8999992  73.9494990  10.0899997
  72.7439992  74.6284990   9.4329997  73.8319992  74.0214990  10.2929997
  73.0047328  74.0521586  10.0275529  60.3949992  58.0674990   8.8269997
  60.1659992  58.1264990   7.8999997  59.9519992  57.2764990   9.1339997
  60.3037387  57.9686412   8.7415223  59.3249992  72.0084990   4.9879997
  58.4929992  72.4804990   5.0149997  59.8709992  72.5184990   4.3889997
  59.2848710  72.1420317   4.9107570  58.6139992  74.6204990  16.3179997
  59.1539992  74.4044990  17.0779997  58.1319992  73.8154990  16.1279997
  58.6228485  74.4820463  16.3964870  63.2109992  73.5404990  17.9379997
  63.9789992  73.0814990  18.2789997  63.1899992  73.3144990  17.0079997
  63.3132135  73.4471680  17.8589473  67.3029992  73.0484990  -0.6870003
  66.6589992  72.4174990  -0.3650003  68.0649992  72.5174990  -0.9180003
  67.3178708  72.8903171  -0.6741539 109.2249992  20.2214990  79.9339997
 108.5219992  20.8364990  79.7239997 108.7799992  19.3844990  80.0649997
 109.0686550  20.1924679  79.9229819  69.7879992  71.9204990  16.6669997
  69.4369992  71.0634990  16.9099997  70.5139992  72.0624990  17.2739997
  69.8381590  71.8225189  16.7822889  71.9069992  72.8654990  -0.4530003
  72.1899992  72.0704990  -0.0000003  72.6469992  73.0984990  -1.0140003
  72.0457295  72.7882349  -0.4668531  58.5209992  68.4314990  17.2719997
  58.6649992  67.5294990  16.9859997  57.7479992  68.7174990  16.7849997
  58.4362266  68.3466548  17.1670102  62.8619992  68.7744990  -0.5950003
  62.9259992  67.9804990  -0.0650003  63.5149992  68.6564990  -1.2850003
  62.9590483  68.6497496  -0.6156593  65.1759992  68.4004990  16.7049997
  64.8479992  68.6714990  15.8479997  65.3279992  67.4594990  16.6169997
  65.1516412  68.3104058  16.5757804  70.9109992  68.3164990  14.0879997
  71.6559992  68.9054990  13.9689997  70.1529992  68.8984990  14.1509997
  70.9105289  68.4757067  14.0802292  59.3529992  65.6314990  16.6919997
  59.7609992  64.7744990  16.5709997  59.0929992  65.6454990  17.6129997
  59.3737082  65.5160596  16.7999469  64.0109992  66.7474990   1.7109997
  63.5519992  66.2634990   2.3959997  64.2659992  66.0784990   1.0749997
  63.9825997  66.5908491   1.7188734  63.2999992  64.6404990  14.0669997
  62.6819992  65.3144990  14.3469997  63.6439992  64.9614990  13.2329997
  63.2618078  64.7762298  13.9926609  65.0819992  64.9904990  -0.0270003
  64.9019992  64.8354990  -0.9540003  66.0319992  65.0984990   0.0179997
  65.1857804  64.9838821  -0.1478034  96.4729992  35.9854990  79.4799997
  95.7879992  35.9474990  78.8119997  96.4759992  36.8974990  79.7679997
  96.3797358  36.1036744  79.4276145  68.3199992  67.1114990  17.3439997
  69.2729992  67.1954990  17.3169997  68.1599992  66.3994990  17.9629997
  68.4287320  67.0267292  17.4239933  74.4719992  67.3444990  -0.5810003
  74.1989992  66.9204990  -1.3940003  74.5119992  68.2764990  -0.7980003
  74.4400201  67.4123523  -0.7216452  63.6399992  61.9954990  15.1489997
  63.7899992  61.2664990  14.5469997  63.6419992  62.7724990  14.5899997
  63.6607967  62.0007720  14.9910523  64.0519992  60.3644990  12.6419997
  64.5879992  60.8164990  11.9899997  63.1999992  60.2564990  12.2189997
  64.0101795  60.4117444  12.4956211  65.6339992  65.8044990  12.8809997
  66.3849992  65.6484990  12.3079997  65.2949992  66.6564990  12.6059997
  65.6909587  65.8983149  12.7654060  70.0499992  63.6194990  17.9099997
  70.2419992  62.6884990  17.7979997  70.9069992  64.0444990  17.8989997
  70.1922176  63.5495090  17.8931757  71.3659992  66.4084990  15.9869997
  71.0849992  67.1174990  15.4089997  72.3089992  66.3354990  15.8359997
  71.4549272  66.4956704  15.8874976  62.1179992  63.1934990  17.0599997
  61.3509992  62.6604990  16.8499997  62.7969992  62.8834990  16.4609997
  62.1048292  63.0786360  16.9502693  64.8579992  57.8214990  13.0729997
  64.7599992  58.7674990  12.9679997  64.1149992  57.4484990  12.5969997
  64.7442123  57.9006811  12.9943204  66.1219992  62.1424990  16.6369997
  65.8859992  61.9234990  17.5379997  65.3389992  61.9354990  16.1269997
  65.9838382  62.0845340  16.6913991 103.4589992  22.2464990  79.4819997
 103.6369992  21.5994990  80.1649997 103.4049992  23.0804990  79.9489997
 103.4760678  22.2706615  79.6386283  68.8379992  61.2704990  15.7119997
  67.8899992  61.3024990  15.8439997  69.1499992  60.6444990  16.3659997
  68.7505293  61.1902934  15.8184130  70.4719992  59.9044990  17.7169997
  70.3749992  58.9524990  17.7119997  70.1499992  60.1724990  18.5779997
  70.4152468  59.8105896  17.8326192  60.2989992  61.1134990  16.7649997
  60.5099992  60.4074990  16.1549997  60.1869992  60.6764990  17.6089997
  60.3127668  60.9576619  16.7955445  65.0799992  57.1154990  15.7439997
  65.7909992  56.4754990  15.7299997  64.9789992  57.3814990  14.8309997
  65.1636858  57.0638591  15.6185501  65.4329992  58.7974990  17.7979997
  65.3019992  58.3224990  16.9779997  64.8339992  59.5424990  17.7429997
  65.3340829  58.8330949  17.6781823  64.9799992  75.6804990   0.9739997
  65.9129992  75.8384990   1.1179997  64.7149992  76.3564990   0.3489997
  65.0719846  75.7934567   0.9092930  58.5479992  70.3174990   0.4569997
  59.4619992  70.3964990   0.7299997  58.5549992  69.6304990  -0.2090003
  58.6740624  70.2354074   0.4043045  57.1969992  75.7104990   5.5339997
  56.5499992  75.2484990   5.0019997  57.5519992  75.0384990   6.1169997
  57.1563741  75.5564785   5.5399157  58.0669992  73.7904990   7.3389997
  57.7329992  72.9104990   7.5109997  58.2889992  74.1364990   8.2039997
  58.0512565  73.7167410   7.4794263  75.6159992  74.6004990  10.3199997
  75.5939992  74.7854990  11.2579997  76.3059992  75.1684990   9.9789997
  75.7063383  74.7027104  10.4024580 105.3369992  37.1944990  77.8769997
 106.2029992  37.5614990  77.6989997 105.0899992  36.7554990  77.0639997
 105.4222041  37.1853648  77.7425958  75.1789992  74.1674990  13.2409997
  74.6919992  73.4314990  12.8699997  75.7279992  73.7734990  13.9189997
  75.1866101  74.0136267  13.2819034  73.6299992  69.9574990  17.8789997
  72.7639992  69.8524990  18.2739997  74.0059992  70.7154990  18.3259997
  73.5624940  70.0456141  17.9933958  74.9309992  68.2134990   3.3939997
  75.7809992  68.6344990   3.5209997  74.9359992  67.4734990   4.0009997
  75.0481143  68.1711106   3.4934732  75.3249992  66.2674990   5.2169997
  74.5989992  65.7874990   5.6149997  75.9059992  66.4724990   5.9489997
  75.3042504  66.2295592   5.3704199  75.0839992  69.0524990  10.1649997
  75.9179992  68.6744990   9.8839997  75.1959992  69.9954990  10.0459997
  75.2131917  69.1282954  10.1104844  73.5699992  71.9304990  12.4719997
  72.9229992  72.2554990  13.0969997  73.0529992  71.4894990  11.7979997
  73.4114112  71.9154133  12.4665272  75.5929992  66.1684990   1.6079997
  75.0719992  66.5244990   0.8899997  75.5599992  66.8434990   2.2869997
  75.5170955  66.3085023   1.6012634  73.9419992  63.4074990   0.1589997
  74.0389992  64.0744990  -0.5210003  73.8019992  62.5924990  -0.3220003
  73.9363407  63.3885670   0.0008312  73.1119992  64.7884990   5.7799997
  72.9619992  63.8434990   5.7599997  72.7579992  65.0694990   6.6239997
  73.0436351  64.6971656   5.8913202  58.1469992  66.8664990   9.7909997
  58.3309992  66.7844990   8.8549997  58.9959992  66.7424990  10.2139997
  58.2870132  66.8385066   9.7201460 112.0459992  36.7574990  80.5569997
 111.8519992  36.0094990  79.9919997 112.0069992  37.5154990  79.9729997
 112.0141907  36.7575770  80.4008077  73.9679992  66.7584990  15.4189997
  74.5509992  66.0234990  15.6109997  74.5319992  67.5304990  15.4659997
  74.1239781  66.7623156  15.4516146  75.4649992  64.6614990  16.1039997
  74.6009992  64.2824990  15.9379997  76.0689992  63.9224990  16.0289997
  75.4285394  64.5098378  16.0711778  72.8219992  62.3704990   4.2429997
  73.1019992  61.4634990   4.3669997  73.5809992  62.8044990   3.8539997
  72.9629258  62.3050935   4.2073691  73.4339992  62.9524990   9.6789997
  74.3669992  63.1644990   9.6439997  73.1989992  63.0534990  10.6009997
  73.5299517  62.9951844   9.7989113  73.4629992  63.6894990  12.4549997
  72.6199992  63.9574990  12.8199997  73.9059992  64.5114990  12.2439997
  73.4074035  63.8373351  12.4764770  57.7439992  62.1364990  15.9309997
  58.6639992  62.0144990  16.1679997  57.2949992  61.3864990  16.3209997
  57.8090500  62.0184576  16.0161016  75.7459992  57.6694990  17.8079997
  76.0959992  57.0154990  17.2019997  75.8929992  58.5064990  17.3679997
  75.8137192  57.6932545  17.6656712  73.4359992  59.6334990   4.2909997
  73.6179992  59.1844990   5.1159997  72.8359992  59.0494990   3.8269997
  73.3798187  59.4930563   4.3412721  58.9659992  60.4494990   8.8229997
  59.4109992  59.6574990   9.1249997  59.4319992  61.1654990   9.2529997
  59.0899718  60.4379546   8.9225247  57.2699992  63.4484990   9.8919997
  57.7619992  63.2274990   9.1009997  57.6319992  64.2884990  10.1729997
  57.3862923  63.5318480   9.8217389  97.6929992  20.7534990  92.2959997
  97.3269992  19.9874990  92.7389997  98.6059992  20.7824990  92.5829997
  97.7663225  20.6526918  92.3953441  75.2659992  59.7784990  16.1569997
  74.3489992  60.0494990  16.1209997  75.3889992  59.2434990  15.3729997
  75.1570828  59.7432711  16.0460767  75.3019992  59.7014990   0.8189997
  75.7149992  58.9804990   0.3439997  75.9839992  60.3704990   0.8769997
  75.4506060  59.6933741   0.7619233  57.5829992  59.7064990   3.9459997
  56.6579992  59.9144990   3.8169997  58.0369992  60.1904990   3.2559997
  57.5176298  59.8004311   3.8350433  72.3539992  74.6904990   5.8919997
  73.0059992  74.3424990   5.2839997  72.8649992  75.1784990   6.5379997
  72.5122872  74.7088248   5.8960964  57.5469992  58.4444990  12.2899997
  56.8819992  58.1984990  12.9329997  57.1039992  59.0664990  11.7129997
  57.3961168  58.4949225  12.2999830  59.7389992  71.6194990  16.4349997
  58.9179992  71.7944990  15.9739997  59.4869992  71.5464990  17.3549997
  59.5925594  71.6335728  16.4963593  62.6929992  72.5934990  12.6929997
  62.2679992  73.4034990  12.4109997  63.5969992  72.6794990  12.3909997
  62.7570706  72.7159557  12.6135836  67.0039992  73.9924990  15.6529997
  67.1889992  73.6594990  16.5309997  67.8509992  74.3024990  15.3309997
  67.1437291  73.9888214  15.7296140  69.3489992  75.2784990  14.8969997
  70.0259992  74.6454990  14.6569997  69.6709992  75.6794990  15.7039997
  69.4851618  75.2461147  14.9732802  74.2669992  57.8684990  13.9759997
  73.4539992  58.1934990  13.5889997  74.4999992  57.1074990  13.4429997
  74.1871347  57.8101891  13.8509824  99.6659992  20.1034990  93.8319997
 100.5649992  19.8294990  93.6469997  99.2799992  19.3614990  94.2959997
  99.7367237  19.9656520  93.8694693  60.0949992  75.8504990  12.7409997
  59.3739992  76.2904990  12.2899997  59.7289992  75.5994990  13.5889997
  59.9469632  75.8767235  12.7939649  62.5619992  75.4504990  11.7699997
  61.6969992  75.5224990  12.1739997  62.5069992  75.9974990  10.9869997
  62.4362289  75.5343242  11.7193749  67.2729992  75.3384990  10.9459997
  66.8159992  75.8674990  10.2919997  67.4349992  75.9414990  11.6709997
  67.2323919  75.4923990  10.9545740  69.5999992  74.2164990  11.8909997
  68.6959992  74.3814990  11.6249997  70.0289992  75.0694990  11.8249997
  69.5342017  74.3544184  11.8456495  72.2039992  75.7864990  12.1859997
  72.0229992  76.7024990  11.9749997  72.3809992  75.3754990  11.3389997
  72.2031377  75.8563365  12.0427178  59.5099992  74.4734990   9.6509997
  59.4909992  74.0474990  10.5079997  60.3139992  74.1544990   9.2419997
  59.6161393  74.3720297   9.7130155  61.6509992  73.1834990   8.3059997
  61.4319992  72.2664990   8.4759997  62.4749992  73.3234990   8.7719997
  61.7324702  73.0770523   8.3922510  64.1879992  73.6534990   9.1549997
  64.4009992  72.7654990   8.8679997  64.2529992  73.6184990  10.1089997
  64.2259149  73.5273338   9.2447351  67.6969992  59.3174990   8.2989997
  67.0219992  58.6874990   8.5549997  68.2609992  58.8334990   7.6959997
  67.6809363  59.1658886   8.2524810  72.8389992  57.4244990   8.4119997
  73.4429992  57.9724990   7.9099997  71.9699992  57.7434990   8.1709997
  72.8040419  57.5425628   8.3107741 108.0869992  19.4364990  94.0139997
 108.1639992  19.0104990  94.8679997 108.9809992  19.4494990  93.6719997
 108.2183315  19.3800320  94.0845052  74.5659992  58.5634990   6.7449997
  75.1779992  58.0494990   6.2179997  74.9489992  59.4404990   6.7679997
  74.7013867  58.6117613   6.6760888  60.0229992  57.9514990   6.1209997
  59.2459992  57.7164990   5.6139997  60.5539992  57.1544990   6.1299997
  59.9883735  57.8116462   6.0528090  58.8599992  57.7494990   1.9249997
  59.2989992  58.3604990   1.3329997  58.2259992  58.2874990   2.3989997
  58.8343859  57.9059076   1.9080287  64.6029992  57.8774990   5.9339997
  65.4769992  58.2664990   5.9049997  64.4669992  57.6624990   6.8569997
  64.7041953  57.9016654   6.0547599  70.1589992  57.9074990   7.5839997
  70.2359992  58.0034990   6.6339997  69.8839992  57.0004990   7.7119997
  70.1323233  57.7979093   7.4713665  71.5129992  57.9334990   3.2759997
  70.8099992  58.5484990   3.0659997  71.0679992  57.0964990   3.4069997
  71.3566550  57.9044679   3.2649819  58.7609992  73.6974990   2.8219997
  58.0759992  73.6594990   2.1549997  58.7639992  74.6094990   3.1099997
  58.6676806  73.8156669   2.7696961  60.7209992  59.6654990   0.3669997
  61.2119992  59.0354990  -0.1600003  61.3439992  59.9614990   1.0299997
  60.8725304  59.6192387   0.3844922  65.7469992  59.9584990   2.8239997
  65.9249992  59.3114990   3.5069997  65.6929992  60.7924990   3.2909997
  65.7640678  59.9826615   2.9806283  67.6249992  74.9064990   1.2199997
  68.4909992  75.2734990   1.0419997  67.3779992  74.4674990   0.4059997
  67.7101853  74.8974021   1.0855813 111.2639992  35.5084990  92.7069997
 110.4819992  35.3224990  92.1869997 111.1919992  36.4384990  92.9239997
 111.1472975  35.6086973  92.6651822  74.3339992  74.4694990   3.8989997
  74.1399992  73.7214990   3.3339997  74.2949992  75.2274990   3.3159997
  74.3021645  74.4695797   3.7428131  59.9809992  58.4654990  15.6389997
  59.6149992  57.6994990  16.0809997  60.8939992  58.4944990  15.9249997
  60.0543172  58.3645335  15.7381872  61.9539992  57.8154990  17.1739997
  62.8529992  57.5414990  16.9899997  61.5679992  57.0734990  17.6389997
  62.0247307  57.6777207  17.2117080  60.5789992  74.6174990  -0.1530003
  60.3109992  74.9034990   0.7209997  61.3499992  74.0714990  -0.0000003
  60.6465927  74.5827790  -0.0128812  70.3749992  57.1484990  17.3569997
  70.4519992  56.7224990  18.2099997  71.2689992  57.1614990  17.0139997
  70.5063263  57.0919345  17.4274366  73.5519992  73.2204990  16.0489997
  72.7699992  73.0344990  15.5289997  73.4799992  74.1504990  16.2659997
  73.4352975  73.3206973  16.0071823  87.9579992  67.1074990   6.0799997
  88.0469992  68.0514990   5.9469997  87.3189992  66.8324990   5.4219997
  87.8838378  67.1993846   5.9729258  86.8909992  66.3624990   9.4989997
  86.8519992  65.7164990  10.2039997  86.5679992  65.8954990   8.7269997
  86.8420469  66.2110005   9.4912803  79.2589992  65.9764990  11.0919997
  79.2999992  65.3514990  11.8149997  79.9619992  66.6004990  11.2739997
  79.3596223  65.9752318  11.2156164  90.5969992  69.3014990   7.7999997
  90.1559992  68.5814990   8.2509997  90.5839992  70.0224990   8.4299997
  90.5349215  69.3004303   7.9468088 125.6699992  29.3954990  82.7369997
 125.7589992  30.3394990  82.6049997 125.0309992  29.1204990  82.0789997
 125.5958319  29.4874984  82.6300276  80.1829992  70.4264990   9.6269997
  79.8129992  69.6244990   9.2569997  81.1239992  70.2584990   9.6729997
  80.2595984  70.2939649   9.5825586  76.7929992  64.0864990   5.0189997
  76.3449992  64.9324990   5.0009997  76.2319992  63.5074990   4.5039997
  76.6558546  64.1239004   4.9468874  77.5029992  66.2484990   7.1449997
  77.7169992  65.4784990   7.6719997  78.2409992  66.3384990   6.5419997
  77.6320073  66.1553546   7.1355786  87.7079992  74.4054990   8.0119997
  88.3279992  73.7294990   7.7389997  87.4999992  74.1874990   8.9209997
  87.7647679  74.2835032   8.0974518  85.2799992  68.7944990   9.9049997
  85.5839992  68.1084990   9.3099997  86.0019992  68.9134990  10.5229997
  85.4191240  68.7167325   9.9070941  93.9429992  60.3964990  10.7649997
  93.9919992  61.0064990  11.5009997  94.3689992  60.8574990  10.0419997
  94.0072851  60.5423266  10.7680532  88.4209992  63.1884990  10.2319997
  88.5629992  62.2424990  10.2519997  88.3149992  63.3954990   9.3039997
  88.4261051  63.0869706  10.1092249  81.5759992  61.2904990   7.5049997
  81.6189992  62.1504990   7.0859997  81.1179992  60.7374990   6.8709997
  81.5200163  61.3334174   7.3620604  89.2979992  61.4214990   5.9049997
  89.9439992  61.0924990   6.5299997  89.8079992  61.9384990   5.2829997
  89.4554289  61.4464333   5.9063681  78.1959992  63.6874990   8.2669997
  78.8499992  63.1374990   8.6989997  78.2199992  63.4134990   7.3499997
  78.2887199  63.5752179   8.2021650 124.6029992  28.6504990  86.1559997
 124.5639992  28.0044990  86.8609997 124.2799992  28.1834990  85.3849997
 124.5540199  28.4990089  86.1482865  83.3519992  65.2374990   7.4819997
  83.9679992  64.7104990   7.9909997  82.7659992  64.5974990   7.0779997
  83.3570652  65.0788919   7.4970277  94.3349992  61.8744990  13.0009997
  93.6459992  62.5324990  12.9059997  94.3499992  61.6764990  13.9379997
  94.2427756  61.9377614  13.1145795  80.3859992  60.2084990  11.5789997
  80.1669992  60.7384990  10.8119997  79.7179992  60.4344990  12.2259997
  80.2656975  60.3115979  11.5615123  87.7549992  69.7084990   5.1229997
  87.4589992  69.3854990   4.2709997  87.4309992  70.6084990   5.1639997
  87.6707458  69.7859678   5.0120598  82.9549992  67.8834990  11.8659997
  82.2149992  68.4824990  11.9699997  83.6689992  68.4374990  11.5499997
  82.9503146  68.0402611  11.8375150  91.0619992  60.7124990   7.8859997
  90.8469992  59.9464990   8.4189997  91.7179992  61.1844990   8.3989997
  91.1212673  60.6715739   8.0281972  79.9799992  62.1004990   9.5309997
  80.5929992  62.7334990   9.9039997  80.4919992  61.6284990   8.8749997
  80.1331933  62.1233380   9.4933477  81.3619992  69.8484990  12.6529997
  81.3569992  70.7274990  12.2749997  80.5089992  69.7644990  13.0779997
  81.2459199  69.9575901  12.6586942  77.4839992  69.5194990   3.4349997
  77.2119992  69.7484990   2.5459997  77.5289992  70.3564990   3.8959997
  77.4528360  69.6641034   3.3756186  91.1089992  71.1404990  10.1479997
  90.1669992  71.1994990  10.3099997  91.3849992  72.0464990  10.0109997
  91.0175865  71.2710299  10.1516174 116.9709992  28.2644990  87.7489997
 117.0119992  27.6394990  88.4729997 117.6739992  28.8884990  87.9309997
 117.0716054  28.2633262  87.8726311  91.4089992  59.4274990  11.5649997
  90.6729992  60.0374990  11.5279997  92.0929992  59.8424990  11.0389997
  91.4005367  59.5672562  11.4888156  84.4119992  57.5134990   9.0309997
  84.2949992  56.5654990   8.9769997  83.5569992  57.8464990   9.3039997
  84.2803691  57.4285842   9.0605072  89.3609992  72.9214990   6.7729997
  89.7859992  72.2144990   6.2879997  89.6779992  73.7234990   6.3559997
  89.4620266  72.9330201   6.6502461  90.5199992  70.8224990   5.2819997
  90.2629992  70.1324990   4.6699997  90.5909992  70.3794990   6.1269997
  90.4944322  70.6681568   5.3125372  92.2059992  69.3894990  13.7589997
  92.3459992  68.7974990  13.0199997  92.3739992  70.2624990  13.4029997
  92.2478734  69.4264041  13.6096937  86.6789992  66.3514990   3.5319997
  85.9669992  66.8864990   3.1799997  87.3699992  66.4064990   2.8719997
  86.6749704  66.4321663   3.3945797  86.7329992  64.8084990   0.5699997
  87.4339992  64.8314990   1.2219997  87.0349992  64.1804990  -0.0860003
  86.8698202  64.7267223   0.5705591  94.0479992  65.7294990  11.8249997
  93.3959992  66.4234990  11.9139997  94.5129992  65.9394990  11.0149997
  94.0215357  65.8529544  11.7277056  90.0849992  66.5604990   4.4829997
  89.3529992  66.7894990   5.0559997  90.5319992  65.8474990   4.9379997
  90.0452753  66.4953984   4.6229698  89.9819992  64.7354990  13.5509997
  90.0619992  65.4984990  14.1229997  89.3809992  65.0144990  12.8609997
  89.9116547  64.8777468  13.5360029 128.3089992  31.5894990  84.4579997
 127.8679992  30.8694990  84.9079997 128.2959992  32.3104990  85.0879997
 128.2468398  31.5883187  84.6047734  81.7299992  67.1914990   6.3659997
  81.3999992  66.8204990   5.5479997  82.3179992  66.5204990   6.7129997
  81.7643182  67.0500648   6.3009898  83.0969992  70.6194990   9.0469997
  83.0019992  70.0404990   8.2909997  83.8259992  70.2484990   9.5429997
  83.1826011  70.4900572   9.0106011  82.0969992  65.9594990   9.9989997
  82.6619992  66.0814990   9.2369997  82.4149992  66.5974990  10.6379997
  82.2173619  66.0624388   9.9810019  88.4059992  71.4634990  10.7329997
  88.1649992  72.1254990  11.3809997  88.2079992  70.6284990  11.1579997
  88.3462662  71.4412704  10.8791008  82.9769992  70.3594990  14.7169997
  82.6649992  71.1414990  15.1719997  82.3269992  70.2064990  14.0309997
  82.8464858  70.4457882  14.6865344  88.9559992  65.7234990   2.1689997
  89.5349992  65.8734990   2.9149997  89.3699992  66.1934990   1.4449997
  89.0913358  65.8075966   2.1733935  79.8969992  66.5574990  13.9449997
  79.9669992  67.2084990  14.6439997  79.0059992  66.6604990  13.6099997
  79.7861690  66.6604261  13.9953026  86.6819992  72.4594990   5.6039997
  87.1559992  72.7554990   6.3809997  86.1189992  73.1984990   5.3709997
  86.6707890  72.5998047   5.6788084  81.2159992  72.4304990  15.4799997
  81.2239992  72.2944990  14.5329997  80.2999992  72.3134990  15.7319997
  81.0932528  72.3960475  15.3843226  92.6539992  57.4734990   1.9809997
  91.7539992  57.6114990   2.2769997  92.9059992  58.3044990   1.5799997
  92.5647727  57.6048705   1.9672935 117.8949992  32.7144990  86.2839997
 117.5249992  31.9124990  85.9149997 118.8359992  32.5464990  86.3309997
 117.9715630  32.5818680  86.2397873  80.7199992  66.2604990   3.9549997
  80.4279992  67.0284990   3.4639997  80.0459992  65.6014990   3.7919997
  80.5888843  66.2764537   3.8657695  93.8439992  71.8394990   0.3579997
  93.9169992  72.7784990   0.5279997  94.7489992  71.5344990   0.3019997
  93.9764170  71.9268294   0.3737045  76.8129992  68.6234990  12.7699997
  76.3119992  68.5954990  11.9549997  76.8189992  67.7184990  13.0799997
  76.7451690  68.4972234  12.7002770  76.5639992  71.4044990   9.6539997
  77.5099992  71.2594990   9.6349997  76.4509992  72.1884990  10.1909997
  76.6783578  71.4906708   9.7240300  94.7609992  72.0704990  15.3369997
  94.7119992  71.1144990  15.2989997  93.9349992  72.3374990  15.7379997
  94.6425096  71.9758416  15.3860698  85.7399992  71.6444990  14.2129997
  85.8269992  72.4704990  14.6879997  84.8759992  71.3144990  14.4619997
  85.6351944  71.7129871  14.3116558  86.1539992  75.4164990   4.0189997
  86.0789992  75.2954990   3.0719997  86.1869992  76.3654990   4.1369997
  86.1482083  75.5282639   3.9054973  79.8079992  74.2054990   5.7999997
  79.9599992  73.8574990   6.6779997  78.9569992  73.8484990   5.5439997
  79.7138344  74.1095891   5.8856851  89.2559992  74.5704990   1.0209997
  89.6309992  73.8264990   0.5499997  89.2599992  74.3004990   1.9389997
  89.3078969  74.4320920   1.0806475  88.9249992  74.4964990   3.7699997
  87.9899992  74.5964990   3.9489997  89.2049992  73.7864990   4.3489997
  88.8349471  74.4142944   3.8726678 114.5049992  26.3744990  81.6769997
 114.0569992  27.2204990  81.6589997 113.9439992  25.7954990  81.1619997
 114.3678546  26.4119004  81.6048874  91.9129992  63.5634990  15.8169997
  91.5059992  64.0434990  15.0959997  91.9539992  62.6574990  15.5089997
  91.8628403  63.5067989  15.6767253  79.0619992  69.9474990  13.8129997
  79.2779992  69.5854990  14.6729997  78.2069992  69.5724990  13.6039997
  78.9759082  69.8473377  13.9022396  81.6809992  58.4174990   9.8089997
  80.8189992  58.3304990   9.4009997  81.6589992  59.2734990  10.2369997
  81.5600557  58.5213078   9.8110202  86.3439992  58.1394990  13.1839997
  86.7639992  57.7244990  13.9369997  85.4109992  57.9604990  13.3009997
  86.2753736  58.0584921  13.3028950  89.6699992  61.8944990  14.0369997
  89.1559992  61.7694990  14.8349997  89.5149992  62.8074990  13.7929997
  89.5787802  62.0007433  14.1131504  90.4329992  66.7554990  -0.2020003
  90.4749992  66.5334990  -1.1320003  91.2819992  67.1544990  -0.0120003
  90.5535253  66.7790510  -0.3036196  86.0059992  60.6314990   0.4689997
  85.7519992  60.6504990   1.3909997  85.7489992  59.7604990   0.1669997
  85.9364508  60.5163292   0.5544786  81.7719992  63.3824990  10.9039997
  81.1299992  63.3424990  11.6129997  81.8089992  64.3094990  10.6659997
  81.6891659  63.5022540  10.9688463  81.7689992  63.6034990   5.8159997
  80.8759992  63.2634990   5.7569997  82.2199992  63.2264990   5.0599997
  81.7077185  63.5060220   5.7057698  87.3049992  64.0194990   4.6329997
  86.8959992  64.8344990   4.3409997  88.0249992  63.8794990   4.0189997
  87.3464439  64.1120383   4.5100098 115.2149992  28.5364990  83.8029997
 115.4289992  27.7664990  84.3299997 115.9529992  28.6264990  83.1999997
 115.3440073  28.4433546  83.7935786  86.4069992  64.1954990  16.1209997
  85.8439992  63.4904990  16.4419997  87.2329992  64.0744990  16.5889997
  86.4416674  64.0827176  16.2281734  88.3089992  63.4654990   7.4469997
  88.1139992  64.0714990   6.7319997  88.4909992  62.6324990   7.0129997
  88.3069195  63.4357936   7.2904079  79.5219992  63.7034990  12.7709997
  79.4839992  64.1034990  13.6399997  79.0309992  62.8864990  12.8609997
  79.4504374  63.6478228  12.9020980  82.8879992  61.0774990  -0.4300003
  82.4569992  60.6324990   0.2989997  82.1699992  61.4484990  -0.9430003
  82.7319176  61.0667063  -0.3995087  76.1299992  60.8194990   6.6219997
  76.7609992  60.7904990   7.3409997  76.5799992  60.3944990   5.8909997
  76.2771082  60.7581269   6.6216307  77.4039992  61.5654990   2.0459997
  77.8789992  62.1564990   1.4609997  76.6869992  62.0954990   2.3929997
  77.3720406  61.7181011   2.0128495  87.5729992  65.1034990  12.1179997
  87.8969992  64.4724990  11.4749997  87.1329992  64.5694990  12.7789997
  87.5578707  64.9448261  12.1193195  84.3509992  61.0314990   6.9019997
  83.4399992  61.0884990   7.1909997  84.8559992  60.9714990   7.7129997
  84.2946873  61.0311838   7.0511190  79.1789992  62.6604990   5.7289997
  78.2899992  62.7594990   5.3889997  79.4749992  61.8184990   5.3829997
  79.0974001  62.5602473   5.6357318  82.8319992  62.6604990   3.3859997
  83.7639992  62.7894990   3.5639997  82.6169992  63.3294990   2.7359997
  82.9304472  62.7685817   3.3224873 125.4199992  36.6934990  84.6699997
 126.0399992  36.0174990  84.3969997 125.2119992  36.4754990  85.5779997
 125.4767360  36.5714792  84.7554387  88.7559992  60.2664990  10.1659997
  88.0789992  60.3974990  10.8299997  88.2699992  60.1114990   9.3559997
  88.5977265  60.2634665  10.1473380  81.5059992  63.8544990   0.9519997
  80.9639992  63.4754990   0.2609997  82.3399992  64.0494990   0.5239997
  81.5444390  63.8289091   0.7994374  92.0429992  75.9374990  16.4429997
  92.2429992  76.3614990  15.6089997  92.6989992  76.2814990  17.0499997
  92.1589937  76.0419993  16.4108645  79.6409992  68.4114990  16.0509997
  80.3729992  68.6664990  16.6129997  78.8609992  68.6164990  16.5669997
  79.6356526  68.4740438  16.1975168  85.6709992  63.8184990   8.7889997
  86.2349992  63.2724990   8.2419997  85.5229992  63.2974990   9.5779997
  85.7283037  63.6731798   8.8207212  80.6729992  59.9554990   5.2079997
  80.3549992  59.0524990   5.1719997  81.4539992  59.9574990   4.6549997
  80.7351079  59.8322240   5.1282908  84.2969992  62.2074990  11.2029997
  83.4619992  62.6614990  11.3139997  84.8209992  62.4834990  11.9549997
  84.2536072  62.3068960  11.3198118  84.8409992  68.4204990   2.8879997
  84.0959992  67.9124990   2.5659997  84.7069992  68.4694990   3.8339997
  84.7209334  68.3576144   2.9718892  91.9909992  67.5534990  11.6749997
  92.6329992  68.0094990  11.1309997  91.1609992  67.6664990  11.2119997
  91.9666536  67.6311813  11.5379579  88.7389992  61.2344990   1.0869997
  87.7999992  61.3454990   0.9359997  89.0359992  62.0904990   1.3939997
  88.6506136  61.3654977   1.1078568 122.9919992  31.0824990  86.5619997
 123.2959992  30.3964990  85.9679997 123.7139992  31.2014990  87.1799997
 123.1311152  31.0047201  86.5642106  86.3609992  68.6044990  14.1249997
  86.0149992  68.2224990  14.9319997  86.1609992  69.5374990  14.1959997
  86.2865987  68.6784013  14.2450443  89.4569992  63.1014990   2.7479997
  90.3489992  62.9634990   3.0669997  89.5139992  63.8924990   2.2109997
  89.5867380  63.1894777   2.7190981  79.9659992  67.7154990   8.6579997
  80.7109992  67.7124990   8.0559997  80.0439992  66.8914990   9.1389997
  80.0783365  67.6037395   8.6407412  86.9669992  69.8784990   1.9129997
  86.6719992  70.7054990   2.2949997  86.2639992  69.2594990   2.1099997
  86.8316379  69.9079182   1.9918636  76.9739992  66.1754990  13.9729997
  77.1969992  65.7574990  14.8039997  76.3719992  65.5634990  13.5499997
  76.9231513  66.0354617  14.0296722  83.9909992  65.6924990  16.1859997
  83.6949992  65.5274990  15.2899997  84.9219992  65.4724990  16.1749997
  84.0764401  65.6401891  16.0620189  88.6109992  71.0664990  14.0749997
  87.7099992  71.2494990  13.8079997  88.6449992  71.3254990  14.9959997
  88.4923861  71.1265245  14.1629517  94.3419992  63.3104990   2.4429997
  93.7879992  62.9144990   1.7699997  94.4429992  64.2214990   2.1649997
  94.2798589  63.3793904   2.3133839  94.3049992  69.1114990  15.2799997
  93.4539992  69.3494990  14.9119997  94.8959992  69.0944990  14.5259997
  94.2683831  69.1417623  15.1278448  92.6369992  72.0964990   2.9079997
  92.2649992  71.2714990   3.2169997  92.9149992  71.9134990   2.0099997
  92.6235807  71.9587031   2.8290063 131.6549992  22.6844990  87.4229997
 131.7039992  23.2944990  88.1589997 132.0809992  23.1454990  86.6999997
 131.7192851  22.8303266  87.4260532  89.7979992  66.9044990   9.9289997
  88.8699992  66.6734990   9.9019997  90.2489992  66.1274990   9.5989997
  89.7318165  66.7677785   9.8806772  82.3409992  71.2334990   6.0619997
  82.8679992  72.0064990   5.8619997  81.4609992  71.4574990   5.7599997
  82.2942121  71.3697344   5.9937460  78.0959992  66.0954990   0.6489997
  78.7119992  66.7224990   1.0289997  77.2339992  66.4114990   0.9209997
  78.0637678  66.2239423   0.7377192  83.7679992  68.8964990   5.6379997
  83.5269992  69.8214990   5.6799997  83.0279992  68.4374990   6.0349997
  83.6349463  68.9610969   5.6974279  84.2829992  73.0454990  11.9529997
  84.6459992  73.8994990  11.7199997  84.8149992  72.7534990  12.6939997
  84.4045141  73.1228907  12.0212079  82.4509992  73.9174990   5.1839997
  81.5019992  74.0234990   5.2349997  82.8029992  74.7384990   5.5279997
  82.3685647  74.0430029   5.2374882  87.8269992  69.1444990  11.6539997
  87.4009992  68.9164990  12.4799997  88.4079992  68.4054990  11.4719997
  87.8472088  69.0134393  11.7424454  90.0299992  70.0734990   0.7279997
  90.3829992  69.6934990   1.5319997  89.0809992  69.9794990   0.8149997
  89.9500956  70.0087867   0.8498005  90.4859992  73.6964990  14.1229997
  89.8839992  73.1404990  13.6279997  90.7669992  74.3634990  13.4969997
  90.4415757  73.7105755  13.9705657  94.5329992  74.5524990   0.9289997
  95.2769992  75.1384990   0.7889997  93.8389992  75.1214990   1.2619997
  94.5409809  74.7095830   0.9548572 126.1329992  25.4764990  86.8899997
 126.2749992  24.5304990  86.9099997 126.0269992  25.6834990  85.9609997
 126.1381158  25.3749722  86.7672241  78.6079992  60.9294990  13.5309997
  77.7149992  61.2674990  13.4629997  78.5089992  60.0734990  13.9489997
  78.4724752  60.8600986  13.5781644  90.8959992  68.7454990   2.9549997
  90.6189992  68.0174990   3.5109997  91.8229992  68.8644990   3.1599997
  90.9834419  68.6619436   3.0588264  78.2589992  72.7334990  11.9659997
  78.4759992  71.8014990  11.9349997  78.5059992  73.0084990  12.8489997
  78.3220948  72.6430976  12.0811268  83.0579992  70.7554990   1.6309997
  83.2049992  70.2354990   2.4209997  83.0549992  71.6624990   1.9379997
  83.0777102  70.8068964   1.7805907  79.5109992  68.0074990   2.1419997
  78.8249992  68.3604990   2.7089997  80.0339992  68.7704990   1.8949997
  79.4878402  68.1588912   2.1861783  87.3419992  60.6704990  12.4209997
  88.0409992  60.7444990  13.0709997  86.9619992  59.8054990  12.5749997
  87.3862662  60.5637050  12.5307412  88.1269992  60.3224990   3.5179997
  88.3469992  60.7934990   2.7139997  88.6849992  60.7164990   4.1879997
  88.2326044  60.4402946   3.4985207  85.7959992  72.4524990   2.3809997
  84.9789992  72.9494990   2.4329997  86.3249992  72.9284990   1.7399997
  85.7558125  72.5847000   2.3015289  85.3269992  62.0504990   4.3529997
  86.1389992  62.5544990   4.3989997  85.0819992  61.9054990   5.2669997
  85.4051091  62.0999366   4.4828552  85.8629992  63.0364990  13.5369997
  85.9819992  63.6104990  14.2939997  86.5179992  62.3484990  13.6519997
  85.9678684  63.0220205  13.6561656 119.2879992  23.5784990  84.1619997
 119.3309992  24.4384990  83.7439997 118.8299992  23.0254990  83.5289997
 119.2319613  23.6215689  84.0191276  86.2109992  59.1314990   5.2909997
  85.8639992  59.7484990   5.9349997  86.8689992  59.6324990   4.8089997
  86.2524430  59.2836860   5.3140046  83.1339992  73.4964990   2.3619997
  83.2949992  74.2964990   1.8619997  82.9369992  73.8034990   3.2469997
  83.1293906  73.6473690   2.4132316  81.8679992  60.1944990   1.9779997
  81.7849992  61.0824990   2.3249997  82.7579992  59.9294990   2.2099997
  81.9769331  60.2801177   2.0568067  92.0669992  60.9434990  14.3719997
  91.1509992  61.2054990  14.2849997  92.4029992  60.9404990  13.4759997
  91.9868499  60.9790174  14.2388748  90.6689992  64.6934990   8.4679997
  89.8719992  64.2784990   8.1399997  91.1139992  64.0034990   8.9589997
  90.6200367  64.5433372   8.4894897  80.1269992  70.6214990   1.0379997
  80.7189992  71.3214990   1.3149997  80.5859992  70.1884990   0.3189997
  80.2701652  70.6587686   0.9786515  78.4429992  63.2864990   0.1539997
  78.3979992  64.2254990   0.3329997  77.5549992  63.0504990  -0.1150003
  78.3168166  63.3831698   0.1421507  91.7559992  73.9494990  10.0899997
  91.5999992  74.6284990   9.4329997  92.6879992  74.0214990  10.2929997
  91.8607328  74.0521586  10.0275529  79.2509992  58.0674990   8.8269997
  79.0219992  58.1264990   7.8999997  78.8079992  57.2764990   9.1339997
  79.1597387  57.9686412   8.7415223  78.1809992  72.0084990   4.9879997
  77.3489992  72.4804990   5.0149997  78.7269992  72.5184990   4.3889997
  78.1408710  72.1420317   4.9107570 127.0099992  23.7094990  82.5629997
 127.6559992  23.3804990  83.1879997 127.5199992  24.2264990  81.9399997
 127.1674392  23.7343710  82.5643248  77.4699992  74.6204990  16.3179997
  78.0099992  74.4044990  17.0779997  76.9879992  73.8154990  16.1279997
  77.4788485  74.4820463  16.3964870  82.0669992  73.5404990  17.9379997
  82.8349992  73.0814990  18.2789997  82.0459992  73.3144990  17.0079997
  82.1692135  73.4471680  17.8589473  86.1589992  73.0484990  -0.6870003
  85.5149992  72.4174990  -0.3650003  86.9209992  72.5174990  -0.9180003
  86.1738708  72.8903171  -0.6741539  88.6439992  71.9204990  16.6669997
  88.2929992  71.0634990  16.9099997  89.3699992  72.0624990  17.2739997
  88.6941590  71.8225189  16.7822889  90.7629992  72.8654990  -0.4530003
  91.0459992  72.0704990  -0.0000003  91.5029992  73.0984990  -1.0140003
  90.9017295  72.7882349  -0.4668531  77.3769992  68.4314990  17.2719997
  77.5209992  67.5294990  16.9859997  76.6039992  68.7174990  16.7849997
  77.2922266  68.3466548  17.1670102  81.7179992  68.7744990  -0.5950003
  81.7819992  67.9804990  -0.0650003  82.3709992  68.6564990  -1.2850003
  81.8150483  68.6497496  -0.6156593  84.0319992  68.4004990  16.7049997
  83.7039992  68.6714990  15.8479997  84.1839992  67.4594990  16.6169997
  84.0076412  68.3104058  16.5757804  89.7669992  68.3164990  14.0879997
  90.5119992  68.9054990  13.9689997  89.0089992  68.8984990  14.1509997
  89.7665289  68.4757067  14.0802292  78.2089992  65.6314990  16.6919997
  78.6169992  64.7744990  16.5709997  77.9489992  65.6454990  17.6129997
  78.2297082  65.5160596  16.7999469 115.9079992  25.9754990  84.9239997
 116.5619992  25.4254990  85.3559997 115.9319992  25.7014990  84.0079997
 116.0007022  25.8632005  84.8591698  82.8669992  66.7474990   1.7109997
  82.4079992  66.2634990   2.3959997  83.1219992  66.0784990   1.0749997
  82.8385997  66.5908491   1.7188734  82.1559992  64.6404990  14.0669997
  81.5379992  65.3144990  14.3469997  82.4999992  64.9614990  13.2329997
  82.1178078  64.7762298  13.9926609  83.9379992  64.9904990  -0.0270003
  83.7579992  64.8354990  -0.9540003  84.8879992  65.0984990   0.0179997
  84.0417804  64.9838821  -0.1478034  87.1759992  67.1114990  17.3439997
  88.1289992  67.1954990  17.3169997  87.0159992  66.3994990  17.9629997
  87.2847320  67.0267292  17.4239933  93.3279992  67.3444990  -0.5810003
  93.0549992  66.9204990  -1.3940003  93.3679992  68.2764990  -0.7980003
  93.2960201  67.4123523  -0.7216452  82.4959992  61.9954990  15.1489997
  82.6459992  61.2664990  14.5469997  82.4979992  62.7724990  14.5899997
  82.5167967  62.0007720  14.9910523  82.9079992  60.3644990  12.6419997
  83.4439992  60.8164990  11.9899997  82.0559992  60.2564990  12.2189997
  82.8661795  60.4117444  12.4956211  84.4899992  65.8044990  12.8809997
  85.2409992  65.6484990  12.3079997  84.1509992  66.6564990  12.6059997
  84.5469587  65.8983149  12.7654060  88.9059992  63.6194990  17.9099997
  89.0979992  62.6884990  17.7979997  89.7629992  64.0444990  17.8989997
  89.0482176  63.5495090  17.8931757  90.2219992  66.4084990  15.9869997
  89.9409992  67.1174990  15.4089997  91.1649992  66.3354990  15.8359997
  90.3109272  66.4956704  15.8874976 121.0639992  27.5254990  84.1399997
 121.6799992  26.9984990  84.6489997 120.4779992  26.8854990  83.7359997
 121.0690652  27.3668919  84.1550277  80.9739992  63.1934990  17.0599997
  80.2069992  62.6604990  16.8499997  81.6529992  62.8834990  16.4609997
  80.9608292  63.0786360  16.9502693  83.7139992  57.8214990  13.0729997
  83.6159992  58.7674990  12.9679997  82.9709992  57.4484990  12.5969997
  83.6002123  57.9006811  12.9943204  84.9779992  62.1424990  16.6369997
  84.7419992  61.9234990  17.5379997  84.1949992  61.9354990  16.1269997
  84.8398382  62.0845340  16.6913991  87.6939992  61.2704990  15.7119997
  86.7459992  61.3024990  15.8439997  88.0059992  60.6444990  16.3659997
  87.6065293  61.1902934  15.8184130  89.3279992  59.9044990  17.7169997
  89.2309992  58.9524990  17.7119997  89.0059992  60.1724990  18.5779997
  89.2712468  59.8105896  17.8326192  79.1549992  61.1134990  16.7649997
  79.3659992  60.4074990  16.1549997  79.0429992  60.6764990  17.6089997
  79.1687668  60.9576619  16.7955445  83.9359992  57.1154990  15.7439997
  84.6469992  56.4754990  15.7299997  83.8349992  57.3814990  14.8309997
  84.0196858  57.0638591  15.6185501  84.2889992  58.7974990  17.7979997
  84.1579992  58.3224990  16.9779997  83.6899992  59.5424990  17.7429997
  84.1900829  58.8330949  17.6781823  83.8359992  75.6804990   0.9739997
  84.7689992  75.8384990   1.1179997  83.5709992  76.3564990   0.3489997
  83.9279846  75.7934567   0.9092930  77.4039992  70.3174990   0.4569997
  78.3179992  70.3964990   0.7299997  77.4109992  69.6304990  -0.2090003
  77.5300624  70.2354074   0.4043045 132.0469992  24.1624990  89.6589997
 131.3579992  24.8204990  89.5639997 132.0619992  23.9644990  90.5959997
 131.9547756  24.2257614  89.7725795  76.0529992  75.7104990   5.5339997
  75.4059992  75.2484990   5.0019997  76.4079992  75.0384990   6.1169997
  76.0123741  75.5564785   5.5399157  76.9229992  73.7904990   7.3389997
  76.5889992  72.9104990   7.5109997  77.1449992  74.1364990   8.2039997
  76.9072565  73.7167410   7.4794263  94.4719992  74.6004990  10.3199997
  94.4499992  74.7854990  11.2579997  95.1619992  75.1684990   9.9789997
  94.5623383  74.7027104  10.4024580  94.0349992  74.1674990  13.2409997
  93.5479992  73.4314990  12.8699997  94.5839992  73.7734990  13.9189997
  94.0426101  74.0136267  13.2819034  92.4859992  69.9574990  17.8789997
  91.6199992  69.8524990  18.2739997  92.8619992  70.7154990  18.3259997
  92.4184940  70.0456141  17.9933958  93.7869992  68.2134990   3.3939997
  94.6369992  68.6344990   3.5209997  93.7919992  67.4734990   4.0009997
  93.9041143  68.1711106   3.4934732  94.1809992  66.2674990   5.2169997
  93.4549992  65.7874990   5.6149997  94.7619992  66.4724990   5.9489997
  94.1602504  66.2295592   5.3704199  93.9399992  69.0524990  10.1649997
  94.7739992  68.6744990   9.8839997  94.0519992  69.9954990  10.0459997
  94.0691917  69.1282954  10.1104844  92.4259992  71.9304990  12.4719997
  91.7789992  72.2554990  13.0969997  91.9089992  71.4894990  11.7979997
  92.2674112  71.9154133  12.4665272  94.4489992  66.1684990   1.6079997
  93.9279992  66.5244990   0.8899997  94.4159992  66.8434990   2.2869997
  94.3730955  66.3085023   1.6012634 118.0979992  22.4964990  88.2359997
 117.8789992  23.0264990  87.4699997 117.4299992  22.7224990  88.8839997
 117.9777271  22.5996508  88.2186206  92.7979992  63.4074990   0.1589997
  92.8949992  64.0744990  -0.5210003  92.6579992  62.5924990  -0.3220003
  92.7923407  63.3885670   0.0008312  91.9679992  64.7884990   5.7799997
  91.8179992  63.8434990   5.7599997  91.6139992  65.0694990   6.6239997
  91.8996351  64.6971656   5.8913202  77.0029992  66.8664990   9.7909997
  77.1869992  66.7844990   8.8549997  77.8519992  66.7424990  10.2139997
  77.1430132  66.8385066   9.7201460  92.8239992  66.7584990  15.4189997
  93.4069992  66.0234990  15.6109997  93.3879992  67.5304990  15.4659997
  92.9799781  66.7623156  15.4516146  94.3209992  64.6614990  16.1039997
  93.4569992  64.2824990  15.9379997  94.9249992  63.9224990  16.0289997
  94.2845394  64.5098378  16.0711778  91.6779992  62.3704990   4.2429997
  91.9579992  61.4634990   4.3669997  92.4369992  62.8044990   3.8539997
  91.8189258  62.3050935   4.2073691  92.2899992  62.9524990   9.6789997
  93.2229992  63.1644990   9.6439997  92.0549992  63.0534990  10.6009997
  92.3859517  62.9951844   9.7989113  92.3189992  63.6894990  12.4549997
  91.4759992  63.9574990  12.8199997  92.7619992  64.5114990  12.2439997
  92.2634035  63.8373351  12.4764770  76.5999992  62.1364990  15.9309997
  77.5199992  62.0144990  16.1679997  76.1509992  61.3864990  16.3209997
  76.6650500  62.0184576  16.0161016  94.6019992  57.6694990  17.8079997
  94.9519992  57.0154990  17.2019997  94.7489992  58.5064990  17.3679997
  94.6697192  57.6932545  17.6656712 125.4669992  31.9964990  81.7799997
 125.1709992  31.6734990  80.9289997 125.1429992  32.8964990  81.8219997
 125.3826501  32.0739058  81.6690893  92.2919992  59.6334990   4.2909997
  92.4739992  59.1844990   5.1159997  91.6919992  59.0494990   3.8269997
  92.2358187  59.4930563   4.3412721  77.8219992  60.4494990   8.8229997
  78.2669992  59.6574990   9.1249997  78.2879992  61.1654990   9.2529997
  77.9459718  60.4379546   8.9225247  76.1259992  63.4484990   9.8919997
  76.6179992  63.2274990   9.1009997  76.4879992  64.2884990  10.1729997
  76.2422923  63.5318480   9.8217389  94.1219992  59.7784990  16.1569997
  93.2049992  60.0494990  16.1209997  94.2449992  59.2434990  15.3729997
  94.0130828  59.7432711  16.0460767  94.1579992  59.7014990   0.8189997
  94.5709992  58.9804990   0.3439997  94.8399992  60.3704990   0.8769997
  94.3066060  59.6933741   0.7619233  76.4389992  59.7064990   3.9459997
  75.5139992  59.9144990   3.8169997  76.8929992  60.1904990   3.2559997
  76.3736298  59.8004311   3.8350433  91.2099992  74.6904990   5.8919997
  91.8619992  74.3424990   5.2839997  91.7209992  75.1784990   6.5379997
  91.3682872  74.7088248   5.8960964  76.4029992  58.4444990  12.2899997
  75.7379992  58.1984990  12.9329997  75.9599992  59.0664990  11.7129997
  76.2521168  58.4949225  12.2999830  78.5949992  71.6194990  16.4349997
  77.7739992  71.7944990  15.9739997  78.3429992  71.5464990  17.3549997
  78.4485594  71.6335728  16.4963593  81.5489992  72.5934990  12.6929997
  81.1239992  73.4034990  12.4109997  82.4529992  72.6794990  12.3909997
  81.6130706  72.7159557  12.6135836 120.6669992  30.1714990  88.5239997
 119.9269992  30.7704990  88.6269997 121.3809992  30.7254990  88.2079997
 120.6623288  30.3282368  88.4953787  85.8599992  73.9924990  15.6529997
  86.0449992  73.6594990  16.5309997  86.7069992  74.3024990  15.3309997
  85.9997291  73.9888214  15.7296140  88.2049992  75.2784990  14.8969997
  88.8819992  74.6454990  14.6569997  88.5269992  75.6794990  15.7039997
  88.3411618  75.2461147  14.9732802  93.1229992  57.8684990  13.9759997
  92.3099992  58.1934990  13.5889997  93.3559992  57.1074990  13.4429997
  93.0431347  57.8101891  13.8509824  78.9509992  75.8504990  12.7409997
  78.2299992  76.2904990  12.2899997  78.5849992  75.5994990  13.5889997
  78.8029632  75.8767235  12.7939649  81.4179992  75.4504990  11.7699997
  80.5529992  75.5224990  12.1739997  81.3629992  75.9974990  10.9869997
  81.2922289  75.5343242  11.7193749  86.1289992  75.3384990  10.9459997
  85.6719992  75.8674990  10.2919997  86.2909992  75.9414990  11.6709997
  86.0883919  75.4923990  10.9545740  88.4559992  74.2164990  11.8909997
  87.5519992  74.3814990  11.6249997  88.8849992  75.0694990  11.8249997
  88.3902017  74.3544184  11.8456495  91.0599992  75.7864990  12.1859997
  90.8789992  76.7024990  11.9749997  91.2369992  75.3754990  11.3389997
  91.0591377  75.8563365  12.0427178  78.3659992  74.4734990   9.6509997
  78.3469992  74.0474990  10.5079997  79.1699992  74.1544990   9.2419997
  78.4721393  74.3720297   9.7130155  80.5069992  73.1834990   8.3059997
  80.2879992  72.2664990   8.4759997  81.3309992  73.3234990   8.7719997
  80.5884702  73.0770523   8.3922510 128.7739992  23.0004990  84.5439997
 128.5589992  22.2344990  85.0759997 129.4299992  23.4724990  85.0569997
 128.8332451  22.9594472  84.6861699  83.0439992  73.6534990   9.1549997
  83.2569992  72.7654990   8.8679997  83.1089992  73.6184990  10.1089997
  83.0819149  73.5273338   9.2447351  86.5529992  59.3174990   8.2989997
  85.8779992  58.6874990   8.5549997  87.1169992  58.8334990   7.6959997
  86.5369363  59.1658886   8.2524810  91.6949992  57.4244990   8.4119997
  92.2989992  57.9724990   7.9099997  90.8259992  57.7434990   8.1709997
  91.6600419  57.5425628   8.3107741  93.4219992  58.5634990   6.7449997
  94.0339992  58.0494990   6.2179997  93.8049992  59.4404990   6.7679997
  93.5573867  58.6117613   6.6760888  78.8789992  57.9514990   6.1209997
  78.1019992  57.7164990   5.6139997  79.4099992  57.1544990   6.1299997
  78.8443735  57.8116462   6.0528090  77.7159992  57.7494990   1.9249997
  78.1549992  58.3604990   1.3329997  77.0819992  58.2874990   2.3989997
  77.6903859  57.9059076   1.9080287  83.4589992  57.8774990   5.9339997
  84.3329992  58.2664990   5.9049997  83.3229992  57.6624990   6.8569997
  83.5601953  57.9016654   6.0547599  89.0149992  57.9074990   7.5839997
  89.0919992  58.0034990   6.6339997  88.7399992  57.0004990   7.7119997
  88.9883233  57.7979093   7.4713665  90.3689992  57.9334990   3.2759997
  89.6659992  58.5484990   3.0659997  89.9239992  57.0964990   3.4069997
  90.2126550  57.9044679   3.2649819  77.6169992  73.6974990   2.8219997
  76.9319992  73.6594990   2.1549997  77.6199992  74.6094990   3.1099997
  77.5236806  73.8156669   2.7696961 117.6919992  24.3884990  86.1889997
 118.3049992  25.0214990  86.5619997 118.2039992  23.9164990  85.5319997
 117.8451680  24.4114006  86.1512830  79.5769992  59.6654990   0.3669997
  80.0679992  59.0354990  -0.1600003  80.1999992  59.9614990   1.0299997
  79.7285304  59.6192387   0.3844922  84.6029992  59.9584990   2.8239997
  84.7809992  59.3114990   3.5069997  84.5489992  60.7924990   3.2909997
  84.6200678  59.9826615   2.9806283  86.4809992  74.9064990   1.2199997
  87.3469992  75.2734990   1.0419997  86.2339992  74.4674990   0.4059997
  86.5661853  74.8974021   1.0855813  93.1899992  74.4694990   3.8989997
  92.9959992  73.7214990   3.3339997  93.1509992  75.2274990   3.3159997
  93.1581645  74.4695797   3.7428131  78.8369992  58.4654990  15.6389997
  78.4709992  57.6994990  16.0809997  79.7499992  58.4944990  15.9249997
  78.9103172  58.3645335  15.7381872  80.8099992  57.8154990  17.1739997
  81.7089992  57.5414990  16.9899997  80.4239992  57.0734990  17.6389997
  80.8807307  57.6777207  17.2117080  79.4349992  74.6174990  -0.1530003
  79.1669992  74.9034990   0.7209997  80.2059992  74.0714990  -0.0000003
  79.5025926  74.5827790  -0.0128812  89.2309992  57.1484990  17.3569997
  89.3079992  56.7224990  18.2099997  90.1249992  57.1614990  17.0139997
  89.3623263  57.0919345  17.4274366  92.4079992  73.2204990  16.0489997
  91.6259992  73.0344990  15.5289997  92.3359992  74.1504990  16.2659997
  92.2912975  73.3206973  16.0071822 106.8139992  67.1074990   6.0799997
 106.9029992  68.0514990   5.9469997 106.1749992  66.8324990   5.4219997
 106.7398378  67.1993846   5.9729258 119.0739992  32.1364990  89.3109997
 119.0689992  33.0154990  88.9329997 118.2209992  32.0524990  89.7359997
 118.9579199  32.2455901  89.3166942 105.7469992  66.3624990   9.4989997
 105.7079992  65.7164990  10.2039997 105.4239992  65.8954990   8.7269997
 105.6980469  66.2110005   9.4912803  98.1149992  65.9764990  11.0919997
  98.1559992  65.3514990  11.8149997  98.8179992  66.6004990  11.2739997
  98.2156223  65.9752318  11.2156164 109.4529992  69.3014990   7.7999997
 109.0119992  68.5814990   8.2509997 109.4399992  70.0224990   8.4299997
 109.3909215  69.3004303   7.9468088  99.0389992  70.4264990   9.6269997
  98.6689992  69.6244990   9.2569997  99.9799992  70.2584990   9.6729997
  99.1155984  70.2939649   9.5825586  95.6489992  64.0864990   5.0189997
  95.2009992  64.9324990   5.0009997  95.0879992  63.5074990   4.5039997
  95.5118546  64.1239004   4.9468874  96.3589992  66.2484990   7.1449997
  96.5729992  65.4784990   7.6719997  97.0969992  66.3384990   6.5419997
  96.4880073  66.1553546   7.1355786 106.5639992  74.4054990   8.0119997
 107.1839992  73.7294990   7.7389997 106.3559992  74.1874990   8.9209997
 106.6207679  74.2835032   8.0974518 104.1359992  68.7944990   9.9049997
 104.4399992  68.1084990   9.3099997 104.8579992  68.9134990  10.5229997
 104.2751240  68.7167325   9.9070941 112.7989992  60.3964990  10.7649997
 112.8479992  61.0064990  11.5009997 113.2249992  60.8574990  10.0419997
 112.8632851  60.5423266  10.7680532 107.2769992  63.1884990  10.2319997
 107.4189992  62.2424990  10.2519997 107.1709992  63.3954990   9.3039997
 107.2821051  63.0869706  10.1092249 115.1959992  31.8074990  80.0929997
 114.9239992  32.0364990  79.2039997 115.2409992  32.6444990  80.5529997
 115.1648709  31.9521069  80.0336089 100.4319992  61.2904990   7.5049997
 100.4749992  62.1504990   7.0859997  99.9739992  60.7374990   6.8709997
 100.3760163  61.3334174   7.3620604 108.1539992  61.4214990   5.9049997
 108.7999992  61.0924990   6.5299997 108.6639992  61.9384990   5.2829997
 108.3114289  61.4464333   5.9063681  97.0519992  63.6874990   8.2669997
  97.7059992  63.1374990   8.6989997  97.0759992  63.4134990   7.3499997
  97.1447199  63.5752178   8.2021650 102.2079992  65.2374990   7.4819997
 102.8239992  64.7104990   7.9909997 101.6219992  64.5974990   7.0779997
 102.2130652  65.0788919   7.4970277 113.1909992  61.8744990  13.0009997
 112.5019992  62.5324990  12.9059997 113.2059992  61.6764990  13.9379997
 113.0987756  61.9377614  13.1145795  99.2419992  60.2084990  11.5789997
  99.0229992  60.7384990  10.8119997  98.5739992  60.4344990  12.2259997
  99.1216975  60.3115979  11.5615123 106.6109992  69.7084990   5.1229997
 106.3149992  69.3854990   4.2709997 106.2869992  70.6084990   5.1639997
 106.5267458  69.7859678   5.0120598 101.8109992  67.8834990  11.8659997
 101.0709992  68.4824990  11.9699997 102.5249992  68.4374990  11.5499997
 101.8063146  68.0402611  11.8375150 109.9179992  60.7124990   7.8859997
 109.7029992  59.9464990   8.4189997 110.5739992  61.1844990   8.3989997
 109.9772673  60.6715739   8.0281972  98.8359992  62.1004990   9.5309997
  99.4489992  62.7334990   9.9039997  99.3479992  61.6284990   8.8749997
  98.9891933  62.1233380   9.4933477 128.8209992  33.4284990  86.8059997
 127.8789992  33.4874990  86.9669997 129.0969992  34.3344990  86.6689997
 128.7295771  33.5590270  86.8094827 100.2179992  69.8484990  12.6529997
 100.2129992  70.7274990  12.2749997  99.3649992  69.7644990  13.0779997
 100.1019199  69.9575901  12.6586942  96.3399992  69.5194990   3.4349997
  96.0679992  69.7484990   2.5459997  96.3849992  70.3564990   3.8959997
  96.3088360  69.6641034   3.3756186 109.9649992  71.1404990  10.1479997
 109.0229992  71.1994990  10.3099997 110.2409992  72.0464990  10.0109997
 109.8735865  71.2710299  10.1516174 110.2649992  59.4274990  11.5649997
 109.5289992  60.0374990  11.5279997 110.9489992  59.8424990  11.0389997
 110.2565367  59.5672562  11.4888156 103.2679992  57.5134990   9.0309997
 103.1509992  56.5654990   8.9769997 102.4129992  57.8464990   9.3039997
 103.1363691  57.4285842   9.0605072 108.2169992  72.9214990   6.7729997
 108.6419992  72.2144990   6.2879997 108.5339992  73.7234990   6.3559997
 108.3180266  72.9330201   6.6502461 109.3759992  70.8224990   5.2819997
 109.1189992  70.1324990   4.6699997 109.4469992  70.3794990   6.1269997
 109.3504322  70.6681568   5.3125372 111.0619992  69.3894990  13.7589997
 111.2019992  68.7974990  13.0199997 111.2299992  70.2624990  13.4029997
 111.1038734  69.4264041  13.6096937 105.5349992  66.3514990   3.5319997
 104.8229992  66.8864990   3.1799997 106.2259992  66.4064990   2.8719997
 105.5309704  66.4321663   3.3945797 105.5889992  64.8084990   0.5699997
 106.2899992  64.8314990   1.2219997 105.8909992  64.1804990  -0.0860003
 105.7258202  64.7267223   0.5705591 129.1209992  21.7154990  88.2229997
 128.3849992  22.3254990  88.1849997 129.8049992  22.1304990  87.6969997
 129.1125885  21.8551924  88.1466931 112.9039992  65.7294990  11.8249997
 112.2519992  66.4234990  11.9139997 113.3689992  65.9394990  11.0149997
 112.8775357  65.8529544  11.7277056 108.9409992  66.5604990   4.4829997
 108.2089992  66.7894990   5.0559997 109.3879992  65.8474990   4.9379997
 108.9012753  66.4953984   4.6229698 108.8379992  64.7354990  13.5509997
 108.9179992  65.4984990  14.1229997 108.2369992  65.0144990  12.8609997
 108.7676547  64.8777468  13.5360029 100.5859992  67.1914990   6.3659997
 100.2559992  66.8204990   5.5479997 101.1739992  66.5204990   6.7129997
 100.6203182  67.0500648   6.3009898 101.9529992  70.6194990   9.0469997
 101.8579992  70.0404990   8.2909997 102.6819992  70.2484990   9.5429997
 102.0386011  70.4900572   9.0106011 100.9529992  65.9594990   9.9989997
 101.5179992  66.0814990   9.2369997 101.2709992  66.5974990  10.6379997
 101.0733619  66.0624388   9.9810019 107.2619992  71.4634990  10.7329997
 107.0209992  72.1254990  11.3809997 107.0639992  70.6284990  11.1579997
 107.2022662  71.4412704  10.8791008 101.8329992  70.3594990  14.7169997
 101.5209992  71.1414990  15.1719997 101.1829992  70.2064990  14.0309997
 101.7024858  70.4457882  14.6865344 107.8119992  65.7234990   2.1689997
 108.3909992  65.8734990   2.9149997 108.2259992  66.1934990   1.4449997
 107.9473358  65.8075966   2.1733935  98.7529992  66.5574990  13.9449997
  98.8229992  67.2084990  14.6439997  97.8619992  66.6604990  13.6099997
  98.6421690  66.6604261  13.9953026 122.1239992  19.8014990  85.6889997
 122.0069992  18.8534990  85.6349997 121.2689992  20.1344990  85.9619997
 121.9923691  19.7165842  85.7185072 105.5379992  72.4594990   5.6039997
 106.0119992  72.7554990   6.3809997 104.9749992  73.1984990   5.3709997
 105.5267890  72.5998047   5.6788084 100.0719992  72.4304990  15.4799997
 100.0799992  72.2944990  14.5329997  99.1559992  72.3134990  15.7319997
  99.9492528  72.3960475  15.3843226 111.5099992  57.4734990   1.9809997
 110.6099992  57.6114990   2.2769997 111.7619992  58.3044990   1.5799997
 111.4207727  57.6048705   1.9672935  99.5759992  66.2604990   3.9549997
  99.2839992  67.0284990   3.4639997  98.9019992  65.6014990   3.7919997
  99.4448843  66.2764537   3.8657695 112.6999992  71.8394990   0.3579997
 112.7729992  72.7784990   0.5279997 113.6049992  71.5344990   0.3019997
 112.8324170  71.9268294   0.3737045  95.6689992  68.6234990  12.7699997
  95.1679992  68.5954990  11.9549997  95.6749992  67.7184990  13.0799997
  95.6011690  68.4972234  12.7002770  95.4199992  71.4044990   9.6539997
  96.3659992  71.2594990   9.6349997  95.3069992  72.1884990  10.1909997
  95.5343578  71.4906708   9.7240300 113.6169992  72.0704990  15.3369997
 113.5679992  71.1144990  15.2989997 112.7909992  72.3374990  15.7379997
 113.4985096  71.9758416  15.3860698 104.5959992  71.6444990  14.2129997
 104.6829992  72.4704990  14.6879997 103.7319992  71.3144990  14.4619997
 104.4911944  71.7129871  14.3116558 105.0099992  75.4164990   4.0189997
 104.9349992  75.2954990   3.0719997 105.0429992  76.3654990   4.1369997
 105.0042083  75.5282639   3.9054973 127.0729992  35.2094990  83.4309997
 127.4979992  34.5024990  82.9459997 127.3899992  36.0114990  83.0139997
 127.1740266  35.2210201  83.3082461  98.6639992  74.2054990   5.7999997
  98.8159992  73.8574990   6.6779997  97.8129992  73.8484990   5.5439997
  98.5698344  74.1095891   5.8856851 108.1119992  74.5704990   1.0209997
 108.4869992  73.8264990   0.5499997 108.1159992  74.3004990   1.9389997
 108.1638969  74.4320920   1.0806475 107.7809992  74.4964990   3.7699997
 106.8459992  74.5964990   3.9489997 108.0609992  73.7864990   4.3489997
 107.6909471  74.4142944   3.8726678 110.7689992  63.5634990  15.8169997
 110.3619992  64.0434990  15.0959997 110.8099992  62.6574990  15.5089997
 110.7188403  63.5067989  15.6767253  97.9179992  69.9474990  13.8129997
  98.1339992  69.5854990  14.6729997  97.0629992  69.5724990  13.6039997
  97.8319082  69.8473377  13.9022396 100.5369992  58.4174990   9.8089997
  99.6749992  58.3304990   9.4009997 100.5149992  59.2734990  10.2369997
 100.4160557  58.5213078   9.8110202 105.1999992  58.1394990  13.1839997
 105.6199992  57.7244990  13.9369997 104.2669992  57.9604990  13.3009997
 105.1313736  58.0584921  13.3028950 108.5259992  61.8944990  14.0369997
 108.0119992  61.7694990  14.8349997 108.3709992  62.8074990  13.7929997
 108.4347802  62.0007433  14.1131504 109.2889992  66.7554990  -0.2020003
 109.3309992  66.5334990  -1.1320003 110.1379992  67.1544990  -0.0120003
 109.4095253  66.7790510  -0.3036196 104.8619992  60.6314990   0.4689997
 104.6079992  60.6504990   1.3909997 104.6049992  59.7604990   0.1669997
 104.7924508  60.5163292   0.5544786 128.2319992  33.1104990  81.9399997
 127.9749992  32.4204990  81.3279997 128.3029992  32.6674990  82.7849997
 128.2064322  32.9561568  81.9705372 100.6279992  63.3824990  10.9039997
  99.9859992  63.3424990  11.6129997 100.6649992  64.3094990  10.6659997
 100.5451659  63.5022540  10.9688463 100.6249992  63.6034990   5.8159997
  99.7319992  63.2634990   5.7569997 101.0759992  63.2264990   5.0599997
 100.5637185  63.5060220   5.7057698 106.1609992  64.0194990   4.6329997
 105.7519992  64.8344990   4.3409997 106.8809992  63.8794990   4.0189997
 106.2024439  64.1120383   4.5100098 105.2629992  64.1954990  16.1209997
 104.6999992  63.4904990  16.4419997 106.0889992  64.0744990  16.5889997
 105.2976674  64.0827176  16.2281734 107.1649992  63.4654990   7.4469997
 106.9699992  64.0714990   6.7319997 107.3469992  62.6324990   7.0129997
 107.1629195  63.4357936   7.2904079  98.3779992  63.7034990  12.7709997
  98.3399992  64.1034990  13.6399997  97.8869992  62.8864990  12.8609997
  98.3064374  63.6478228  12.9020980 101.7439992  61.0774990  -0.4300003
 101.3129992  60.6324990   0.2989997 101.0259992  61.4484990  -0.9430003
 101.5879176  61.0667063  -0.3995087  94.9859992  60.8194990   6.6219997
  95.6169992  60.7904990   7.3409997  95.4359992  60.3944990   5.8909997
  95.1331082  60.7581269   6.6216307  96.2599992  61.5654990   2.0459997
  96.7349992  62.1564990   1.4609997  95.5429992  62.0954990   2.3929997
  96.2280406  61.7181011   2.0128495 106.4289992  65.1034990  12.1179997
 106.7529992  64.4724990  11.4749997 105.9889992  64.5694990  12.7789997
 106.4138707  64.9448261  12.1193195 129.9179992  31.6774990  90.4169997
 130.0579992  31.0854990  89.6779997 130.0859992  32.5504990  90.0609997
 129.9598734  31.7144041  90.2676937 103.2069992  61.0314990   6.9019997
 102.2959992  61.0884990   7.1909997 103.7119992  60.9714990   7.7129997
 103.1506873  61.0311838   7.0511190  98.0349992  62.6604990   5.7289997
  97.1459992  62.7594990   5.3889997  98.3309992  61.8184990   5.3829997
  97.9534001  62.5602473   5.6357318 101.6879992  62.6604990   3.3859997
 102.6199992  62.7894990   3.5639997 101.4729992  63.3294990   2.7359997
 101.7864472  62.7685817   3.3224873 107.6119992  60.2664990  10.1659997
 106.9349992  60.3974990  10.8299997 107.1259992  60.1114990   9.3559997
 107.4537265  60.2634665  10.1473380 100.3619992  63.8544990   0.9519997
  99.8199992  63.4754990   0.2609997 101.1959992  64.0494990   0.5239997
 100.4004390  63.8289091   0.7994374 110.8989992  75.9374990  16.4429997
 111.0989992  76.3614990  15.6089997 111.5549992  76.2814990  17.0499997
 111.0149937  76.0419993  16.4108645  98.4969992  68.4114990  16.0509997
  99.2289992  68.6664990  16.6129997  97.7169992  68.6164990  16.5669997
  98.4916526  68.4740438  16.1975168 104.5269992  63.8184990   8.7889997
 105.0909992  63.2724990   8.2419997 104.3789992  63.2974990   9.5779997
 104.5843037  63.6731798   8.8207212  99.5289992  59.9554990   5.2079997
  99.2109992  59.0524990   5.1719997 100.3099992  59.9574990   4.6549997
  99.5911079  59.8322240   5.1282908 103.1529992  62.2074990  11.2029997
 102.3179992  62.6614990  11.3139997 103.6769992  62.4834990  11.9549997
 103.1096072  62.3068960  11.3198118 124.3909992  28.6394990  80.1889997
 123.6789992  29.1744990  79.8379997 125.0819992  28.6944990  79.5289997
 124.3868696  28.7202591  80.0516372 103.6969992  68.4204990   2.8879997
 102.9519992  67.9124990   2.5659997 103.5629992  68.4694990   3.8339997
 103.5769334  68.3576144   2.9718892 110.8469992  67.5534990  11.6749997
 111.4889992  68.0094990  11.1309997 110.0169992  67.6664990  11.2119997
 110.8226536  67.6311813  11.5379579 107.5949992  61.2344990   1.0869997
 106.6559992  61.3454990   0.9359997 107.8919992  62.0904990   1.3939997
 107.5066136  61.3654977   1.1078568 105.2169992  68.6044990  14.1249997
 104.8709992  68.2224990  14.9319997 105.0169992  69.5374990  14.1959997
 105.1425987  68.6784013  14.2450443 108.3129992  63.1014990   2.7479997
 109.2049992  62.9634990   3.0669997 108.3699992  63.8924990   2.2109997
 108.4427380  63.1894777   2.7190981  98.8219992  67.7154990   8.6579997
  99.5669992  67.7124990   8.0559997  98.8999992  66.8914990   9.1389997
  98.9343365  67.6037395   8.6407412 105.8229992  69.8784990   1.9129997
 105.5279992  70.7054990   2.2949997 105.1199992  69.2594990   2.1099997
 105.6876379  69.9079182   1.9918636  95.8299992  66.1754990  13.9729997
  96.0529992  65.7574990  14.8039997  95.2279992  65.5634990  13.5499997
  95.7791513  66.0354617  14.0296722 102.8469992  65.6924990  16.1859997
 102.5509992  65.5274990  15.2899997 103.7779992  65.4724990  16.1749997
 102.9324401  65.6401891  16.0620189 107.4669992  71.0664990  14.0749997
 106.5659992  71.2494990  13.8079997 107.5009992  71.3254990  14.9959997
 107.3483861  71.1265245  14.1629517 131.7599992  28.0174990  88.4829997
 131.1079992  28.7114990  88.5719997 132.2249992  28.2274990  87.6729997
 131.7335357  28.1409544  88.3857056 113.1979992  63.3104990   2.4429997
 112.6439992  62.9144990   1.7699997 113.2989992  64.2214990   2.1649997
 113.1358589  63.3793904   2.3133839 113.1609992  69.1114990  15.2799997
 112.3099992  69.3494990  14.9119997 113.7519992  69.0944990  14.5259997
 113.1243831  69.1417623  15.1278448 111.4929992  72.0964990   2.9079997
 111.1209992  71.2714990   3.2169997 111.7709992  71.9134990   2.0099997
 111.4795807  71.9587031   2.8290063 108.6539992  66.9044990   9.9289997
 107.7259992  66.6734990   9.9019997 109.1049992  66.1274990   9.5989997
 108.5878165  66.7677785   9.8806772 101.1969992  71.2334990   6.0619997
 101.7239992  72.0064990   5.8619997 100.3169992  71.4574990   5.7599997
 101.1502121  71.3697344   5.9937460  96.9519992  66.0954990   0.6489997
  97.5679992  66.7224990   1.0289997  96.0899992  66.4114990   0.9209997
  96.9197678  66.2239423   0.7377192 102.6239992  68.8964990   5.6379997
 102.3829992  69.8214990   5.6799997 101.8839992  68.4374990   6.0349997
 102.4909463  68.9610969   5.6974279 103.1389992  73.0454990  11.9529997
 103.5019992  73.8994990  11.7199997 103.6709992  72.7534990  12.6939997
 103.2605141  73.1228907  12.0212079 101.3069992  73.9174990   5.1839997
 100.3579992  74.0234990   5.2349997 101.6589992  74.7384990   5.5279997
 101.2245647  74.0430029   5.2374882 106.6829992  69.1444990  11.6539997
 106.2569992  68.9164990  12.4799997 107.2639992  68.4054990  11.4719997
 106.7032088  69.0134393  11.7424454 127.7969992  28.8484990  81.1409997
 127.0649992  29.0774990  81.7139997 128.2439992  28.1354990  81.5959997
 127.7572753  28.7833984  81.2809698 108.8859992  70.0734990   0.7279997
 109.2389992  69.6934990   1.5319997 107.9369992  69.9794990   0.8149997
 108.8060956  70.0087867   0.8498005 109.3419992  73.6964990  14.1229997
 108.7399992  73.1404990  13.6279997 109.6229992  74.3634990  13.4969997
 109.2975757  73.7105755  13.9705657 113.3889992  74.5524990   0.9289997
 114.1329992  75.1384990   0.7889997 112.6949992  75.1214990   1.2619997
 113.3969809  74.7095830   0.9548572  97.4639992  60.9294990  13.5309997
  96.5709992  61.2674990  13.4629997  97.3649992  60.0734990  13.9489997
  97.3284752  60.8600986  13.5781644 109.7519992  68.7454990   2.9549997
 109.4749992  68.0174990   3.5109997 110.6789992  68.8644990   3.1599997
 109.8394419  68.6619436   3.0588264  97.1149992  72.7334990  11.9659997
  97.3319992  71.8014990  11.9349997  97.3619992  73.0084990  12.8489997
  97.1780948  72.6430976  12.0811268 101.9139992  70.7554990   1.6309997
 102.0609992  70.2354990   2.4209997 101.9109992  71.6624990   1.9379997
 101.9337102  70.8068964   1.7805907  98.3669992  68.0074990   2.1419997
  97.6809992  68.3604990   2.7089997  98.8899992  68.7704990   1.8949997
  98.3438402  68.1588912   2.1861783 106.1979992  60.6704990  12.4209997
 106.8969992  60.7444990  13.0709997 105.8179992  59.8054990  12.5749997
 106.2422662  60.5637050  12.5307412 106.9829992  60.3224990   3.5179997
 107.2029992  60.7934990   2.7139997 107.5409992  60.7164990   4.1879997
 107.0886044  60.4402946   3.4985207 127.6939992  27.0234990  90.2089997
 127.7739992  27.7864990  90.7809997 127.0929992  27.3024990  89.5179997
 127.6237115  27.1657707  90.1939631 104.6519992  72.4524990   2.3809997
 103.8349992  72.9494990   2.4329997 105.1809992  72.9284990   1.7399997
 104.6118125  72.5847000   2.3015289 104.1829992  62.0504990   4.3529997
 104.9949992  62.5544990   4.3989997 103.9379992  61.9054990   5.2669997
 104.2611091  62.0999366   4.4828552 104.7189992  63.0364990  13.5369997
 104.8379992  63.6104990  14.2939997 105.3739992  62.3484990  13.6519997
 104.8238684  63.0220205  13.6561656 105.0669992  59.1314990   5.2909997
 104.7199992  59.7484990   5.9349997 105.7249992  59.6324990   4.8089997
 105.1084430  59.2836860   5.3140045 101.9899992  73.4964990   2.3619997
 102.1509992  74.2964990   1.8619997 101.7929992  73.8034990   3.2469997
 101.9853906  73.6473690   2.4132316 100.7239992  60.1944990   1.9779997
 100.6409992  61.0824990   2.3249997 101.6139992  59.9294990   2.2099997
 100.8329331  60.2801177   2.0568067 110.9229992  60.9434990  14.3719997
 110.0069992  61.2054990  14.2849997 111.2589992  60.9404990  13.4759997
 110.8428499  60.9790174  14.2388748 109.5249992  64.6934990   8.4679997
 108.7279992  64.2784990   8.1399997 109.9699992  64.0034990   8.9589997
 109.4760367  64.5433372   8.4894897  98.9829992  70.6214990   1.0379997
  99.5749992  71.3214990   1.3149997  99.4419992  70.1884990   0.3189997
  99.1261652  70.6587686   0.9786515  97.2989992  63.2864990   0.1539997
  97.2539992  64.2254990   0.3329997  96.4109992  63.0504990  -0.1150003
  97.1728166  63.3831698   0.1421507 119.4419992  29.4794990  83.0239997
 119.1119992  29.1084990  82.2049997 120.0299992  28.8084990  83.3699997
 119.4764056  29.3381257  82.9589035 110.6119992  73.9494990  10.0899997
 110.4559992  74.6284990   9.4329997 111.5439992  74.0214990  10.2929997
 110.7167328  74.0521586  10.0275529  98.1069992  58.0674990   8.8269997
  97.8779992  58.1264990   7.8999997  97.6639992  57.2764990   9.1339997
  98.0157387  57.9686413   8.7415223  97.0369992  72.0084990   4.9879997
  96.2049992  72.4804990   5.0149997  97.5829992  72.5184990   4.3889997
  96.9968710  72.1420317   4.9107570  96.3259992  74.6204990  16.3179997
  96.8659992  74.4044990  17.0779997  95.8439992  73.8154990  16.1279997
  96.3348485  74.4820463  16.3964870 100.9229992  73.5404990  17.9379997
 101.6909992  73.0814990  18.2789997 100.9019992  73.3144990  17.0079997
 101.0252135  73.4471680  17.8589473 105.0149992  73.0484990  -0.6870003
 104.3709992  72.4174990  -0.3650003 105.7769992  72.5174990  -0.9180003
 105.0298708  72.8903171  -0.6741539 107.4999992  71.9204990  16.6669997
 107.1489992  71.0634990  16.9099997 108.2259992  72.0624990  17.2739997
 107.5501590  71.8225189  16.7822889 109.6189992  72.8654990  -0.4530003
 109.9019992  72.0704990  -0.0000003 110.3589992  73.0984990  -1.0140003
 109.7577295  72.7882349  -0.4668531  96.2329992  68.4314990  17.2719997
  96.3769992  67.5294990  16.9859997  95.4599992  68.7174990  16.7849997
  96.1482266  68.3466548  17.1670102 100.5739992  68.7744990  -0.5950003
 100.6379992  67.9804990  -0.0650003 101.2269992  68.6564990  -1.2850003
 100.6710482  68.6497496  -0.6156593 120.8089992  32.9074990  85.7049997
 120.7139992  32.3284990  84.9479997 121.5379992  32.5364990  86.2009997
 120.8946161  32.7780902  85.6685191 102.8879992  68.4004990  16.7049997
 102.5599992  68.6714990  15.8479997 103.0399992  67.4594990  16.6169997
 102.8636412  68.3104058  16.5757804 108.6229992  68.3164990  14.0879997
 109.3679992  68.9054990  13.9689997 107.8649992  68.8984990  14.1509997
 108.6225289  68.4757067  14.0802292  97.0649992  65.6314990  16.6919997
  97.4729992  64.7744990  16.5709997  96.8049992  65.6454990  17.6129997
  97.0857082  65.5160596  16.7999469 101.7229992  66.7474990   1.7109997
 101.2639992  66.2634990   2.3959997 101.9779992  66.0784990   1.0749997
 101.6945997  66.5908491   1.7188734 101.0119992  64.6404990  14.0669997
 100.3939992  65.3144990  14.3469997 101.3559992  64.9614990  13.2329997
 100.9738078  64.7762298  13.9926609 102.7939992  64.9904990  -0.0270003
 102.6139992  64.8354990  -0.9540003 103.7439992  65.0984990   0.0179997
 102.8977804  64.9838821  -0.1478034 106.0319992  67.1114990  17.3439997
 106.9849992  67.1954990  17.3169997 105.8719992  66.3994990  17.9629997
 106.1407320  67.0267292  17.4239933 112.1839992  67.3444990  -0.5810003
 111.9109992  66.9204990  -1.3940003 112.2239992  68.2764990  -0.7980003
 112.1520201  67.4123523  -0.7216452 101.3519992  61.9954990  15.1489997
 101.5019992  61.2664990  14.5469997 101.3539992  62.7724990  14.5899997
 101.3727967  62.0007720  14.9910523 101.7639992  60.3644990  12.6419997
 102.2999992  60.8164990  11.9899997 100.9119992  60.2564990  12.2189997
 101.7221795  60.4117444  12.4956211 119.8089992  28.2474990  86.6569997
 120.3739992  28.3694990  85.8939997 120.1269992  28.8854990  87.2959997
 119.9293430  28.3504448  86.6389094 103.3459992  65.8044990  12.8809997
 104.0969992  65.6484990  12.3079997 103.0069992  66.6564990  12.6059997
 103.4029587  65.8983149  12.7654060 107.7619992  63.6194990  17.9099997
 107.9539992  62.6884990  17.7979997 108.6189992  64.0444990  17.8989997
 107.9042176  63.5495090  17.8931757 109.0779992  66.4084990  15.9869997
 108.7969992  67.1174990  15.4089997 110.0209992  66.3354990  15.8359997
 109.1669272  66.4956704  15.8874976  99.8299992  63.1934990  17.0599997
  99.0629992  62.6604990  16.8499997 100.5089992  62.8834990  16.4609997
  99.8168292  63.0786360  16.9502693 102.5699992  57.8214990  13.0729997
 102.4719992  58.7674990  12.9679997 101.8269992  57.4484990  12.5969997
 102.4562123  57.9006811  12.9943204 103.8339992  62.1424990  16.6369997
 103.5979992  61.9234990  17.5379997 103.0509992  61.9354990  16.1269997
 103.6958382  62.0845340  16.6913991 106.5499992  61.2704990  15.7119997
 105.6019992  61.3024990  15.8439997 106.8619992  60.6444990  16.3659997
 106.4625293  61.1902934  15.8184130 108.1839992  59.9044990  17.7169997
 108.0869992  58.9524990  17.7119997 107.8619992  60.1724990  18.5779997
 108.1272468  59.8105896  17.8326192  98.0109992  61.1134990  16.7649997
  98.2219992  60.4074990  16.1549997  97.8989992  60.6764990  17.6089997
  98.0247668  60.9576619  16.7955445 102.7919992  57.1154990  15.7439997
 103.5029992  56.4754990  15.7299997 102.6909992  57.3814990  14.8309997
 102.8756858  57.0638591  15.6185501 126.1179992  33.7514990  87.3909997
 125.8769992  34.4134990  88.0389997 125.9199992  32.9164990  87.8159997
 126.0582662  33.7292704  87.5371008 103.1449992  58.7974990  17.7979997
 103.0139992  58.3224990  16.9779997 102.5459992  59.5424990  17.7429997
 103.0460829  58.8330949  17.6781823 102.6919992  75.6804990   0.9739997
 103.6249992  75.8384990   1.1179997 102.4269992  76.3564990   0.3489997
 102.7839846  75.7934567   0.9092930  96.2599992  70.3174990   0.4569997
  97.1739992  70.3964990   0.7299997  96.2669992  69.6304990  -0.2090003
  96.3860624  70.2354074   0.4043045  94.9089992  75.7104990   5.5339997
  94.2619992  75.2484990   5.0019997  95.2639992  75.0384990   6.1169997
  94.8683741  75.5564785   5.5399157  95.7789992  73.7904990   7.3389997
  95.4449992  72.9104990   7.5109997  96.0009992  74.1364990   8.2039997
  95.7632565  73.7167410   7.4794263 113.3279992  74.6004990  10.3199997
 113.3059992  74.7854990  11.2579997 114.0179992  75.1684990   9.9789997
 113.4183383  74.7027104  10.4024580 112.8909992  74.1674990  13.2409997
 112.4039992  73.4314990  12.8699997 113.4399992  73.7734990  13.9189997
 112.8986101  74.0136267  13.2819034 111.3419992  69.9574990  17.8789997
 110.4759992  69.8524990  18.2739997 111.7179992  70.7154990  18.3259997
 111.2744940  70.0456141  17.9933958 112.6429992  68.2134990   3.3939997
 113.4929992  68.6344990   3.5209997 112.6479992  67.4734990   4.0009997
 112.7601143  68.1711106   3.4934732 113.0369992  66.2674990   5.2169997
 112.3109992  65.7874990   5.6149997 113.6179992  66.4724990   5.9489997
 113.0162504  66.2295592   5.3704199 120.6889992  32.6474990  91.3739997
 120.3769992  33.4294990  91.8299997 120.0389992  32.4944990  90.6879997
 120.5584643  32.7338019  91.3436657 112.7959992  69.0524990  10.1649997
 113.6299992  68.6744990   9.8839997 112.9079992  69.9954990  10.0459997
 112.9251917  69.1282954  10.1104844 111.2819992  71.9304990  12.4719997
 110.6349992  72.2554990  13.0969997 110.7649992  71.4894990  11.7979997
 111.1234112  71.9154133  12.4665272 113.3049992  66.1684990   1.6079997
 112.7839992  66.5244990   0.8899997 113.2719992  66.8434990   2.2869997
 113.2290955  66.3085023   1.6012634 111.6539992  63.4074990   0.1589997
 111.7509992  64.0744990  -0.5210003 111.5139992  62.5924990  -0.3220003
 111.6483407  63.3885670   0.0008312 110.8239992  64.7884990   5.7799997
 110.6739992  63.8434990   5.7599997 110.4699992  65.0694990   6.6239997
 110.7556351  64.6971656   5.8913202  95.8589992  66.8664990   9.7909997
  96.0429992  66.7844990   8.8549997  96.7079992  66.7424990  10.2139997
  95.9990132  66.8385066   9.7201460 111.6799992  66.7584990  15.4189997
 112.2629992  66.0234990  15.6109997 112.2439992  67.5304990  15.4659997
 111.8359781  66.7623156  15.4516146 113.1769992  64.6614990  16.1039997
 112.3129992  64.2824990  15.9379997 113.7809992  63.9224990  16.0289997
 113.1405394  64.5098378  16.0711778 110.5339992  62.3704990   4.2429997
 110.8139992  61.4634990   4.3669997 111.2929992  62.8044990   3.8539997
 110.6749258  62.3050935   4.2073691 111.1459992  62.9524990   9.6789997
 112.0789992  63.1644990   9.6439997 110.9109992  63.0534990  10.6009997
 111.2419517  62.9951844   9.7989113 117.6089992  28.8454990  90.6029997
 117.6789992  29.4964990  91.3009997 116.7179992  28.9484990  90.2679997
 117.4981802  28.9484769  90.6532231 111.1749992  63.6894990  12.4549997
 110.3319992  63.9574990  12.8199997 111.6179992  64.5114990  12.2439997
 111.1194035  63.8373351  12.4764770  95.4559992  62.1364990  15.9309997
  96.3759992  62.0144990  16.1679997  95.0069992  61.3864990  16.3209997
  95.5210500  62.0184576  16.0161016 113.4579992  57.6694990  17.8079997
 113.8079992  57.0154990  17.2019997 113.6049992  58.5064990  17.3679997
 113.5257192  57.6932545  17.6656712 111.1479992  59.6334990   4.2909997
 111.3299992  59.1844990   5.1159997 110.5479992  59.0494990   3.8269997
 111.0918187  59.4930563   4.3412721  96.6779992  60.4494990   8.8229997
  97.1229992  59.6574990   9.1249997  97.1439992  61.1654990   9.2529997
  96.8019718  60.4379546   8.9225247  94.9819992  63.4484990   9.8919997
  95.4739992  63.2274990   9.1009997  95.3439992  64.2884990  10.1729997
  95.0982923  63.5318480   9.8217389 112.9779992  59.7784990  16.1569997
 112.0609992  60.0494990  16.1209997 113.1009992  59.2434990  15.3729997
 112.8690828  59.7432711  16.0460767 113.0139992  59.7014990   0.8189997
 113.4269992  58.9804990   0.3439997 113.6959992  60.3704990   0.8769997
 113.1626060  59.6933741   0.7619233  95.2949992  59.7064990   3.9459997
  94.3699992  59.9144990   3.8169997  95.7489992  60.1904990   3.2559997
  95.2296298  59.8004311   3.8350433 110.0659992  74.6904990   5.8919997
 110.7179992  74.3424990   5.2839997 110.5769992  75.1784990   6.5379997
 110.2242872  74.7088248   5.8960964 124.3939992  34.7474990  82.2619997
 124.8679992  35.0434990  83.0389997 123.8309992  35.4864990  82.0279997
 124.3828460  34.8878336  82.3367626  95.2589992  58.4444990  12.2899997
  94.5939992  58.1984990  12.9329997  94.8159992  59.0664990  11.7129997
  95.1081168  58.4949225  12.2999830  97.4509992  71.6194990  16.4349997
  96.6299992  71.7944990  15.9739997  97.1989992  71.5464990  17.3549997
  97.3045594  71.6335728  16.4963593 100.4049992  72.5934990  12.6929997
  99.9799992  73.4034990  12.4109997 101.3089992  72.6794990  12.3909997
 100.4690706  72.7159557  12.6135836 104.7159992  73.9924990  15.6529997
 104.9009992  73.6594990  16.5309997 105.5629992  74.3024990  15.3309997
 104.8557291  73.9888214  15.7296140 107.0609992  75.2784990  14.8969997
 107.7379992  74.6454990  14.6569997 107.3829992  75.6794990  15.7039997
 107.1971618  75.2461147  14.9732802 111.9789992  57.8684990  13.9759997
 111.1659992  58.1934990  13.5889997 112.2119992  57.1074990  13.4429997
 111.8991347  57.8101891  13.8509824  97.8069992  75.8504990  12.7409997
  97.0859992  76.2904990  12.2899997  97.4409992  75.5994990  13.5889997
  97.6589632  75.8767235  12.7939649 100.2739992  75.4504990  11.7699997
  99.4089992  75.5224990  12.1739997 100.2189992  75.9974990  10.9869997
 100.1482289  75.5343242  11.7193749 104.9849992  75.3384990  10.9459997
 104.5279992  75.8674990  10.2919997 105.1469992  75.9414990  11.6709997
 104.9443919  75.4923990  10.9545740 107.3119992  74.2164990  11.8909997
 106.4079992  74.3814990  11.6249997 107.7409992  75.0694990  11.8249997
 107.2462017  74.3544184  11.8456495 118.9279992  34.7184990  92.1379997
 118.9359992  34.5824990  91.1899997 118.0119992  34.6014990  92.3899997
 118.8052512  34.6840663  92.0423179 109.9159992  75.7864990  12.1859997
 109.7349992  76.7024990  11.9749997 110.0929992  75.3754990  11.3389997
 109.9151377  75.8563365  12.0427178  97.2219992  74.4734990   9.6509997
  97.2029992  74.0474990  10.5079997  98.0259992  74.1544990   9.2419997
  97.3281393  74.3720297   9.7130155  99.3629992  73.1834990   8.3059997
  99.1439992  72.2664990   8.4759997 100.1869992  73.3234990   8.7719997
  99.4444702  73.0770523   8.3922510 101.8999992  73.6534990   9.1549997
 102.1129992  72.7654990   8.8679997 101.9649992  73.6184990  10.1089997
 101.9379149  73.5273338   9.2447351 105.4089992  59.3174990   8.2989997
 104.7339992  58.6874990   8.5549997 105.9729992  58.8334990   7.6959997
 105.3929363  59.1658886   8.2524810 110.5509992  57.4244990   8.4119997
 111.1549992  57.9724990   7.9099997 109.6819992  57.7434990   8.1709997
 110.5160419  57.5425628   8.3107741 112.2779992  58.5634990   6.7449997
 112.8899992  58.0494990   6.2179997 112.6609992  59.4404990   6.7679997
 112.4133867  58.6117613   6.6760888  97.7349992  57.9514990   6.1209997
  96.9579992  57.7164990   5.6139997  98.2659992  57.1544990   6.1299997
  97.7003735  57.8116462   6.0528090  96.5719992  57.7494990   1.9249997
  97.0109992  58.3604990   1.3329997  95.9379992  58.2874990   2.3989997
  96.5463859  57.9059076   1.9080287 102.3149992  57.8774990   5.9339997
 103.1889992  58.2664990   5.9049997 102.1789992  57.6624990   6.8569997
 102.4161953  57.9016654   6.0547599 130.3659992  19.7614990  78.6389997
 129.4659992  19.8994990  78.9339997 130.6179992  20.5924990  78.2369997
 130.2767355  19.8928200  78.6250539 107.8709992  57.9074990   7.5839997
 107.9479992  58.0034990   6.6339997 107.5959992  57.0004990   7.7119997
 107.8443233  57.7979093   7.4713665 109.2249992  57.9334990   3.2759997
 108.5219992  58.5484990   3.0659997 108.7799992  57.0964990   3.4069997
 109.0686550  57.9044679   3.2649819  96.4729992  73.6974990   2.8219997
  95.7879992  73.6594990   2.1549997  96.4759992  74.6094990   3.1099997
  96.3796806  73.8156669   2.7696961  98.4329992  59.6654990   0.3669997
  98.9239992  59.0354990  -0.1600003  99.0559992  59.9614990   1.0299997
  98.5845304  59.6192387   0.3844922 103.4589992  59.9584990   2.8239997
 103.6369992  59.3114990   3.5069997 103.4049992  60.7924990   3.2909997
 103.4760678  59.9826615   2.9806283 105.3369992  74.9064990   1.2199997
 106.2029992  75.2734990   1.0419997 105.0899992  74.4674990   0.4059997
 105.4221853  74.8974021   1.0855813 112.0459992  74.4694990   3.8989997
 111.8519992  73.7214990   3.3339997 112.0069992  75.2274990   3.3159997
 112.0141645  74.4695797   3.7428131  97.6929992  58.4654990  15.6389997
  97.3269992  57.6994990  16.0809997  98.6059992  58.4944990  15.9249997
  97.7663172  58.3645335  15.7381872  99.6659992  57.8154990  17.1739997
 100.5649992  57.5414990  16.9899997  99.2799992  57.0734990  17.6389997
  99.7367307  57.6777207  17.2117080  98.2909992  74.6174990  -0.1530003
  98.0229992  74.9034990   0.7209997  99.0619992  74.0714990  -0.0000003
  98.3585927  74.5827790  -0.0128812 118.4319992  28.5484990  80.6129997
 118.1399992  29.3164990  80.1219997 117.7579992  27.8894990  80.4499997
 118.3008843  28.5644537  80.5237695 108.0869992  57.1484990  17.3569997
 108.1639992  56.7224990  18.2099997 108.9809992  57.1614990  17.0139997
 108.2183263  57.0919345  17.4274366 111.2639992  73.2204990  16.0489997
 110.4819992  73.0344990  15.5289997 111.1919992  74.1504990  16.2659997
 111.1472975  73.3206973  16.0071822 125.6699992  67.1074990   6.0799997
 125.7589992  68.0514990   5.9469997 125.0309992  66.8324990   5.4219997
 125.5958378  67.1993846   5.9729258 124.6029992  66.3624990   9.4989997
 124.5639992  65.7164990  10.2039997 124.2799992  65.8954990   8.7269997
 124.5540469  66.2110005   9.4912803 116.9709992  65.9764990  11.0919997
 117.0119992  65.3514990  11.8149997 117.6739992  66.6004990  11.2739997
 117.0716223  65.9752318  11.2156164 128.3089992  69.3014990   7.7999997
 127.8679992  68.5814990   8.2509997 128.2959992  70.0224990   8.4299997
 128.2469215  69.3004303   7.9468088 117.8949992  70.4264990   9.6269997
 117.5249992  69.6244990   9.2569997 118.8359992  70.2584990   9.6729997
 117.9715984  70.2939649   9.5825586 114.5049992  64.0864990   5.0189997
 114.0569992  64.9324990   5.0009997 113.9439992  63.5074990   4.5039997
 114.3678546  64.1239004   4.9468874 115.2149992  66.2484990   7.1449997
 115.4289992  65.4784990   7.6719997 115.9529992  66.3384990   6.5419997
 115.3440073  66.1553546   7.1355786 125.4199992  74.4054990   8.0119997
 126.0399992  73.7294990   7.7389997 125.2119992  74.1874990   8.9209997
 125.4767679  74.2835032   8.0974518 131.5559992  34.1274990  77.0159997
 131.6289992  35.0664990  77.1859997 132.4609992  33.8224990  76.9589997
 131.6884168  34.2148531  77.0315736 122.9919992  68.7944990   9.9049997
 123.2959992  68.1084990   9.3099997 123.7139992  68.9134990  10.5229997
 123.1311240  68.7167325   9.9070941 131.6549992  60.3964990  10.7649997
 131.7039992  61.0064990  11.5009997 132.0809992  60.8574990  10.0419997
 131.7192851  60.5423266  10.7680532 126.1329992  63.1884990  10.2319997
 126.2749992  62.2424990  10.2519997 126.0269992  63.3954990   9.3039997
 126.1381051  63.0869706  10.1092249 119.2879992  61.2904990   7.5049997
 119.3309992  62.1504990   7.0859997 118.8299992  60.7374990   6.8709997
 119.2320163  61.3334174   7.3620604 127.0099992  61.4214990   5.9049997
 127.6559992  61.0924990   6.5299997 127.5199992  61.9384990   5.2829997
 127.1674289  61.4464333   5.9063681 115.9079992  63.6874990   8.2669997
 116.5619992  63.1374990   8.6989997 115.9319992  63.4134990   7.3499997
 116.0007199  63.5752178   8.2021650 121.0639992  65.2374990   7.4819997
 121.6799992  64.7104990   7.9909997 120.4779992  64.5974990   7.0779997
 121.0690652  65.0788919   7.4970277 132.0469992  61.8744990  13.0009997
 131.3579992  62.5324990  12.9059997 132.0619992  61.6764990  13.9379997
 131.9547756  61.9377614  13.1145795 118.0979992  60.2084990  11.5789997
 117.8789992  60.7384990  10.8119997 117.4299992  60.4344990  12.2259997
 117.9776975  60.3115979  11.5615123 125.4669992  69.7084990   5.1229997
 125.1709992  69.3854990   4.2709997 125.1429992  70.6084990   5.1639997
 125.3827458  69.7859678   5.0120598 114.5249992  30.9114990  89.4279997
 114.0239992  30.8834990  88.6129997 114.5309992  30.0064990  89.7379997
 114.4571690  30.7852234  89.3582770 120.6669992  67.8834990  11.8659997
 119.9269992  68.4824990  11.9699997 121.3809992  68.4374990  11.5499997
 120.6623146  68.0402611  11.8375150 128.7739992  60.7124990   7.8859997
 128.5589992  59.9464990   8.4189997 129.4299992  61.1844990   8.3989997
 128.8332673  60.6715739   8.0281972 117.6919992  62.1004990   9.5309997
 118.3049992  62.7334990   9.9039997 118.2039992  61.6284990   8.8749997
 117.8451933  62.1233380   9.4933477 119.0739992  69.8484990  12.6529997
 119.0689992  70.7274990  12.2749997 118.2209992  69.7644990  13.0779997
 118.9579199  69.9575901  12.6586942 115.1959992  69.5194990   3.4349997
 114.9239992  69.7484990   2.5459997 115.2409992  70.3564990   3.8959997
 115.1648360  69.6641034   3.3756186 128.8209992  71.1404990  10.1479997
 127.8789992  71.1994990  10.3099997 129.0969992  72.0464990  10.0109997
 128.7295865  71.2710299  10.1516174 129.1209992  59.4274990  11.5649997
 128.3849992  60.0374990  11.5279997 129.8049992  59.8424990  11.0389997
 129.1125367  59.5672562  11.4888156 122.1239992  57.5134990   9.0309997
 122.0069992  56.5654990   8.9769997 121.2689992  57.8464990   9.3039997
 121.9923691  57.4285842   9.0605072 127.0729992  72.9214990   6.7729997
 127.4979992  72.2144990   6.2879997 127.3899992  73.7234990   6.3559997
 127.1740266  72.9330201   6.6502461 128.2319992  70.8224990   5.2819997
 127.9749992  70.1324990   4.6699997 128.3029992  70.3794990   6.1269997
 128.2064322  70.6681568   5.3125372 114.2759992  33.6924990  86.3119997
 115.2219992  33.5474990  86.2929997 114.1629992  34.4764990  86.8489997
 114.3903578  33.7786708  86.3820300 129.9179992  69.3894990  13.7589997
 130.0579992  68.7974990  13.0199997 130.0859992  70.2624990  13.4029997
 129.9598734  69.4264041  13.6096937 124.3909992  66.3514990   3.5319997
 123.6789992  66.8864990   3.1799997 125.0819992  66.4064990   2.8719997
 124.3869704  66.4321663   3.3945797 124.4449992  64.8084990   0.5699997
 125.1459992  64.8314990   1.2219997 124.7469992  64.1804990  -0.0860003
 124.5818202  64.7267223   0.5705591 131.7599992  65.7294990  11.8249997
 131.1079992  66.4234990  11.9139997 132.2249992  65.9394990  11.0149997
 131.7335357  65.8529544  11.7277056 127.7969992  66.5604990   4.4829997
 127.0649992  66.7894990   5.0559997 128.2439992  65.8474990   4.9379997
 127.7572753  66.4953984   4.6229698 127.6939992  64.7354990  13.5509997
 127.7739992  65.4984990  14.1229997 127.0929992  65.0144990  12.8609997
 127.6236547  64.8777468  13.5360029 119.4419992  67.1914990   6.3659997
 119.1119992  66.8204990   5.5479997 120.0299992  66.5204990   6.7129997
 119.4763182  67.0500648   6.3009898 120.8089992  70.6194990   9.0469997
 120.7139992  70.0404990   8.2909997 121.5379992  70.2484990   9.5429997
 120.8946011  70.4900572   9.0106011 119.8089992  65.9594990   9.9989997
 120.3739992  66.0814990   9.2369997 120.1269992  66.5974990  10.6379997
 119.9293619  66.0624388   9.9810019 126.1179992  71.4634990  10.7329997
 125.8769992  72.1254990  11.3809997 125.9199992  70.6284990  11.1579997
 126.0582662  71.4412704  10.8791008 132.4729992  34.3584990  91.9939997
 132.4239992  33.4024990  91.9569997 131.6469992  34.6254990  92.3959997
 132.3545767  34.2638841  92.0433133 120.6889992  70.3594990  14.7169997
 120.3769992  71.1414990  15.1719997 120.0389992  70.2064990  14.0309997
 120.5584858  70.4457882  14.6865344 126.6679992  65.7234990   2.1689997
 127.2469992  65.8734990   2.9149997 127.0819992  66.1934990   1.4449997
 126.8033358  65.8075966   2.1733935 117.6089992  66.5574990  13.9449997
 117.6789992  67.2084990  14.6439997 116.7179992  66.6604990  13.6099997
 117.4981690  66.6604261  13.9953026 124.3939992  72.4594990   5.6039997
 124.8679992  72.7554990   6.3809997 123.8309992  73.1984990   5.3709997
 124.3827890  72.5998047   5.6788084 118.9279992  72.4304990  15.4799997
 118.9359992  72.2944990  14.5329997 118.0119992  72.3134990  15.7319997
 118.8052528  72.3960475  15.3843226 130.3659992  57.4734990   1.9809997
 129.4659992  57.6114990   2.2769997 130.6179992  58.3044990   1.5799997
 130.2767727  57.6048705   1.9672935 118.4319992  66.2604990   3.9549997
 118.1399992  67.0284990   3.4639997 117.7579992  65.6014990   3.7919997
 118.3008843  66.2764537   3.8657695 131.5559992  71.8394990   0.3579997
 131.6289992  72.7784990   0.5279997 132.4609992  71.5344990   0.3019997
 131.6884170  71.9268294   0.3737045 114.5249992  68.6234990  12.7699997
 114.0239992  68.5954990  11.9549997 114.5309992  67.7184990  13.0799997
 114.4571690  68.4972234  12.7002770 114.2759992  71.4044990   9.6539997
 115.2219992  71.2594990   9.6349997 114.1629992  72.1884990  10.1909997
 114.3903578  71.4906708   9.7240300 123.4519992  33.9324990  90.8699997
 123.5389992  34.7584990  91.3449997 122.5879992  33.6024990  91.1189997
 123.3471944  34.0009871  90.9686558 132.4729992  72.0704990  15.3369997
 132.4239992  71.1144990  15.2989997 131.6469992  72.3374990  15.7379997
 132.3545096  71.9758416  15.3860698 123.4519992  71.6444990  14.2129997
 123.5389992  72.4704990  14.6879997 122.5879992  71.3144990  14.4619997
 123.3471944  71.7129871  14.3116558 123.8659992  75.4164990   4.0189997
 123.7909992  75.2954990   3.0719997 123.8989992  76.3654990   4.1369997
 123.8602083  75.5282639   3.9054973 117.5199992  74.2054990   5.7999997
 117.6719992  73.8574990   6.6779997 116.6689992  73.8484990   5.5439997
 117.4258344  74.1095891   5.8856851 126.9679992  74.5704990   1.0209997
 127.3429992  73.8264990   0.5499997 126.9719992  74.3004990   1.9389997
 127.0198969  74.4320920   1.0806475 126.6369992  74.4964990   3.7699997
 125.7019992  74.5964990   3.9489997 126.9169992  73.7864990   4.3489997
 126.5469471  74.4142944   3.8726678 129.6249992  63.5634990  15.8169997
 129.2179992  64.0434990  15.0959997 129.6659992  62.6574990  15.5089997
 129.5748403  63.5067989  15.6767253 116.7739992  69.9474990  13.8129997
 116.9899992  69.5854990  14.6729997 115.9189992  69.5724990  13.6039997
 116.6879082  69.8473377  13.9022396 119.3929992  58.4174990   9.8089997
 118.5309992  58.3304990   9.4009997 119.3709992  59.2734990  10.2369997
 119.2720557  58.5213078   9.8110202 124.0559992  58.1394990  13.1839997
 124.4759992  57.7244990  13.9369997 123.1229992  57.9604990  13.3009997
 123.9873736  58.0584921  13.3028950 123.8659992  37.7044990  80.6759997
 123.7909992  37.5834990  79.7299997 123.8989992  38.6534990  80.7949997
 123.8601862  37.8162492  80.5624840 127.3819992  61.8944990  14.0369997
 126.8679992  61.7694990  14.8349997 127.2269992  62.8074990  13.7929997
 127.2907802  62.0007433  14.1131504 128.1449992  66.7554990  -0.2020003
 128.1869992  66.5334990  -1.1320003 128.9939992  67.1544990  -0.0120003
 128.2655253  66.7790510  -0.3036196 123.7179992  60.6314990   0.4689997
 123.4639992  60.6504990   1.3909997 123.4609992  59.7604990   0.1669997
 123.6484508  60.5163292   0.5544786 119.4839992  63.3824990  10.9039997
 118.8419992  63.3424990  11.6129997 119.5209992  64.3094990  10.6659997
 119.4011659  63.5022540  10.9688463 119.4809992  63.6034990   5.8159997
 118.5879992  63.2634990   5.7569997 119.9319992  63.2264990   5.0599997
 119.4197185  63.5060220   5.7057698 125.0169992  64.0194990   4.6329997
 124.6079992  64.8344990   4.3409997 125.7369992  63.8794990   4.0189997
 125.0584439  64.1120383   4.5100098 124.1189992  64.1954990  16.1209997
 123.5559992  63.4904990  16.4419997 124.9449992  64.0744990  16.5889997
 124.1536674  64.0827176  16.2281734 126.0209992  63.4654990   7.4469997
 125.8259992  64.0714990   6.7319997 126.2029992  62.6324990   7.0129997
 126.0189195  63.4357936   7.2904079 117.2339992  63.7034990  12.7709997
 117.1959992  64.1034990  13.6399997 116.7429992  62.8864990  12.8609997
 117.1624374  63.6478228  12.9020980 120.5999992  61.0774990  -0.4300003
 120.1689992  60.6324990   0.2989997 119.8819992  61.4484990  -0.9430003
 120.4439176  61.0667063  -0.3995087 117.5199992  36.4934990  82.4569997
 117.6719992  36.1454990  83.3359997 116.6689992  36.1364990  82.2019997
 117.4257899  36.3976749  82.5427322 113.8419992  60.8194990   6.6219997
 114.4729992  60.7904990   7.3409997 114.2919992  60.3944990   5.8909997
 113.9891082  60.7581269   6.6216307 115.1159992  61.5654990   2.0459997
 115.5909992  62.1564990   1.4609997 114.3989992  62.0954990   2.3929997
 115.0840406  61.7181011   2.0128495 125.2849992  65.1034990  12.1179997
 125.6089992  64.4724990  11.4749997 124.8449992  64.5694990  12.7789997
 125.2698707  64.9448261  12.1193195 122.0629992  61.0314990   6.9019997
 121.1519992  61.0884990   7.1909997 122.5679992  60.9714990   7.7129997
 122.0066873  61.0311838   7.0511190 116.8909992  62.6604990   5.7289997
 116.0019992  62.7594990   5.3889997 117.1869992  61.8184990   5.3829997
 116.8094001  62.5602473   5.6357318 120.5439992  62.6604990   3.3859997
 121.4759992  62.7894990   3.5639997 120.3289992  63.3294990   2.7359997
 120.6424472  62.7685817   3.3224873 126.4679992  60.2664990  10.1659997
 125.7909992  60.3974990  10.8299997 125.9819992  60.1114990   9.3559997
 126.3097265  60.2634665  10.1473380 119.2179992  63.8544990   0.9519997
 118.6759992  63.4754990   0.2609997 120.0519992  64.0494990   0.5239997
 119.2564390  63.8289091   0.7994374 129.7549992  75.9374990  16.4429997
 129.9549992  76.3614990  15.6089997 130.4109992  76.2814990  17.0499997
 129.8709937  76.0419993  16.4108645 117.3529992  68.4114990  16.0509997
 118.0849992  68.6664990  16.6129997 116.5729992  68.6164990  16.5669997
 117.3476526  68.4740438  16.1975168 126.9679992  36.8584990  77.6789997
 127.3429992  36.1144990  77.2079997 126.9719992  36.5884990  78.5969997
 127.0198969  36.7200920  77.7386475 123.3829992  63.8184990   8.7889997
 123.9469992  63.2724990   8.2419997 123.2349992  63.2974990   9.5779997
 123.4403037  63.6731798   8.8207212 118.3849992  59.9554990   5.2079997
 118.0669992  59.0524990   5.1719997 119.1659992  59.9574990   4.6549997
 118.4471079  59.8322240   5.1282908 122.0089992  62.2074990  11.2029997
 121.1739992  62.6614990  11.3139997 122.5329992  62.4834990  11.9549997
 121.9656072  62.3068960  11.3198118 122.5529992  68.4204990   2.8879997
 121.8079992  67.9124990   2.5659997 122.4189992  68.4694990   3.8339997
 122.4329334  68.3576144   2.9718892 129.7029992  67.5534990  11.6749997
 130.3449992  68.0094990  11.1309997 128.8729992  67.6664990  11.2119997
 129.6786536  67.6311813  11.5379579 126.4509992  61.2344990   1.0869997
 125.5119992  61.3454990   0.9359997 126.7479992  62.0904990   1.3939997
 126.3626136  61.3654977   1.1078568 124.0729992  68.6044990  14.1249997
 123.7269992  68.2224990  14.9319997 123.8729992  69.5374990  14.1959997
 123.9985987  68.6784013  14.2450443 127.1689992  63.1014990   2.7479997
 128.0609992  62.9634990   3.0669997 127.2259992  63.8924990   2.2109997
 127.2987380  63.1894777   2.7190981 117.6779992  67.7154990   8.6579997
 118.4229992  67.7124990   8.0559997 117.7559992  66.8914990   9.1389997
 117.7903366  67.6037395   8.6407412 124.6789992  69.8784990   1.9129997
 124.3839992  70.7054990   2.2949997 123.9759992  69.2594990   2.1099997
 124.5436379  69.9079182   1.9918636 126.6369992  36.7844990  80.4279997
 125.7019992  36.8844990  80.6069997 126.9169992  36.0744990  81.0059997
 126.5469270  36.7022300  80.5305984 114.6859992  66.1754990  13.9729997
 114.9089992  65.7574990  14.8039997 114.0839992  65.5634990  13.5499997
 114.6351513  66.0354617  14.0296722 121.7029992  65.6924990  16.1859997
 121.4069992  65.5274990  15.2899997 122.6339992  65.4724990  16.1749997
 121.7884401  65.6401891  16.0620189 126.3229992  71.0664990  14.0749997
 125.4219992  71.2494990  13.8079997 126.3569992  71.3254990  14.9959997
 126.2043861  71.1265245  14.1629517 132.0539992  63.3104990   2.4429997
 131.4999992  62.9144990   1.7699997 132.1549992  64.2214990   2.1649997
 131.9918589  63.3793904   2.3133839 132.0169992  69.1114990  15.2799997
 131.1659992  69.3494990  14.9119997 132.6079992  69.0944990  14.5259997
 131.9803831  69.1417623  15.1278448 130.3489992  72.0964990   2.9079997
 129.9769992  71.2714990   3.2169997 130.6269992  71.9134990   2.0099997
 130.3355807  71.9587031   2.8290063 127.5099992  66.9044990   9.9289997
 126.5819992  66.6734990   9.9019997 127.9609992  66.1274990   9.5989997
 127.4438165  66.7677785   9.8806772 120.0529992  71.2334990   6.0619997
 120.5799992  72.0064990   5.8619997 119.1729992  71.4574990   5.7599997
 120.0062121  71.3697344   5.9937460 115.8079992  66.0954990   0.6489997
 116.4239992  66.7224990   1.0289997 114.9459992  66.4114990   0.9209997
 115.7757678  66.2239423   0.7377192 121.4799992  68.8964990   5.6379997
 121.2389992  69.8214990   5.6799997 120.7399992  68.4374990   6.0349997
 121.3469463  68.9610969   5.6974279 129.6249992  25.8514990  92.4739997
 129.2179992  26.3314990  91.7539997 129.6659992  24.9454990  92.1669997
 129.5747178  25.7948609  92.3337441 121.9949992  73.0454990  11.9529997
 122.3579992  73.8994990  11.7199997 122.5269992  72.7534990  12.6939997
 122.1165141  73.1228907  12.0212079 120.1629992  73.9174990   5.1839997
 119.2139992  74.0234990   5.2349997 120.5149992  74.7384990   5.5279997
 120.0805647  74.0430029   5.2374882 125.5389992  69.1444990  11.6539997
 125.1129992  68.9164990  12.4799997 126.1199992  68.4054990  11.4719997
 125.5592088  69.0134393  11.7424454 127.7419992  70.0734990   0.7279997
 128.0949992  69.6934990   1.5319997 126.7929992  69.9794990   0.8149997
 127.6620956  70.0087867   0.8498005 128.1979992  73.6964990  14.1229997
 127.5959992  73.1404990  13.6279997 128.4789992  74.3634990  13.4969997
 128.1535757  73.7105755  13.9705657 132.2449992  74.5524990   0.9289997
 132.9889992  75.1384990   0.7889997 131.5509992  75.1214990   1.2619997
 132.2529809  74.7095830   0.9548572 116.3199992  60.9294990  13.5309997
 115.4269992  61.2674990  13.4629997 116.2209992  60.0734990  13.9489997
 116.1844752  60.8600986  13.5781644 128.6079992  68.7454990   2.9549997
 128.3309992  68.0174990   3.5109997 129.5349992  68.8644990   3.1599997
 128.6954419  68.6619436   3.0588264 115.9709992  72.7334990  11.9659997
 116.1879992  71.8014990  11.9349997 116.2179992  73.0084990  12.8489997
 116.0340948  72.6430976  12.0811268 120.7699992  70.7554990   1.6309997
 120.9169992  70.2354990   2.4209997 120.7669992  71.6624990   1.9379997
 120.7897102  70.8068964   1.7805907 116.7739992  32.2354990  90.4709997
 116.9899992  31.8734990  91.3309997 115.9189992  31.8604990  90.2609997
 116.6879349  32.1352914  90.5602134 117.2229992  68.0074990   2.1419997
 116.5369992  68.3604990   2.7089997 117.7459992  68.7704990   1.8949997
 117.1998402  68.1588912   2.1861784 125.0539992  60.6704990  12.4209997
 125.7529992  60.7444990  13.0709997 124.6739992  59.8054990  12.5749997
 125.0982662  60.5637050  12.5307412 125.8389992  60.3224990   3.5179997
 126.0589992  60.7934990   2.7139997 126.3969992  60.7164990   4.1879997
 125.9446044  60.4402946   3.4985207 123.5079992  72.4524990   2.3809997
 122.6909992  72.9494990   2.4329997 124.0369992  72.9284990   1.7399997
 123.4678125  72.5847000   2.3015289 123.0389992  62.0504990   4.3529997
 123.8509992  62.5544990   4.3989997 122.7939992  61.9054990   5.2669997
 123.1171091  62.0999366   4.4828552 123.5749992  63.0364990  13.5369997
 123.6939992  63.6104990  14.2939997 124.2299992  62.3484990  13.6519997
 123.6798684  63.0220205  13.6561656 123.9229992  59.1314990   5.2909997
 123.5759992  59.7484990   5.9349997 124.5809992  59.6324990   4.8089997
 123.9644430  59.2836860   5.3140046 120.8459992  73.4964990   2.3619997
 121.0069992  74.2964990   1.8619997 120.6489992  73.8034990   3.2469997
 120.8413906  73.6473690   2.4132316 119.5799992  60.1944990   1.9779997
 119.4969992  61.0824990   2.3249997 120.4699992  59.9294990   2.2099997
 119.6889331  60.2801177   2.0568067 129.7789992  60.9434990  14.3719997
 128.8629992  61.2054990  14.2849997 130.1149992  60.9404990  13.4759997
 129.6988499  60.9790174  14.2388748 119.3929992  20.7054990  86.4669997
 118.5309992  20.6184990  86.0589997 119.3709992  21.5614990  86.8939997
 119.2720953  20.8093558  86.4689262 128.3809992  64.6934990   8.4679997
 127.5839992  64.2784990   8.1399997 128.8259992  64.0034990   8.9589997
 128.3320367  64.5433372   8.4894897 117.8389992  70.6214990   1.0379997
 118.4309992  71.3214990   1.3149997 118.2979992  70.1884990   0.3189997
 117.9821652  70.6587686   0.9786515 116.1549992  63.2864990   0.1539997
 116.1099992  64.2254990   0.3329997 115.2669992  63.0504990  -0.1150003
 116.0288166  63.3831698   0.1421507 129.4679992  73.9494990  10.0899997
 129.3119992  74.6284990   9.4329997 130.3999992  74.0214990  10.2929997
 129.5727328  74.0521586  10.0275529 116.9629992  58.0674990   8.8269997
 116.7339992  58.1264990   7.8999997 116.5199992  57.2764990   9.1339997
 116.8717387  57.9686413   8.7415223 115.8929992  72.0084990   4.9879997
 115.0609992  72.4804990   5.0149997 116.4389992  72.5184990   4.3889997
 115.8528710  72.1420317   4.9107570 115.1819992  74.6204990  16.3179997
 115.7219992  74.4044990  17.0779997 114.6999992  73.8154990  16.1279997
 115.1908485  74.4820463  16.3964870 119.7789992  73.5404990  17.9379997
 120.5469992  73.0814990  18.2789997 119.7579992  73.3144990  17.0079997
 119.8812135  73.4471680  17.8589473 123.8709992  73.0484990  -0.6870003
 123.2269992  72.4174990  -0.3650003 124.6329992  72.5174990  -0.9180003
 123.8858708  72.8903171  -0.6741539 126.3559992  71.9204990  16.6669997
 126.0049992  71.0634990  16.9099997 127.0819992  72.0624990  17.2739997
 126.4061590  71.8225189  16.7822889 124.0559992  20.4274990  89.8409997
 124.4759992  20.0124990  90.5939997 123.1229992  20.2484990  89.9579997
 123.9873736  20.3464921  89.9598950 128.4749992  72.8654990  -0.4530003
 128.7579992  72.0704990  -0.0000003 129.2149992  73.0984990  -1.0140003
 128.6137295  72.7882349  -0.4668531 115.0889992  68.4314990  17.2719997
 115.2329992  67.5294990  16.9859997 114.3159992  68.7174990  16.7849997
 115.0042266  68.3466548  17.1670102 119.4299992  68.7744990  -0.5950003
 119.4939992  67.9804990  -0.0650003 120.0829992  68.6564990  -1.2850003
 119.5270482  68.6497496  -0.6156593 121.7439992  68.4004990  16.7049997
 121.4159992  68.6714990  15.8479997 121.8959992  67.4594990  16.6169997
 121.7196412  68.3104058  16.5757804 127.4789992  68.3164990  14.0879997
 128.2239992  68.9054990  13.9689997 126.7209992  68.8984990  14.1509997
 127.4785289  68.4757067  14.0802292 115.9209992  65.6314990  16.6919997
 116.3289992  64.7744990  16.5709997 115.6609992  65.6454990  17.6129997
 115.9417082  65.5160596  16.7999469 120.5789992  66.7474990   1.7109997
 120.1199992  66.2634990   2.3959997 120.8339992  66.0784990   1.0749997
 120.5505997  66.5908491   1.7188734 119.8679992  64.6404990  14.0669997
 119.2499992  65.3144990  14.3469997 120.2119992  64.9614990  13.2329997
 119.8298078  64.7762298  13.9926609 121.6499992  64.9904990  -0.0270003
 121.4699992  64.8354990  -0.9540003 122.5999992  65.0984990   0.0179997
 121.7537804  64.9838821  -0.1478034 124.8879992  67.1114990  17.3439997
 125.8409992  67.1954990  17.3169997 124.7279992  66.3994990  17.9629997
 124.9967320  67.0267292  17.4239933 127.3819992  24.1824990  90.6949997
 126.8679992  24.0574990  91.4919997 127.2269992  25.0954990  90.4499997
 127.2906643  24.2887068  90.7710624 131.0399992  67.3444990  -0.5810003
 130.7669992  66.9204990  -1.3940003 131.0799992  68.2764990  -0.7980003
 131.0080201  67.4123523  -0.7216452 120.2079992  61.9954990  15.1489997
 120.3579992  61.2664990  14.5469997 120.2099992  62.7724990  14.5899997
 120.2287967  62.0007720  14.9910523 120.6199992  60.3644990  12.6419997
 121.1559992  60.8164990  11.9899997 119.7679992  60.2564990  12.2189997
 120.5781795  60.4117444  12.4956211 122.2019992  65.8044990  12.8809997
 122.9529992  65.6484990  12.3079997 121.8629992  66.6564990  12.6059997
 122.2589587  65.8983149  12.7654060 126.6179992  63.6194990  17.9099997
 126.8099992  62.6884990  17.7979997 127.4749992  64.0444990  17.8989997
 126.7602176  63.5495090  17.8931757 127.9339992  66.4084990  15.9869997
 127.6529992  67.1174990  15.4089997 128.8769992  66.3354990  15.8359997
 128.0229272  66.4956704  15.8874976 118.6859992  63.1934990  17.0599997
 117.9189992  62.6604990  16.8499997 119.3649992  62.8834990  16.4609997
 118.6728292  63.0786360  16.9502693 121.4259992  57.8214990  13.0729997
 121.3279992  58.7674990  12.9679997 120.6829992  57.4484990  12.5969997
 121.3122123  57.9006811  12.9943204 122.6899992  62.1424990  16.6369997
 122.4539992  61.9234990  17.5379997 121.9069992  61.9354990  16.1269997
 122.5518382  62.0845340  16.6913991 125.4059992  61.2704990  15.7119997
 124.4579992  61.3024990  15.8439997 125.7179992  60.6444990  16.3659997
 125.3185293  61.1902934  15.8184130 119.4839992  25.6704990  87.5619997
 118.8419992  25.6304990  88.2709997 119.5209992  26.5974990  87.3239997
 119.4011659  25.7902540  87.6268463 127.0399992  59.9044990  17.7169997
 126.9429992  58.9524990  17.7119997 126.7179992  60.1724990  18.5779997
 126.9832468  59.8105896  17.8326192 116.8669992  61.1134990  16.7649997
 117.0779992  60.4074990  16.1549997 116.7549992  60.6764990  17.6089997
 116.8807668  60.9576619  16.7955445 121.6479992  57.1154990  15.7439997
 122.3589992  56.4754990  15.7299997 121.5469992  57.3814990  14.8309997
 121.7316858  57.0638591  15.6185501 122.0009992  58.7974990  17.7979997
 121.8699992  58.3224990  16.9779997 121.4019992  59.5424990  17.7429997
 121.9020829  58.8330949  17.6781823 121.5479992  75.6804990   0.9739997
 122.4809992  75.8384990   1.1179997 121.2829992  76.3564990   0.3489997
 121.6399846  75.7934567   0.9092930 115.1159992  70.3174990   0.4569997
 116.0299992  70.3964990   0.7299997 115.1229992  69.6304990  -0.2090003
 115.2420624  70.2354074   0.4043045 113.7649992  75.7104990   5.5339997
 113.1179992  75.2484990   5.0019997 114.1199992  75.0384990   6.1169997
 113.7243741  75.5564785   5.5399157 114.6349992  73.7904990   7.3389997
 114.3009992  72.9104990   7.5109997 114.8569992  74.1364990   8.2039997
 114.6192565  73.7167410   7.4794263 132.1839992  74.6004990  10.3199997
 132.1619992  74.7854990  11.2579997 132.8739992  75.1684990   9.9789997
 132.2743383  74.7027104  10.4024580 131.7469992  74.1674990  13.2409997
 131.2599992  73.4314990  12.8699997 132.2959992  73.7734990  13.9189997
 131.7546101  74.0136267  13.2819034 119.4809992  25.8914990  82.4739997
 118.5879992  25.5514990  82.4149997 119.9319992  25.5144990  81.7179997
 119.4197185  25.7940220  82.3637698 130.1979992  69.9574990  17.8789997
 129.3319992  69.8524990  18.2739997 130.5739992  70.7154990  18.3259997
 130.1304940  70.0456141  17.9933958 131.4989992  68.2134990   3.3939997
 132.3489992  68.6344990   3.5209997 131.5039992  67.4734990   4.0009997
 131.6161143  68.1711106   3.4934732 131.8929992  66.2674990   5.2169997
 131.1669992  65.7874990   5.6149997 132.4739992  66.4724990   5.9489997
 131.8722504  66.2295592   5.3704199 131.6519992  69.0524990  10.1649997
 132.4859992  68.6744990   9.8839997 131.7639992  69.9954990  10.0459997
 131.7811917  69.1282954  10.1104844 130.1379992  71.9304990  12.4719997
 129.4909992  72.2554990  13.0969997 129.6209992  71.4894990  11.7979997
 129.9794112  71.9154133  12.4665272 132.1609992  66.1684990   1.6079997
 131.6399992  66.5244990   0.8899997 132.1279992  66.8434990   2.2869997
 132.0850955  66.3085023   1.6012634 130.5099992  63.4074990   0.1589997
 130.6069992  64.0744990  -0.5210003 130.3699992  62.5924990  -0.3220003
 130.5043407  63.3885670   0.0008312 129.6799992  64.7884990   5.7799997
 129.5299992  63.8434990   5.7599997 129.3259992  65.0694990   6.6239997
 129.6116351  64.6971656   5.8913202 114.7149992  66.8664990   9.7909997
 114.8989992  66.7844990   8.8549997 115.5639992  66.7424990  10.2139997
 114.8550132  66.8385066   9.7201460 130.5359992  66.7584990  15.4189997
 131.1189992  66.0234990  15.6109997 131.0999992  67.5304990  15.4659997
 130.6919781  66.7623156  15.4516146 125.0169992  26.3074990  81.2909997
 124.6079992  27.1224990  80.9989997 125.7369992  26.1674990  80.6759997
 125.0583946  26.3999963  81.1679616 132.0329992  64.6614990  16.1039997
 131.1689992  64.2824990  15.9379997 132.6369992  63.9224990  16.0289997
 131.9965394  64.5098378  16.0711778 129.3899992  62.3704990   4.2429997
 129.6699992  61.4634990   4.3669997 130.1489992  62.8044990   3.8539997
 129.5309258  62.3050935   4.2073691 130.0019992  62.9524990   9.6789997
 130.9349992  63.1644990   9.6439997 129.7669992  63.0534990  10.6009997
 130.0979517  62.9951844   9.7989113 130.0309992  63.6894990  12.4549997
 129.1879992  63.9574990  12.8199997 130.4739992  64.5114990  12.2439997
 129.9754035  63.8373351  12.4764770 114.3119992  62.1364990  15.9309997
 115.2319992  62.0144990  16.1679997 113.8629992  61.3864990  16.3209997
 114.3770500  62.0184576  16.0161016 132.3139992  57.6694990  17.8079997
 132.6639992  57.0154990  17.2019997 132.4609992  58.5064990  17.3679997
 132.3817192  57.6932545  17.6656712 130.0039992  59.6334990   4.2909997
 130.1859992  59.1844990   5.1159997 129.4039992  59.0494990   3.8269997
 129.9478187  59.4930563   4.3412721 115.5339992  60.4494990   8.8229997
 115.9789992  59.6574990   9.1249997 115.9999992  61.1654990   9.2529997
 115.6579718  60.4379546   8.9225247 113.8379992  63.4484990   9.8919997
 114.3299992  63.2274990   9.1009997 114.1999992  64.2884990  10.1729997
 113.9542923  63.5318480   9.8217389 131.8339992  59.7784990  16.1569997
 130.9169992  60.0494990  16.1209997 131.9569992  59.2434990  15.3729997
 131.7250828  59.7432711  16.0460767 124.1189992  26.4834990  92.7789997
 123.5559992  25.7784990  93.0989997 124.9449992  26.3624990  93.2459997
 124.1536423  26.3705614  92.8860168 131.8699992  59.7014990   0.8189997
 132.2829992  58.9804990   0.3439997 132.5519992  60.3704990   0.8769997
 132.0186060  59.6933741   0.7619233 114.1509992  59.7064990   3.9459997
 113.2259992  59.9144990   3.8169997 114.6049992  60.1904990   3.2559997
 114.0856298  59.8004311   3.8350433 128.9219992  74.6904990   5.8919997
 129.5739992  74.3424990   5.2839997 129.4329992  75.1784990   6.5379997
 129.0802872  74.7088248   5.8960964 114.1149992  58.4444990  12.2899997
 113.4499992  58.1984990  12.9329997 113.6719992  59.0664990  11.7129997
 113.9641168  58.4949225  12.2999830 116.3069992  71.6194990  16.4349997
 115.4859992  71.7944990  15.9739997 116.0549992  71.5464990  17.3549997
 116.1605594  71.6335728  16.4963593 119.2609992  72.5934990  12.6929997
 118.8359992  73.4034990  12.4109997 120.1649992  72.6794990  12.3909997
 119.3250706  72.7159557  12.6135836 123.5719992  73.9924990  15.6529997
 123.7569992  73.6594990  16.5309997 124.4189992  74.3024990  15.3309997
 123.7117291  73.9888214  15.7296140 125.9169992  75.2784990  14.8969997
 126.5939992  74.6454990  14.6569997 126.2389992  75.6794990  15.7039997
 126.0531618  75.2461147  14.9732802 130.8349992  57.8684990  13.9759997
 130.0219992  58.1934990  13.5889997 131.0679992  57.1074990  13.4429997
 130.7551347  57.8101891  13.8509824 116.6629992  75.8504990  12.7409997
 115.9419992  76.2904990  12.2899997 116.2969992  75.5994990  13.5889997
 116.5149632  75.8767235  12.7939649 126.0209992  25.7534990  84.1049997
 125.8259992  26.3594990  83.3899997 126.2029992  24.9204990  83.6699997
 126.0189272  25.7237955  83.9484075 119.1299992  75.4504990  11.7699997
 118.2649992  75.5224990  12.1739997 119.0749992  75.9974990  10.9869997
 119.0042289  75.5343242  11.7193749 123.8409992  75.3384990  10.9459997
 123.3839992  75.8674990  10.2919997 124.0029992  75.9414990  11.6709997
 123.8003919  75.4923990  10.9545740 126.1679992  74.2164990  11.8909997
 125.2639992  74.3814990  11.6249997 126.5969992  75.0694990  11.8249997
 126.1022017  74.3544184  11.8456495 128.7719992  75.7864990  12.1859997
 128.5909992  76.7024990  11.9749997 128.9489992  75.3754990  11.3389997
 128.7711377  75.8563365  12.0427178 116.0779992  74.4734990   9.6509997
 116.0589992  74.0474990  10.5079997 116.8819992  74.1544990   9.2419997
 116.1841393  74.3720297   9.7130155 118.2189992  73.1834990   8.3059997
 117.9999992  72.2664990   8.4759997 119.0429992  73.3234990   8.7719997
 118.3004702  73.0770523   8.3922510 120.7559992  73.6534990   9.1549997
 120.9689992  72.7654990   8.8679997 120.8209992  73.6184990  10.1089997
 120.7939149  73.5273338   9.2447351 124.2649992  59.3174990   8.2989997
 123.5899992  58.6874990   8.5549997 124.8289992  58.8334990   7.6959997
 124.2489363  59.1658886   8.2524810 129.4069992  57.4244990   8.4119997
 130.0109992  57.9724990   7.9099997 128.5379992  57.7434990   8.1709997
 129.3720419  57.5425628   8.3107741 131.1339992  58.5634990   6.7449997
 131.7459992  58.0494990   6.2179997 131.5169992  59.4404990   6.7679997
 131.2693867  58.6117613   6.6760888 117.2339992  25.9914990  89.4289997
 117.1959992  26.3914990  90.2969997 116.7429992  25.1744990  89.5189997
 117.1624246  25.9358842  89.5601171 116.5909992  57.9514990   6.1209997
 115.8139992  57.7164990   5.6139997 117.1219992  57.1544990   6.1299997
 116.5563735  57.8116462   6.0528090 115.4279992  57.7494990   1.9249997
 115.8669992  58.3604990   1.3329997 114.7939992  58.2874990   2.3989997
 115.4023859  57.9059076   1.9080287 121.1709992  57.8774990   5.9339997
 122.0449992  58.2664990   5.9049997 121.0349992  57.6624990   6.8569997
 121.2721953  57.9016654   6.0547599 126.7269992  57.9074990   7.5839997
 126.8039992  58.0034990   6.6339997 126.4519992  57.0004990   7.7119997
 126.7003233  57.7979093   7.4713665 128.0809992  57.9334990   3.2759997
 127.3779992  58.5484990   3.0659997 127.6359992  57.0964990   3.4069997
 127.9246550  57.9044679   3.2649819 115.3289992  73.6974990   2.8219997
 114.6439992  73.6594990   2.1549997 115.3319992  74.6094990   3.1099997
 115.2356806  73.8156669   2.7696961 117.2889992  59.6654990   0.3669997
 117.7799992  59.0354990  -0.1600003 117.9119992  59.9614990   1.0299997
 117.4405304  59.6192387   0.3844922 122.3149992  59.9584990   2.8239997
 122.4929992  59.3114990   3.5069997 122.2609992  60.7924990   3.2909997
 122.3320678  59.9826615   2.9806283 124.1929992  74.9064990   1.2199997
 125.0589992  75.2734990   1.0419997 123.9459992  74.4674990   0.4059997
 124.2781853  74.8974021   1.0855813 130.9019992  74.4694990   3.8989997
 130.7079992  73.7214990   3.3339997 130.8629992  75.2274990   3.3159997
 130.8701645  74.4695797   3.7428131 113.8419992  23.1074990  83.2789997
 114.4729992  23.0784990  83.9989997 114.2919992  22.6824990  82.5489997
 113.9890905  23.0460839  83.2787479 116.5489992  58.4654990  15.6389997
 116.1829992  57.6994990  16.0809997 117.4619992  58.4944990  15.9249997
 116.6223172  58.3645335  15.7381872 118.5219992  57.8154990  17.1739997
 119.4209992  57.5414990  16.9899997 118.1359992  57.0734990  17.6389997
 118.5927307  57.6777207  17.2117080 117.1469992  74.6174990  -0.1530003
 116.8789992  74.9034990   0.7209997 117.9179992  74.0714990  -0.0000003
 117.2145927  74.5827790  -0.0128812 126.9429992  57.1484990  17.3569997
 127.0199992  56.7224990  18.2099997 127.8369992  57.1614990  17.0139997
 127.0743263  57.0919345  17.4274366 130.1199992  73.2204990  16.0489997
 129.3379992  73.0344990  15.5289997 130.0479992  74.1504990  16.2659997
 130.0032975  73.3206973  16.0071822 135.8269992  65.9764990  11.0919997
 135.8679992  65.3514990  11.8149997 136.5299992  66.6004990  11.2739997
 135.9276223  65.9752318  11.2156164 136.7509992  70.4264990   9.6269997
 136.3809992  69.6244990   9.2569997 137.6919992  70.2584990   9.6729997
 136.8275984  70.2939649   9.5825586 133.3609992  64.0864990   5.0189997
 132.9129992  64.9324990   5.0009997 132.7999992  63.5074990   4.5039997
 133.2238546  64.1239004   4.9468874 134.0709992  66.2484990   7.1449997
 134.2849992  65.4784990   7.6719997 134.8089992  66.3384990   6.5419997
 134.2000073  66.1553546   7.1355786 138.1439992  61.2904990   7.5049997
 138.1869992  62.1504990   7.0859997 137.6859992  60.7374990   6.8709997
 138.0880163  61.3334174   7.3620604 115.1159992  23.8534990  78.7029997
 115.5909992  24.4444990  78.1179997 114.3989992  24.3834990  79.0499997
 115.0840406  24.0061011  78.6698495 134.7639992  63.6874990   8.2669997
 135.4179992  63.1374990   8.6989997 134.7879992  63.4134990   7.3499997
 134.8567199  63.5752178   8.2021650 136.9539992  60.2084990  11.5789997
 136.7349992  60.7384990  10.8119997 136.2859992  60.4344990  12.2259997
 136.8336975  60.3115979  11.5615123 139.5229992  67.8834990  11.8659997
 138.7829992  68.4824990  11.9699997 140.2369992  68.4374990  11.5499997
 139.5183146  68.0402611  11.8375150 136.5479992  62.1004990   9.5309997
 137.1609992  62.7334990   9.9039997 137.0599992  61.6284990   8.8749997
 136.7011933  62.1233380   9.4933477 137.9299992  69.8484990  12.6529997
 137.9249992  70.7274990  12.2749997 137.0769992  69.7644990  13.0779997
 137.8139199  69.9575901  12.6586942 134.0519992  69.5194990   3.4349997
 133.7799992  69.7484990   2.5459997 134.0969992  70.3564990   3.8959997
 134.0208360  69.6641034   3.3756186 138.2979992  67.1914990   6.3659997
 137.9679992  66.8204990   5.5479997 138.8859992  66.5204990   6.7129997
 138.3323182  67.0500648   6.3009898 138.6649992  65.9594990   9.9989997
 139.2299992  66.0814990   9.2369997 138.9829992  66.5974990  10.6379997
 138.7853619  66.0624388   9.9810019 139.5449992  70.3594990  14.7169997
 139.2329992  71.1414990  15.1719997 138.8949992  70.2064990  14.0309997
 139.4144858  70.4457882  14.6865344 136.4649992  66.5574990  13.9449997
 136.5349992  67.2084990  14.6439997 135.5739992  66.6604990  13.6099997
 136.3541690  66.6604261  13.9953026 125.2849992  27.3914990  88.7759997
 125.6089992  26.7604990  88.1329997 124.8449992  26.8574990  89.4369997
 125.2698707  27.2328261  88.7773195 137.7839992  72.4304990  15.4799997
 137.7919992  72.2944990  14.5329997 136.8679992  72.3134990  15.7319997
 137.6612528  72.3960475  15.3843226 137.2879992  66.2604990   3.9549997
 136.9959992  67.0284990   3.4639997 136.6139992  65.6014990   3.7919997
 137.1568843  66.2764537   3.8657695 133.3809992  68.6234990  12.7699997
 132.8799992  68.5954990  11.9549997 133.3869992  67.7184990  13.0799997
 133.3131690  68.4972234  12.7002770 133.1319992  71.4044990   9.6539997
 134.0779992  71.2594990   9.6349997 133.0189992  72.1884990  10.1909997
 133.2463578  71.4906708   9.7240300 136.3759992  74.2054990   5.7999997
 136.5279992  73.8574990   6.6779997 135.5249992  73.8484990   5.5439997
 136.2818344  74.1095891   5.8856851 135.6299992  69.9474990  13.8129997
 135.8459992  69.5854990  14.6729997 134.7749992  69.5724990  13.6039997
 135.5439082  69.8473377  13.9022396 138.2489992  58.4174990   9.8089997
 137.3869992  58.3304990   9.4009997 138.2269992  59.2734990  10.2369997
 138.1280557  58.5213078   9.8110202 138.3399992  63.3824990  10.9039997
 137.6979992  63.3424990  11.6129997 138.3769992  64.3094990  10.6659997
 138.2571659  63.5022540  10.9688463 138.3369992  63.6034990   5.8159997
 137.4439992  63.2634990   5.7569997 138.7879992  63.2264990   5.0599997
 138.2757185  63.5060220   5.7057698 136.0899992  63.7034990  12.7709997
 136.0519992  64.1034990  13.6399997 135.5989992  62.8864990  12.8609997
 136.0184374  63.6478228  12.9020980 122.0629992  23.3194990  83.5599997
 121.1519992  23.3764990  83.8489997 122.5679992  23.2594990  84.3709997
 122.0066873  23.3191838  83.7091190 139.4559992  61.0774990  -0.4300003
 139.0249992  60.6324990   0.2989997 138.7379992  61.4484990  -0.9430003
 139.2999176  61.0667063  -0.3995087 132.6979992  60.8194990   6.6219997
 133.3289992  60.7904990   7.3409997 133.1479992  60.3944990   5.8909997
 132.8451082  60.7581269   6.6216307 133.9719992  61.5654990   2.0459997
 134.4469992  62.1564990   1.4609997 133.2549992  62.0954990   2.3929997
 133.9400406  61.7181011   2.0128495 135.7469992  62.6604990   5.7289997
 134.8579992  62.7594990   5.3889997 136.0429992  61.8184990   5.3829997
 135.6654001  62.5602473   5.6357318 139.3999992  62.6604990   3.3859997
 140.3319992  62.7894990   3.5639997 139.1849992  63.3294990   2.7359997
 139.4984472  62.7685817   3.3224873 138.0739992  63.8544990   0.9519997
 137.5319992  63.4754990   0.2609997 138.9079992  64.0494990   0.5239997
 138.1124390  63.8289091   0.7994374 136.2089992  68.4114990  16.0509997
 136.9409992  68.6664990  16.6129997 135.4289992  68.6164990  16.5669997
 136.2036526  68.4740438  16.1975168 137.2409992  59.9554990   5.2079997
 136.9229992  59.0524990   5.1719997 138.0219992  59.9574990   4.6549997
 137.3031079  59.8322240   5.1282908 136.5339992  67.7154990   8.6579997
 137.2789992  67.7124990   8.0559997 136.6119992  66.8914990   9.1389997
 136.6463365  67.6037395   8.6407412 133.5419992  66.1754990  13.9729997
 133.7649992  65.7574990  14.8039997 132.9399992  65.5634990  13.5499997
 133.4911513  66.0354617  14.0296722 116.8909992  24.9484990  82.3869997
 116.0019992  25.0474990  82.0469997 117.1869992  24.1064990  82.0409997
 116.8094001  24.8482473  82.2937318 138.9089992  71.2334990   6.0619997
 139.4359992  72.0064990   5.8619997 138.0289992  71.4574990   5.7599997
 138.8622121  71.3697344   5.9937460 134.6639992  66.0954990   0.6489997
 135.2799992  66.7224990   1.0289997 133.8019992  66.4114990   0.9209997
 134.6317678  66.2239423   0.7377192 139.0189992  73.9174990   5.1839997
 138.0699992  74.0234990   5.2349997 139.3709992  74.7384990   5.5279997
 138.9365647  74.0430029   5.2374882 135.1759992  60.9294990  13.5309997
 134.2829992  61.2674990  13.4629997 135.0769992  60.0734990  13.9489997
 135.0404752  60.8600986  13.5781644 134.8269992  72.7334990  11.9659997
 135.0439992  71.8014990  11.9349997 135.0739992  73.0084990  12.8489997
 134.8900948  72.6430976  12.0811268 136.0789992  68.0074990   2.1419997
 135.3929992  68.3604990   2.7089997 136.6019992  68.7704990   1.8949997
 136.0558402  68.1588912   2.1861783 138.4359992  60.1944990   1.9779997
 138.3529992  61.0824990   2.3249997 139.3259992  59.9294990   2.2099997
 138.5449331  60.2801177   2.0568067 136.6949992  70.6214990   1.0379997
 137.2869992  71.3214990   1.3149997 137.1539992  70.1884990   0.3189997
 136.8381652  70.6587686   0.9786515 135.0109992  63.2864990   0.1539997
 134.9659992  64.2254990   0.3329997 134.1229992  63.0504990  -0.1150003
 134.8848166  63.3831698   0.1421507 135.8189992  58.0674990   8.8269997
 135.5899992  58.1264990   7.8999997 135.3759992  57.2764990   9.1339997
 135.7277387  57.9686412   8.7415223 120.5439992  24.9484990  80.0429997
 121.4759992  25.0774990  80.2209997 120.3289992  25.6174990  79.3939997
 120.6424245  25.0566452  79.9795602 134.7489992  72.0084990   4.9879997
 133.9169992  72.4804990   5.0149997 135.2949992  72.5184990   4.3889997
 134.7088710  72.1420317   4.9107570 134.0379992  74.6204990  16.3179997
 134.5779992  74.4044990  17.0779997 133.5559992  73.8154990  16.1279997
 134.0468485  74.4820463  16.3964870 138.6349992  73.5404990  17.9379997
 139.4029992  73.0814990  18.2789997 138.6139992  73.3144990  17.0079997
 138.7372135  73.4471680  17.8589473 133.9449992  68.4314990  17.2719997
 134.0889992  67.5294990  16.9859997 133.1719992  68.7174990  16.7849997
 133.8602266  68.3466548  17.1670102 138.2859992  68.7744990  -0.5950003
 138.3499992  67.9804990  -0.0650003 138.9389992  68.6564990  -1.2850003
 138.3830483  68.6497496  -0.6156593 134.7769992  65.6314990  16.6919997
 135.1849992  64.7744990  16.5709997 134.5169992  65.6454990  17.6129997
 134.7977082  65.5160596  16.7999469 139.4349992  66.7474990   1.7109997
 138.9759992  66.2634990   2.3959997 139.6899992  66.0784990   1.0749997
 139.4065997  66.5908491   1.7188734 138.7239992  64.6404990  14.0669997
 138.1059992  65.3144990  14.3469997 139.0679992  64.9614990  13.2329997
 138.6858078  64.7762298  13.9926609 139.0639992  61.9954990  15.1489997
 139.2139992  61.2664990  14.5469997 139.0659992  62.7724990  14.5899997
 139.0847967  62.0007720  14.9910523 139.4759992  60.3644990  12.6419997
 140.0119992  60.8164990  11.9899997 138.6239992  60.2564990  12.2189997
 139.4341795  60.4117444  12.4956211 126.4679992  22.5544990  86.8239997
 125.7909992  22.6854990  87.4879997 125.9819992  22.3994990  86.0139997
 126.3097265  22.5514665  86.8053380 137.5419992  63.1934990  17.0599997
 136.7749992  62.6604990  16.8499997 138.2209992  62.8834990  16.4609997
 137.5288292  63.0786360  16.9502693 135.7229992  61.1134990  16.7649997
 135.9339992  60.4074990  16.1549997 135.6109992  60.6764990  17.6089997
 135.7367668  60.9576619  16.7955445 133.9719992  70.3174990   0.4569997
 134.8859992  70.3964990   0.7299997 133.9789992  69.6304990  -0.2090003
 134.0980624  70.2354074   0.4043045 132.6209992  75.7104990   5.5339997
 131.9739992  75.2484990   5.0019997 132.9759992  75.0384990   6.1169997
 132.5803741  75.5564785   5.5399157 133.4909992  73.7904990   7.3389997
 133.1569992  72.9104990   7.5109997 133.7129992  74.1364990   8.2039997
 133.4752565  73.7167410   7.4794263 133.5709992  66.8664990   9.7909997
 133.7549992  66.7844990   8.8549997 134.4199992  66.7424990  10.2139997
 133.7110132  66.8385066   9.7201460 133.1679992  62.1364990  15.9309997
 134.0879992  62.0144990  16.1679997 132.7189992  61.3864990  16.3209997
 133.2330500  62.0184576  16.0161016 134.3899992  60.4494990   8.8229997
 134.8349992  59.6574990   9.1249997 134.8559992  61.1654990   9.2529997
 134.5139718  60.4379546   8.9225247 132.6939992  63.4484990   9.8919997
 133.1859992  63.2274990   9.1009997 133.0559992  64.2884990  10.1729997
 132.8102923  63.5318480   9.8217389 133.0069992  59.7064990   3.9459997
 132.0819992  59.9144990   3.8169997 133.4609992  60.1904990   3.2559997
 132.9416298  59.8004311   3.8350433 129.7549992  38.2254990  93.1009997
 129.9549992  38.6494990  92.2659997 130.4109992  38.5694990  93.7079997
 129.8709916  38.3299784  93.0687890 132.9709992  58.4444990  12.2899997
 132.3059992  58.1984990  12.9329997 132.5279992  59.0664990  11.7129997
 132.8201168  58.4949225  12.2999830 135.1629992  71.6194990  16.4349997
 134.3419992  71.7944990  15.9739997 134.9109992  71.5464990  17.3549997
 135.0165594  71.6335728  16.4963593 138.1169992  72.5934990  12.6929997
 137.6919992  73.4034990  12.4109997 139.0209992  72.6794990  12.3909997
 138.1810706  72.7159557  12.6135836 135.5189992  75.8504990  12.7409997
 134.7979992  76.2904990  12.2899997 135.1529992  75.5994990  13.5889997
 135.3709632  75.8767235  12.7939649 137.9859992  75.4504990  11.7699997
 137.1209992  75.5224990  12.1739997 137.9309992  75.9974990  10.9869997
 137.8602289  75.5343242  11.7193749 134.9339992  74.4734990   9.6509997
 134.9149992  74.0474990  10.5079997 135.7379992  74.1544990   9.2419997
 135.0401393  74.3720297   9.7130155 137.0749992  73.1834990   8.3059997
 136.8559992  72.2664990   8.4759997 137.8989992  73.3234990   8.7719997
 137.1564702  73.0770523   8.3922510 135.4469992  57.9514990   6.1209997
 134.6699992  57.7164990   5.6139997 135.9779992  57.1544990   6.1299997
 135.4123735  57.8116462   6.0528090 134.2839992  57.7494990   1.9249997
 134.7229992  58.3604990   1.3329997 133.6499992  58.2874990   2.3989997
 134.2583859  57.9059076   1.9080287 134.1849992  73.6974990   2.8219997
 133.4999992  73.6594990   2.1549997 134.1879992  74.6094990   3.1099997
 134.0916806  73.8156669   2.7696961 117.3529992  30.6994990  92.7089997
 118.0849992  30.9544990  93.2699997 116.5729992  30.9044990  93.2239997
 117.3477684  30.7621457  92.8554774 136.1449992  59.6654990   0.3669997
 136.6359992  59.0354990  -0.1600003 136.7679992  59.9614990   1.0299997
 136.2965304  59.6192387   0.3844922 135.4049992  58.4654990  15.6389997
 135.0389992  57.6994990  16.0809997 136.3179992  58.4944990  15.9249997
 135.4783172  58.3645335  15.7381872 137.3779992  57.8154990  17.1739997
 138.2769992  57.5414990  16.9899997 136.9919992  57.0734990  17.6389997
 137.4487307  57.6777207  17.2117080 136.0029992  74.6174990  -0.1530003
 135.7349992  74.9034990   0.7209997 136.7739992  74.0714990  -0.0000003
 136.0705927  74.5827790  -0.0128812  12.5339992  85.9634990   6.0799997
  12.6229992  86.9074990   5.9469997  11.8949992  85.6884990   5.4219997
  12.4598378  86.0553846   5.9729258  11.4669992  85.2184990   9.4989997
  11.4279992  84.5724990  10.2039997  11.1439992  84.7514990   8.7269997
  11.4180469  85.0670005   9.4912803   3.8349992  84.8324990  11.0919997
   3.8759992  84.2074990  11.8149997   4.5379992  85.4564990  11.2739997
   3.9356223  84.8312318  11.2156164  15.1729992  88.1574990   7.7999997
  14.7319992  87.4374990   8.2509997  15.1599992  88.8784990   8.4299997
  15.1109215  88.1564303   7.9468088   4.7589992  89.2824990   9.6269997
   4.3889992  88.4804990   9.2569997   5.6999992  89.1144990   9.6729997
   4.8355984  89.1499649   9.5825586   1.3689992  82.9424990   5.0189997
   0.9209992  83.7884990   5.0009997   0.8079992  82.3634990   4.5039997
   1.2318546  82.9799004   4.9468874 123.3829992  26.1064990  85.4469997
 123.9469992  25.5604990  84.8999997 123.2349992  25.5854990  86.2359997
 123.4403037  25.9611798  85.4787212   2.0789992  85.1044990   7.1449997
   2.2929992  84.3344990   7.6719997   2.8169992  85.1944990   6.5419997
   2.2080073  85.0113546   7.1355786  12.2839992  93.2614990   8.0119997
  12.9039992  92.5854990   7.7389997  12.0759992  93.0434990   8.9209997
  12.3407679  93.1395032   8.0974518   9.8559992  87.6504990   9.9049997
  10.1599992  86.9644990   9.3099997  10.5779992  87.7694990  10.5229997
   9.9951240  87.5727325   9.9070941  18.5189992  79.2524990  10.7649997
  18.5679992  79.8624990  11.5009997  18.9449992  79.7134990  10.0419997
  18.5832851  79.3983266  10.7680532  12.9969992  82.0444990  10.2319997
  13.1389992  81.0984990  10.2519997  12.8909992  82.2514990   9.3039997
  13.0021051  81.9429706  10.1092249   6.1519992  80.1464990   7.5049997
   6.1949992  81.0064990   7.0859997   5.6939992  79.5934990   6.8709997
   6.0960163  80.1894174   7.3620604  13.8739992  80.2774990   5.9049997
  14.5199992  79.9484990   6.5299997  14.3839992  80.7944990   5.2829997
  14.0314289  80.3024333   5.9063681   2.7719992  82.5434990   8.2669997
   3.4259992  81.9934990   8.6989997   2.7959992  82.2694990   7.3499997
   2.8647199  82.4312178   8.2021650   7.9279992  84.0934990   7.4819997
   8.5439992  83.5664990   7.9909997   7.3419992  83.4534990   7.0779997
   7.9330652  83.9348919   7.4970277  18.9109992  80.7304990  13.0009997
  18.2219992  81.3884990  12.9059997  18.9259992  80.5324990  13.9379997
  18.8187756  80.7937614  13.1145795 118.3849992  22.2434990  81.8649997
 118.0669992  21.3404990  81.8299997 119.1659992  22.2454990  81.3129997
 118.4471560  22.1201148  81.7854975   4.9619992  79.0644990  11.5789997
   4.7429992  79.5944990  10.8119997   4.2939992  79.2904990  12.2259997
   4.8416975  79.1675979  11.5615123  12.3309992  88.5644990   5.1229997
  12.0349992  88.2414990   4.2709997  12.0069992  89.4644990   5.1639997
  12.2467458  88.6419678   5.0120598   7.5309992  86.7394990  11.8659997
   6.7909992  87.3384990  11.9699997   8.2449992  87.2934990  11.5499997
   7.5263146  86.8962611  11.8375150  15.6379992  79.5684990   7.8859997
  15.4229992  78.8024990   8.4189997  16.2939992  80.0404990   8.3989997
  15.6972673  79.5275739   8.0281972   4.5559992  80.9564990   9.5309997
   5.1689992  81.5894990   9.9039997   5.0679992  80.4844990   8.8749997
   4.7091933  80.9793380   9.4933477   5.9379992  88.7044990  12.6529997
   5.9329992  89.5834990  12.2749997   5.0849992  88.6204990  13.0779997
   5.8219199  88.8135901  12.6586942   2.0599992  88.3754990   3.4349997
   1.7879992  88.6044990   2.5459997   2.1049992  89.2124990   3.8959997
   2.0288360  88.5201034   3.3756186  15.6849992  89.9964990  10.1479997
  14.7429992  90.0554990  10.3099997  15.9609992  90.9024990  10.0109997
  15.5935865  90.1270299  10.1516174  15.9849992  78.2834990  11.5649997
  15.2489992  78.8934990  11.5279997  16.6689992  78.6984990  11.0389997
  15.9765367  78.4232562  11.4888156   8.9879992  76.3694990   9.0309997
   8.8709992  75.4214990   8.9769997   8.1329992  76.7024990   9.3039997
   8.8563691  76.2845842   9.0605072 122.0089992  24.4954990  87.8609997
 121.1739992  24.9494990  87.9709997 122.5329992  24.7714990  88.6129997
 121.9655070  24.5949677  87.9777134  13.9369992  91.7774990   6.7729997
  14.3619992  91.0704990   6.2879997  14.2539992  92.5794990   6.3559997
  14.0380266  91.7890201   6.6502461  15.0959992  89.6784990   5.2819997
  14.8389992  88.9884990   4.6699997  15.1669992  89.2354990   6.1269997
  15.0704322  89.5241568   5.3125372  16.7819992  88.2454990  13.7589997
  16.9219992  87.6534990  13.0199997  16.9499992  89.1184990  13.4029997
  16.8238734  88.2824041  13.6096937  11.2549992  85.2074990   3.5319997
  10.5429992  85.7424990   3.1799997  11.9459992  85.2624990   2.8719997
  11.2509704  85.2881663   3.3945797  11.3089992  83.6644990   0.5699997
  12.0099992  83.6874990   1.2219997  11.6109992  83.0364990  -0.0860003
  11.4458202  83.5827223   0.5705591  18.6239992  84.5854990  11.8249997
  17.9719992  85.2794990  11.9139997  19.0889992  84.7954990  11.0149997
  18.5975357  84.7089544  11.7277056  14.6609992  85.4164990   4.4829997
  13.9289992  85.6454990   5.0559997  15.1079992  84.7034990   4.9379997
  14.6212753  85.3513984   4.6229698  14.5579992  83.5914990  13.5509997
  14.6379992  84.3544990  14.1229997  13.9569992  83.8704990  12.8609997
  14.4876547  83.7337468  13.5360029   6.3059992  86.0474990   6.3659997
   5.9759992  85.6764990   5.5479997   6.8939992  85.3764990   6.7129997
   6.3403182  85.9060648   6.3009898   7.6729992  89.4754990   9.0469997
   7.5779992  88.8964990   8.2909997   8.4019992  89.1044990   9.5429997
   7.7586011  89.3460572   9.0106011 122.5529992  30.7084990  79.5459997
 121.8079992  30.2004990  79.2229997 122.4189992  30.7574990  80.4919997
 122.4328633  30.6455714  79.6297563   6.6729992  84.8154990   9.9989997
   7.2379992  84.9374990   9.2369997   6.9909992  85.4534990  10.6379997
   6.7933619  84.9184388   9.9810019  12.9819992  90.3194990  10.7329997
  12.7409992  90.9814990  11.3809997  12.7839992  89.4844990  11.1579997
  12.9222662  90.2972704  10.8791008   7.5529992  89.2154990  14.7169997
   7.2409992  89.9974990  15.1719997   6.9029992  89.0624990  14.0309997
   7.4224858  89.3017882  14.6865344  13.5319992  84.5794990   2.1689997
  14.1109992  84.7294990   2.9149997  13.9459992  85.0494990   1.4449997
  13.6673358  84.6635966   2.1733935   4.4729992  85.4134990  13.9449997
   4.5429992  86.0644990  14.6439997   3.5819992  85.5164990  13.6099997
   4.3621690  85.5164261  13.9953026  11.2579992  91.3154990   5.6039997
  11.7319992  91.6114990   6.3809997  10.6949992  92.0544990   5.3709997
  11.2467890  91.4558047   5.6788084   5.7919992  91.2864990  15.4799997
   5.7999992  91.1504990  14.5329997   4.8759992  91.1694990  15.7319997
   5.6692528  91.2520475  15.3843226  17.2299992  76.3294990   1.9809997
  16.3299992  76.4674990   2.2769997  17.4819992  77.1604990   1.5799997
  17.1407727  76.4608705   1.9672935   5.2959992  85.1164990   3.9549997
   5.0039992  85.8844990   3.4639997   4.6219992  84.4574990   3.7919997
   5.1648843  85.1324537   3.8657695  18.4199992  90.6954990   0.3579997
  18.4929992  91.6344990   0.5279997  19.3249992  90.3904990   0.3019997
  18.5524170  90.7828294   0.3737045 129.7029992  29.8414990  88.3319997
 130.3449992  30.2974990  87.7889997 128.8729992  29.9544990  87.8699997
 129.6787352  29.9193223  88.1950234   1.3889992  87.4794990  12.7699997
   0.8879992  87.4514990  11.9549997   1.3949992  86.5744990  13.0799997
   1.3211690  87.3532234  12.7002770   1.1399992  90.2604990   9.6539997
   2.0859992  90.1154990   9.6349997   1.0269992  91.0444990  10.1909997
   1.2543578  90.3466708   9.7240300  19.3369992  90.9264990  15.3369997
  19.2879992  89.9704990  15.2989997  18.5109992  91.1934990  15.7379997
  19.2185096  90.8318416  15.3860698  10.3159992  90.5004990  14.2129997
  10.4029992  91.3264990  14.6879997   9.4519992  90.1704990  14.4619997
  10.2111944  90.5689871  14.3116558  10.7299992  94.2724990   4.0189997
  10.6549992  94.1514990   3.0719997  10.7629992  95.2214990   4.1369997
  10.7242083  94.3842639   3.9054973   4.3839992  93.0614990   5.7999997
   4.5359992  92.7134990   6.6779997   3.5329992  92.7044990   5.5439997
   4.2898344  92.9655891   5.8856851  13.8319992  93.4264990   1.0209997
  14.2069992  92.6824990   0.5499997  13.8359992  93.1564990   1.9389997
  13.8838969  93.2880920   1.0806475  13.5009992  93.3524990   3.7699997
  12.5659992  93.4524990   3.9489997  13.7809992  92.6424990   4.3489997
  13.4109471  93.2702944   3.8726678  16.4889992  82.4194990  15.8169997
  16.0819992  82.8994990  15.0959997  16.5299992  81.5134990  15.5089997
  16.4388403  82.3627989  15.6767253   3.6379992  88.8034990  13.8129997
   3.8539992  88.4414990  14.6729997   2.7829992  88.4284990  13.6039997
   3.5519082  88.7033377  13.9022396 124.0729992  30.8924990  90.7829997
 123.7269992  30.5104990  91.5889997 123.8729992  31.8254990  90.8539997
 123.9985400  30.9663489  90.9030401   6.2569992  77.2734990   9.8089997
   5.3949992  77.1864990   9.4009997   6.2349992  78.1294990  10.2369997
   6.1360557  77.3773078   9.8110202  10.9199992  76.9954990  13.1839997
  11.3399992  76.5804990  13.9369997   9.9869992  76.8164990  13.3009997
  10.8513736  76.9144921  13.3028950  14.2459992  80.7504990  14.0369997
  13.7319992  80.6254990  14.8349997  14.0909992  81.6634990  13.7929997
  14.1547802  80.8567433  14.1131504  15.0089992  85.6114990  -0.2020003
  15.0509992  85.3894990  -1.1320003  15.8579992  86.0104990  -0.0120003
  15.1295253  85.6350510  -0.3036196  10.5819992  79.4874990   0.4689997
  10.3279992  79.5064990   1.3909997  10.3249992  78.6164990   0.1669997
  10.5124508  79.3723292   0.5544786   6.3479992  82.2384990  10.9039997
   5.7059992  82.1984990  11.6129997   6.3849992  83.1654990  10.6659997
   6.2651659  82.3582540  10.9688463   6.3449992  82.4594990   5.8159997
   5.4519992  82.1194990   5.7569997   6.7959992  82.0824990   5.0599997
   6.2837185  82.3620220   5.7057698  11.8809992  82.8754990   4.6329997
  11.4719992  83.6904990   4.3409997  12.6009992  82.7354990   4.0189997
  11.9224439  82.9680383   4.5100098  10.9829992  83.0514990  16.1209997
  10.4199992  82.3464990  16.4419997  11.8089992  82.9304990  16.5889997
  11.0176674  82.9387176  16.2281734  12.8849992  82.3214990   7.4469997
  12.6899992  82.9274990   6.7319997  13.0669992  81.4884990   7.0129997
  12.8829195  82.2917936   7.2904079 127.1689992  25.3894990  79.4059997
 128.0609992  25.2514990  79.7249997 127.2259992  26.1804990  78.8689997
 127.2987380  25.4774777  79.3770981   4.0979992  82.5594990  12.7709997
   4.0599992  82.9594990  13.6399997   3.6069992  81.7424990  12.8609997
   4.0264374  82.5038228  12.9020980   7.4639992  79.9334990  -0.4300003
   7.0329992  79.4884990   0.2989997   6.7459992  80.3044990  -0.9430003
   7.3079176  79.9227063  -0.3995087   0.7059992  79.6754990   6.6219997
   1.3369992  79.6464990   7.3409997   1.1559992  79.2504990   5.8909997
   0.8531082  79.6141269   6.6216307   1.9799992  80.4214990   2.0459997
   2.4549992  81.0124990   1.4609997   1.2629992  80.9514990   2.3929997
   1.9480406  80.5741011   2.0128495  12.1489992  83.9594990  12.1179997
  12.4729992  83.3284990  11.4749997  11.7089992  83.4254990  12.7789997
  12.1338707  83.8008261  12.1193195   8.9269992  79.8874990   6.9019997
   8.0159992  79.9444990   7.1909997   9.4319992  79.8274990   7.7129997
   8.8706873  79.8871838   7.0511190   3.7549992  81.5164990   5.7289997
   2.8659992  81.6154990   5.3889997   4.0509992  80.6744990   5.3829997
   3.6734001  81.4162473   5.6357318   7.4079992  81.5164990   3.3859997
   8.3399992  81.6454990   3.5639997   7.1929992  82.1854990   2.7359997
   7.5064472  81.6245817   3.3224873  13.3319992  79.1224990  10.1659997
  12.6549992  79.2534990  10.8299997  12.8459992  78.9674990   9.3559997
  13.1737265  79.1194665  10.1473380   6.0819992  82.7104990   0.9519997
   5.5399992  82.3314990   0.2609997   6.9159992  82.9054990   0.5239997
   6.1204390  82.6849091   0.7994374 117.6779992  30.0034990  85.3149997
 118.4229992  30.0004990  84.7139997 117.7559992  29.1794990  85.7969997
 117.7904158  29.8917928  85.2979136  16.6189992  94.7934990  16.4429997
  16.8189992  95.2174990  15.6089997  17.2749992  95.1374990  17.0499997
  16.7349937  94.8979993  16.4108645   4.2169992  87.2674990  16.0509997
   4.9489992  87.5224990  16.6129997   3.4369992  87.4724990  16.5669997
   4.2116526  87.3300438  16.1975168  10.2469992  82.6744990   8.7889997
  10.8109992  82.1284990   8.2419997  10.0989992  82.1534990   9.5779997
  10.3043037  82.5291798   8.8207212   5.2489992  78.8114990   5.2079997
   4.9309992  77.9084990   5.1719997   6.0299992  78.8134990   4.6549997
   5.3111079  78.6882240   5.1282908   8.8729992  81.0634990  11.2029997
   8.0379992  81.5174990  11.3139997   9.3969992  81.3394990  11.9549997
   8.8296072  81.1628960  11.3198118   9.4169992  87.2764990   2.8879997
   8.6719992  86.7684990   2.5659997   9.2829992  87.3254990   3.8339997
   9.2969334  87.2136144   2.9718892  16.5669992  86.4094990  11.6749997
  17.2089992  86.8654990  11.1309997  15.7369992  86.5224990  11.2119997
  16.5426536  86.4871813  11.5379579  13.3149992  80.0904990   1.0869997
  12.3759992  80.2014990   0.9359997  13.6119992  80.9464990   1.3939997
  13.2266136  80.2214977   1.1078568  10.9369992  87.4604990  14.1249997
  10.5909992  87.0784990  14.9319997  10.7369992  88.3934990  14.1959997
  10.8625987  87.5344013  14.2450443  14.0329992  81.9574990   2.7479997
  14.9249992  81.8194990   3.0669997  14.0899992  82.7484990   2.2109997
  14.1627380  82.0454777   2.7190981 114.6859992  28.4634990  90.6299997
 114.9089992  28.0454990  91.4619997 114.0839992  27.8514990  90.2079997
 114.6350802  28.3235216  90.6867561   4.5419992  86.5714990   8.6579997
   5.2869992  86.5684990   8.0559997   4.6199992  85.7474990   9.1389997
   4.6543365  86.4597395   8.6407412  11.5429992  88.7344990   1.9129997
  11.2479992  89.5614990   2.2949997  10.8399992  88.1154990   2.1099997
  11.4076379  88.7639182   1.9918636   1.5499992  85.0314990  13.9729997
   1.7729992  84.6134990  14.8039997   0.9479992  84.4194990  13.5499997
   1.4991513  84.8914617  14.0296722   8.5669992  84.5484990  16.1859997
   8.2709992  84.3834990  15.2899997   9.4979992  84.3284990  16.1749997
   8.6524401  84.4961891  16.0620189  13.1869992  89.9224990  14.0749997
  12.2859992  90.1054990  13.8079997  13.2209992  90.1814990  14.9959997
  13.0683861  89.9825245  14.1629517  18.9179992  82.1664990   2.4429997
  18.3639992  81.7704990   1.7699997  19.0189992  83.0774990   2.1649997
  18.8558589  82.2353904   2.3133839  18.8809992  87.9674990  15.2799997
  18.0299992  88.2054990  14.9119997  19.4719992  87.9504990  14.5259997
  18.8443831  87.9977623  15.1278448  17.2129992  90.9524990   2.9079997
  16.8409992  90.1274990   3.2169997  17.4909992  90.7694990   2.0099997
  17.1995807  90.8147031   2.8290063  14.3739992  85.7604990   9.9289997
  13.4459992  85.5294990   9.9019997  14.8249992  84.9834990   9.5989997
  14.3078165  85.6237785   9.8806772   6.9169992  90.0894990   6.0619997
   7.4439992  90.8624990   5.8619997   6.0369992  90.3134990   5.7599997
   6.8702121  90.2257344   5.9937460 121.7029992  27.9804990  92.8429997
 121.4069992  27.8154990  91.9479997 122.6339992  27.7604990  92.8329997
 121.7883909  27.9281274  92.7190110   2.6719992  84.9514990   0.6489997
   3.2879992  85.5784990   1.0289997   1.8099992  85.2674990   0.9209997
   2.6397678  85.0799423   0.7377192   8.3439992  87.7524990   5.6379997
   8.1029992  88.6774990   5.6799997   7.6039992  87.2934990   6.0349997
   8.2109463  87.8170969   5.6974279   8.8589992  91.9014990  11.9529997
   9.2219992  92.7554990  11.7199997   9.3909992  91.6094990  12.6939997
   8.9805141  91.9788907  12.0212079   7.0269992  92.7734990   5.1839997
   6.0779992  92.8794990   5.2349997   7.3789992  93.5944990   5.5279997
   6.9445647  92.8990029   5.2374882  12.4029992  88.0004990  11.6539997
  11.9769992  87.7724990  12.4799997  12.9839992  87.2614990  11.4719997
  12.4232088  87.8694393  11.7424454  14.6059992  88.9294990   0.7279997
  14.9589992  88.5494990   1.5319997  13.6569992  88.8354990   0.8149997
  14.5260956  88.8647867   0.8498005  15.0619992  92.5524990  14.1229997
  14.4599992  91.9964990  13.6279997  15.3429992  93.2194990  13.4969997
  15.0175757  92.5665755  13.9705657  19.1089992  93.4084990   0.9289997
  19.8529992  93.9944990   0.7889997  18.4149992  93.9774990   1.2619997
  19.1169809  93.5655830   0.9548572   3.1839992  79.7854990  13.5309997
   2.2909992  80.1234990  13.4629997   3.0849992  78.9294990  13.9489997
   3.0484752  79.7160986  13.5781644  15.4719992  87.6014990   2.9549997
  15.1949992  86.8734990   3.5109997  16.3989992  87.7204990   3.1599997
  15.5594419  87.5179436   3.0588264 126.3229992  33.3544990  90.7329997
 125.4219992  33.5374990  90.4649997 126.3569992  33.6134990  91.6539997
 126.2043021  33.4145505  90.8208206   2.8349992  91.5894990  11.9659997
   3.0519992  90.6574990  11.9349997   3.0819992  91.8644990  12.8489997
   2.8980948  91.4990976  12.0811268   7.6339992  89.6114990   1.6309997
   7.7809992  89.0914990   2.4209997   7.6309992  90.5184990   1.9379997
   7.6537102  89.6628964   1.7805907   4.0869992  86.8634990   2.1419997
   3.4009992  87.2164990   2.7089997   4.6099992  87.6264990   1.8949997
   4.0638402  87.0148912   2.1861784  11.9179992  79.5264990  12.4209997
  12.6169992  79.6004990  13.0709997  11.5379992  78.6614990  12.5749997
  11.9622662  79.4197050  12.5307412  12.7029992  79.1784990   3.5179997
  12.9229992  79.6494990   2.7139997  13.2609992  79.5724990   4.1879997
  12.8086044  79.2962946   3.4985207  10.3719992  91.3084990   2.3809997
   9.5549992  91.8054990   2.4329997  10.9009992  91.7844990   1.7399997
  10.3318125  91.4407000   2.3015289   9.9029992  80.9064990   4.3529997
  10.7149992  81.4104990   4.3989997   9.6579992  80.7614990   5.2669997
   9.9811091  80.9559366   4.4828552  10.4389992  81.8924990  13.5369997
  10.5579992  82.4664990  14.2939997  11.0939992  81.2044990  13.6519997
  10.5438684  81.8780205  13.6561656  10.7869992  77.9874990   5.2909997
  10.4399992  78.6044990   5.9349997  11.4449992  78.4884990   4.8089997
  10.8284430  78.1396860   5.3140046   7.7099992  92.3524990   2.3619997
   7.8709992  93.1524990   1.8619997   7.5129992  92.6594990   3.2469997
   7.7053906  92.5033690   2.4132316 132.0539992  25.5984990  79.0999997
 131.4999992  25.2024990  78.4279997 132.1549992  26.5094990  78.8229997
 131.9917084  25.6673565  78.9704381   6.4439992  79.0504990   1.9779997
   6.3609992  79.9384990   2.3249997   7.3339992  78.7854990   2.2099997
   6.5529331  79.1361177   2.0568067  16.6429992  79.7994990  14.3719997
  15.7269992  80.0614990  14.2849997  16.9789992  79.7964990  13.4759997
  16.5628499  79.8350174  14.2388748  15.2449992  83.5494990   8.4679997
  14.4479992  83.1344990   8.1399997  15.6899992  82.8594990   8.9589997
  15.1960367  83.3993372   8.4894897   4.7029992  89.4774990   1.0379997
   5.2949992  90.1774990   1.3149997   5.1619992  89.0444990   0.3189997
   4.8461652  89.5147686   0.9786515   3.0189992  82.1424990   0.1539997
   2.9739992  83.0814990   0.3329997   2.1309992  81.9064990  -0.1150003
   2.8928166  82.2391698   0.1421507  16.3319992  92.8054990  10.0899997
  16.1759992  93.4844990   9.4329997  17.2639992  92.8774990  10.2929997
  16.4367328  92.9081586  10.0275529   3.8269992  76.9234990   8.8269997
   3.5979992  76.9824990   7.8999997   3.3839992  76.1324990   9.1339997
   3.7357387  76.8246412   8.7415223   2.7569992  90.8644990   4.9879997
   1.9249992  91.3364990   5.0149997   3.3029992  91.3744990   4.3889997
   2.7168710  90.9980317   4.9107570   2.0459992  93.4764990  16.3179997
   2.5859992  93.2604990  17.0779997   1.5639992  92.6714990  16.1279997
   2.0548485  93.3380463  16.3964870   6.6429992  92.3964990  17.9379997
   7.4109992  91.9374990  18.2789997   6.6219992  92.1704990  17.0079997
   6.7452135  92.3031680  17.8589473 132.0169992  31.3994990  91.9369997
 131.1659992  31.6374990  91.5699997 132.6079992  31.3824990  91.1839997
 131.9802468  31.4298251  91.7848902  10.7349992  91.9044990  -0.6870003
  10.0909992  91.2734990  -0.3650003  11.4969992  91.3734990  -0.9180003
  10.7498708  91.7463171  -0.6741539  13.2199992  90.7764990  16.6669997
  12.8689992  89.9194990  16.9099997  13.9459992  90.9184990  17.2739997
  13.2701590  90.6785189  16.7822889  15.3389992  91.7214990  -0.4530003
  15.6219992  90.9264990  -0.0000003  16.0789992  91.9544990  -1.0140003
  15.4777295  91.6442349  -0.4668531   1.9529992  87.2874990  17.2719997
   2.0969992  86.3854990  16.9859997   1.1799992  87.5734990  16.7849997
   1.8682266  87.2026548  17.1670102   6.2939992  87.6304990  -0.5950003
   6.3579992  86.8364990  -0.0650003   6.9469992  87.5124990  -1.2850003
   6.3910483  87.5057496  -0.6156593   8.6079992  87.2564990  16.7049997
   8.2799992  87.5274990  15.8479997   8.7599992  86.3154990  16.6169997
   8.5836412  87.1664058  16.5757804  14.3429992  87.1724990  14.0879997
  15.0879992  87.7614990  13.9689997  13.5849992  87.7544990  14.1509997
  14.3425289  87.3317067  14.0802292   2.7849992  84.4874990  16.6919997
   3.1929992  83.6304990  16.5709997   2.5249992  84.5014990  17.6129997
   2.8057082  84.3720596  16.7999469   7.4429992  85.6034990   1.7109997
   6.9839992  85.1194990   2.3959997   7.6979992  84.9344990   1.0749997
   7.4145997  85.4468491   1.7188734   6.7319992  83.4964990  14.0669997
   6.1139992  84.1704990  14.3469997   7.0759992  83.8174990  13.2329997
   6.6938078  83.6322298  13.9926609 130.3489992  34.3844990  79.5649997
 129.9769992  33.5594990  79.8749997 130.6269992  34.2014990  78.6679997
 130.3355997  34.2466160  79.4861551   8.5139992  83.8464990  -0.0270003
   8.3339992  83.6914990  -0.9540003   9.4639992  83.9544990   0.0179997
   8.6177804  83.8398821  -0.1478034  11.7519992  85.9674990  17.3439997
  12.7049992  86.0514990  17.3169997  11.5919992  85.2554990  17.9629997
  11.8607320  85.8827292  17.4239933  17.9039992  86.2004990  -0.5810003
  17.6309992  85.7764990  -1.3940003  17.9439992  87.1324990  -0.7980003
  17.8720201  86.2683523  -0.7216452   7.0719992  80.8514990  15.1489997
   7.2219992  80.1224990  14.5469997   7.0739992  81.6284990  14.5899997
   7.0927967  80.8567720  14.9910523   7.4839992  79.2204990  12.6419997
   8.0199992  79.6724990  11.9899997   6.6319992  79.1124990  12.2189997
   7.4421795  79.2677444  12.4956211   9.0659992  84.6604990  12.8809997
   9.8169992  84.5044990  12.3079997   8.7269992  85.5124990  12.6059997
   9.1229587  84.7543149  12.7654060  13.4819992  82.4754990  17.9099997
  13.6739992  81.5444990  17.7979997  14.3389992  82.9004990  17.8989997
  13.6242176  82.4055090  17.8931757  14.7979992  85.2644990  15.9869997
  14.5169992  85.9734990  15.4089997  15.7409992  85.1914990  15.8359997
  14.8869272  85.3516704  15.8874976   5.5499992  82.0494990  17.0599997
   4.7829992  81.5164990  16.8499997   6.2289992  81.7394990  16.4609997
   5.5368292  81.9346360  16.9502693   8.2899992  76.6774990  13.0729997
   8.1919992  77.6234990  12.9679997   7.5469992  76.3044990  12.5969997
   8.1762123  76.7566811  12.9943204 127.5099992  29.1924990  86.5869997
 126.5819992  28.9614990  86.5599997 127.9609992  28.4154990  86.2569997
 127.4438165  29.0557785  86.5386772   9.5539992  80.9984990  16.6369997
   9.3179992  80.7794990  17.5379997   8.7709992  80.7914990  16.1269997
   9.4158382  80.9405340  16.6913991  12.2699992  80.1264990  15.7119997
  11.3219992  80.1584990  15.8439997  12.5819992  79.5004990  16.3659997
  12.1825293  80.0462934  15.8184130  13.9039992  78.7604990  17.7169997
  13.8069992  77.8084990  17.7119997  13.5819992  79.0284990  18.5779997
  13.8472468  78.6665896  17.8326192   3.7309992  79.9694990  16.7649997
   3.9419992  79.2634990  16.1549997   3.6189992  79.5324990  17.6089997
   3.7447668  79.8136619  16.7955445   8.5119992  75.9714990  15.7439997
   9.2229992  75.3314990  15.7299997   8.4109992  76.2374990  14.8309997
   8.5956858  75.9198591  15.6185501   8.8649992  77.6534990  17.7979997
   8.7339992  77.1784990  16.9779997   8.2659992  78.3984990  17.7429997
   8.7660829  77.6890949  17.6781823   8.4119992  94.5364990   0.9739997
   9.3449992  94.6944990   1.1179997   8.1469992  95.2124990   0.3489997
   8.5039846  94.6494567   0.9092930   1.9799992  89.1734990   0.4569997
   2.8939992  89.2524990   0.7299997   1.9869992  88.4864990  -0.2090003
   2.1060624  89.0914074   0.4043045   0.6289992  94.5664990   5.5339997
  -0.0180008  94.1044990   5.0019997   0.9839992  93.8944990   6.1169997
   0.5883741  94.4124785   5.5399157   1.4989992  92.6464990   7.3389997
   1.1649992  91.7664990   7.5109997   1.7209992  92.9924990   8.2039997
   1.4832565  92.5727410   7.4794263 120.0529992  33.5214990  82.7199997
 120.5799992  34.2944990  82.5189997 119.1729992  33.7454990  82.4179997
 120.0061793  33.6576652  82.6516304  19.0479992  93.4564990  10.3199997
  19.0259992  93.6414990  11.2579997  19.7379992  94.0244990   9.9789997
  19.1383383  93.5587104  10.4024580  18.6109992  93.0234990  13.2409997
  18.1239992  92.2874990  12.8699997  19.1599992  92.6294990  13.9189997
  18.6186101  92.8696267  13.2819034  17.0619992  88.8134990  17.8789997
  16.1959992  88.7084990  18.2739997  17.4379992  89.5714990  18.3259997
  16.9944940  88.9016141  17.9933958  18.3629992  87.0694990   3.3939997
  19.2129992  87.4904990   3.5209997  18.3679992  86.3294990   4.0009997
  18.4801143  87.0271106   3.4934732  18.7569992  85.1234990   5.2169997
  18.0309992  84.6434990   5.6149997  19.3379992  85.3284990   5.9489997
  18.7362504  85.0855592   5.3704199  18.5159992  87.9084990  10.1649997
  19.3499992  87.5304990   9.8839997  18.6279992  88.8514990  10.0459997
  18.6451917  87.9842954  10.1104844  17.0019992  90.7864990  12.4719997
  16.3549992  91.1114990  13.0969997  16.4849992  90.3454990  11.7979997
  16.8434112  90.7714133  12.4665272  19.0249992  85.0244990   1.6079997
  18.5039992  85.3804990   0.8899997  18.9919992  85.6994990   2.2869997
  18.9490955  85.1645023   1.6012634  17.3739992  82.2634990   0.1589997
  17.4709992  82.9304990  -0.5210003  17.2339992  81.4484990  -0.3220003
  17.3683407  82.2445670   0.0008312  16.5439992  83.6444990   5.7799997
  16.3939992  82.6994990   5.7599997  16.1899992  83.9254990   6.6239997
  16.4756351  83.5531656   5.8913202 121.4799992  31.1844990  82.2959997
 121.2389992  32.1094990  82.3379997 120.7399992  30.7254990  82.6919997
 121.3468934  31.2490881  82.3553191   1.5789992  85.7224990   9.7909997
   1.7629992  85.6404990   8.8549997   2.4279992  85.5984990  10.2139997
   1.7190132  85.6945066   9.7201460  17.3999992  85.6144990  15.4189997
  17.9829992  84.8794990  15.6109997  17.9639992  86.3864990  15.4659997
  17.5559781  85.6183156  15.4516146  18.8969992  83.5174990  16.1039997
  18.0329992  83.1384990  15.9379997  19.5009992  82.7784990  16.0289997
  18.8605394  83.3658378  16.0711778  16.2539992  81.2264990   4.2429997
  16.5339992  80.3194990   4.3669997  17.0129992  81.6604990   3.8539997
  16.3949258  81.1610935   4.2073691  16.8659992  81.8084990   9.6789997
  17.7989992  82.0204990   9.6439997  16.6309992  81.9094990  10.6009997
  16.9619517  81.8511844   9.7989113  16.8949992  82.5454990  12.4549997
  16.0519992  82.8134990  12.8199997  17.3379992  83.3674990  12.2439997
  16.8394035  82.6933351  12.4764770   1.1759992  80.9924990  15.9309997
   2.0959992  80.8704990  16.1679997   0.7269992  80.2424990  16.3209997
   1.2410500  80.8744576  16.0161016  19.1779992  76.5254990  17.8079997
  19.5279992  75.8714990  17.2019997  19.3249992  77.3624990  17.3679997
  19.2457192  76.5492545  17.6656712  16.8679992  78.4894990   4.2909997
  17.0499992  78.0404990   5.1159997  16.2679992  77.9054990   3.8269997
  16.8118187  78.3490563   4.3412721   2.3979992  79.3054990   8.8229997
   2.8429992  78.5134990   9.1249997   2.8639992  80.0214990   9.2529997
   2.5219718  79.2939546   8.9225247 121.9949992  35.3334990  88.6109997
 122.3579992  36.1874990  88.3779997 122.5269992  35.0414990  89.3519997
 122.1165141  35.4108907  88.6792079   0.7019992  82.3044990   9.8919997
   1.1939992  82.0834990   9.1009997   1.0639992  83.1444990  10.1729997
   0.8182923  82.3878480   9.8217389  18.6979992  78.6344990  16.1569997
  17.7809992  78.9054990  16.1209997  18.8209992  78.0994990  15.3729997
  18.5890828  78.5992711  16.0460767  18.7339992  78.5574990   0.8189997
  19.1469992  77.8364990   0.3439997  19.4159992  79.2264990   0.8769997
  18.8826060  78.5493741   0.7619233   1.0149992  78.5624990   3.9459997
   0.0899992  78.7704990   3.8169997   1.4689992  79.0464990   3.2559997
   0.9496298  78.6564311   3.8350433  15.7859992  93.5464990   5.8919997
  16.4379992  93.1984990   5.2839997  16.2969992  94.0344990   6.5379997
  15.9442872  93.5648248   5.8960964   0.9789992  77.3004990  12.2899997
   0.3139992  77.0544990  12.9329997   0.5359992  77.9224990  11.7129997
   0.8281168  77.3509225  12.2999830   3.1709992  90.4754990  16.4349997
   2.3499992  90.6504990  15.9739997   2.9189992  90.4024990  17.3549997
   3.0245594  90.4895728  16.4963593   6.1249992  91.4494990  12.6929997
   5.6999992  92.2594990  12.4109997   7.0289992  91.5354990  12.3909997
   6.1890706  91.5719557  12.6135836  10.4359992  92.8484990  15.6529997
  10.6209992  92.5154990  16.5309997  11.2829992  93.1584990  15.3309997
  10.5757291  92.8448214  15.7296140  12.7809992  94.1344990  14.8969997
  13.4579992  93.5014990  14.6569997  13.1029992  94.5354990  15.7039997
  12.9171618  94.1021147  14.9732802 120.1629992  36.2054990  81.8409997
 119.2139992  36.3114990  81.8929997 120.5149992  37.0264990  82.1859997
 120.0806214  36.3309361  81.8947317  17.6989992  76.7244990  13.9759997
  16.8859992  77.0494990  13.5889997  17.9319992  75.9634990  13.4429997
  17.6191347  76.6661891  13.8509824   3.5269992  94.7064990  12.7409997
   2.8059992  95.1464990  12.2899997   3.1609992  94.4554990  13.5889997
   3.3789632  94.7327235  12.7939649   5.9939992  94.3064990  11.7699997
   5.1289992  94.3784990  12.1739997   5.9389992  94.8534990  10.9869997
   5.8682289  94.3903242  11.7193749  10.7049992  94.1944990  10.9459997
  10.2479992  94.7234990  10.2919997  10.8669992  94.7974990  11.6709997
  10.6643919  94.3483990  10.9545740  13.0319992  93.0724990  11.8909997
  12.1279992  93.2374990  11.6249997  13.4609992  93.9254990  11.8249997
  12.9662017  93.2104184  11.8456495  15.6359992  94.6424990  12.1859997
  15.4549992  95.5584990  11.9749997  15.8129992  94.2314990  11.3389997
  15.6351377  94.7123365  12.0427178   2.9419992  93.3294990   9.6509997
   2.9229992  92.9034990  10.5079997   3.7459992  93.0104990   9.2419997
   3.0481393  93.2280297   9.7130155   5.0829992  92.0394990   8.3059997
   4.8639992  91.1224990   8.4759997   5.9069992  92.1794990   8.7719997
   5.1644702  91.9330523   8.3922510   7.6199992  92.5094990   9.1549997
   7.8329992  91.6214990   8.8679997   7.6849992  92.4744990  10.1089997
   7.6579149  92.3833338   9.2447351  11.1289992  78.1734990   8.2989997
  10.4539992  77.5434990   8.5549997  11.6929992  77.6894990   7.6959997
  11.1129363  78.0218886   8.2524810 125.5389992  31.4324990  88.3119997
 125.1129992  31.2044990  89.1379997 126.1199992  30.6934990  88.1289997
 125.5591587  31.3014084  88.4004111  16.2709992  76.2804990   8.4119997
  16.8749992  76.8284990   7.9099997  15.4019992  76.5994990   8.1709997
  16.2360419  76.3985628   8.3107741  17.9979992  77.4194990   6.7449997
  18.6099992  76.9054990   6.2179997  18.3809992  78.2964990   6.7679997
  18.1333867  77.4677613   6.6760888   3.4549992  76.8074990   6.1209997
   2.6779992  76.5724990   5.6139997   3.9859992  76.0104990   6.1299997
   3.4203735  76.6676462   6.0528090   2.2919992  76.6054990   1.9249997
   2.7309992  77.2164990   1.3329997   1.6579992  77.1434990   2.3989997
   2.2663859  76.7619076   1.9080287   8.0349992  76.7334990   5.9339997
   8.9089992  77.1224990   5.9049997   7.8989992  76.5184990   6.8569997
   8.1361953  76.7576654   6.0547599  13.5909992  76.7634990   7.5839997
  13.6679992  76.8594990   6.6339997  13.3159992  75.8564990   7.7119997
  13.5643233  76.6539093   7.4713665  14.9449992  76.7894990   3.2759997
  14.2419992  77.4044990   3.0659997  14.4999992  75.9524990   3.4069997
  14.7886550  76.7604679   3.2649819   2.1929992  92.5534990   2.8219997
   1.5079992  92.5154990   2.1549997   2.1959992  93.4654990   3.1099997
   2.0996806  92.6716669   2.7696961   4.1529992  78.5214990   0.3669997
   4.6439992  77.8914990  -0.1600003   4.7759992  78.8174990   1.0299997
   4.3045304  78.4752387   0.3844922   9.1789992  78.8144990   2.8239997
   9.3569992  78.1674990   3.5069997   9.1249992  79.6484990   3.2909997
   9.1960678  78.8386615   2.9806283 128.1979992  35.9844990  90.7809997
 127.5959992  35.4284990  90.2859997 128.4789992  36.6514990  90.1549997
 128.1535757  35.9985755  90.6285657  11.0569992  93.7624990   1.2199997
  11.9229992  94.1294990   1.0419997  10.8099992  93.3234990   0.4059997
  11.1421853  93.7534021   1.0855813  17.7659992  93.3254990   3.8989997
  17.5719992  92.5774990   3.3339997  17.7269992  94.0834990   3.3159997
  17.7341645  93.3255797   3.7428131   3.4129992  77.3214990  15.6389997
   3.0469992  76.5554990  16.0809997   4.3259992  77.3504990  15.9249997
   3.4863172  77.2205335  15.7381872   5.3859992  76.6714990  17.1739997
   6.2849992  76.3974990  16.9899997   4.9999992  75.9294990  17.6389997
   5.4567307  76.5337207  17.2117080   4.0109992  93.4734990  -0.1530003
   3.7429992  93.7594990   0.7209997   4.7819992  92.9274990  -0.0000003
   4.0785926  93.4387790  -0.0128812  13.8069992  76.0044990  17.3569997
  13.8839992  75.5784990  18.2099997  14.7009992  76.0174990  17.0139997
  13.9383263  75.9479345  17.4274366  16.9839992  92.0764990  16.0489997
  16.2019992  91.8904990  15.5289997  16.9119992  93.0064990  16.2659997
  16.8672975  92.1766973  16.0071822  31.3899992  85.9634990   6.0799997
  31.4789992  86.9074990   5.9469997  30.7509992  85.6884990   5.4219997
  31.3158378  86.0553846   5.9729258  30.3229992  85.2184990   9.4989997
  30.2839992  84.5724990  10.2039997  29.9999992  84.7514990   8.7269997
  30.2740469  85.0670005   9.4912803  22.6909992  84.8324990  11.0919997
  22.7319992  84.2074990  11.8149997  23.3939992  85.4564990  11.2739997
  22.7916223  84.8312318  11.2156164 116.3199992  23.2174990  90.1879997
 115.4269992  23.5554990  90.1209997 116.2209992  22.3614990  90.6059997
 116.1845241  23.1480941  90.2352982  34.0289992  88.1574990   7.7999997
  33.5879992  87.4374990   8.2509997  34.0159992  88.8784990   8.4299997
  33.9669215  88.1564303   7.9468088  23.6149992  89.2824990   9.6269997
  23.2449992  88.4804990   9.2569997  24.5559992  89.1144990   9.6729997
  23.6915984  89.1499649   9.5825586  20.2249992  82.9424990   5.0189997
  19.7769992  83.7884990   5.0009997  19.6639992  82.3634990   4.5039997
  20.0878546  82.9799004   4.9468874  20.9349992  85.1044990   7.1449997
  21.1489992  84.3344990   7.6719997  21.6729992  85.1944990   6.5419997
  21.0640073  85.0113546   7.1355786  31.1399992  93.2614990   8.0119997
  31.7599992  92.5854990   7.7389997  30.9319992  93.0434990   8.9209997
  31.1967679  93.1395032   8.0974518  28.7119992  87.6504990   9.9049997
  29.0159992  86.9644990   9.3099997  29.4339992  87.7694990  10.5229997
  28.8511240  87.5727325   9.9070941  37.3749992  79.2524990  10.7649997
  37.4239992  79.8624990  11.5009997  37.8009992  79.7134990  10.0419997
  37.4392851  79.3983266  10.7680532  31.8529992  82.0444990  10.2319997
  31.9949992  81.0984990  10.2519997  31.7469992  82.2514990   9.3039997
  31.8581051  81.9429706  10.1092249  25.0079992  80.1464990   7.5049997
  25.0509992  81.0064990   7.0859997  24.5499992  79.5934990   6.8709997
  24.9520163  80.1894174   7.3620604  32.7299992  80.2774990   5.9049997
  33.3759992  79.9484990   6.5299997  33.2399992  80.7944990   5.2829997
  32.8874289  80.3024333   5.9063681 128.6079992  31.0334990  79.6119997
 128.3309992  30.3054990  80.1679997 129.5349992  31.1524990  79.8179997
 128.6954181  30.9500068  79.7158972  21.6279992  82.5434990   8.2669997
  22.2819992  81.9934990   8.6989997  21.6519992  82.2694990   7.3499997
  21.7207199  82.4312179   8.2021650  26.7839992  84.0934990   7.4819997
  27.3999992  83.5664990   7.9909997  26.1979992  83.4534990   7.0779997
  26.7890652  83.9348919   7.4970277  37.7669992  80.7304990  13.0009997
  37.0779992  81.3884990  12.9059997  37.7819992  80.5324990  13.9379997
  37.6747756  80.7937614  13.1145795  23.8179992  79.0644990  11.5789997
  23.5989992  79.5944990  10.8119997  23.1499992  79.2904990  12.2259997
  23.6976975  79.1675979  11.5615123  31.1869992  88.5644990   5.1229997
  30.8909992  88.2414990   4.2709997  30.8629992  89.4644990   5.1639997
  31.1027458  88.6419678   5.0120598  26.3869992  86.7394990  11.8659997
  25.6469992  87.3384990  11.9699997  27.1009992  87.2934990  11.5499997
  26.3823146  86.8962611  11.8375150  34.4939992  79.5684990   7.8859997
  34.2789992  78.8024990   8.4189997  35.1499992  80.0404990   8.3989997
  34.5532673  79.5275739   8.0281972  23.4119992  80.9564990   9.5309997
  24.0249992  81.5894990   9.9039997  23.9239992  80.4844990   8.8749997
  23.5651933  80.9793380   9.4933477  24.7939992  88.7044990  12.6529997
  24.7889992  89.5834990  12.2749997  23.9409992  88.6204990  13.0779997
  24.6779199  88.8135901  12.6586942  20.9159992  88.3754990   3.4349997
  20.6439992  88.6044990   2.5459997  20.9609992  89.2124990   3.8959997
  20.8848360  88.5201034   3.3756186 115.9709992  35.0214990  88.6229997
 116.1879992  34.0894990  88.5919997 116.2179992  35.2964990  89.5069997
 116.0340543  34.9310877  88.7381412  34.5409992  89.9964990  10.1479997
  33.5989992  90.0554990  10.3099997  34.8169992  90.9024990  10.0109997
  34.4495865  90.1270299  10.1516174  34.8409992  78.2834990  11.5649997
  34.1049992  78.8934990  11.5279997  35.5249992  78.6984990  11.0389997
  34.8325367  78.4232562  11.4888156  27.8439992  76.3694990   9.0309997
  27.7269992  75.4214990   8.9769997  26.9889992  76.7024990   9.3039997
  27.7123691  76.2845842   9.0605072  32.7929992  91.7774990   6.7729997
  33.2179992  91.0704990   6.2879997  33.1099992  92.5794990   6.3559997
  32.8940266  91.7890201   6.6502461  33.9519992  89.6784990   5.2819997
  33.6949992  88.9884990   4.6699997  34.0229992  89.2354990   6.1269997
  33.9264322  89.5241568   5.3125372  35.6379992  88.2454990  13.7589997
  35.7779992  87.6534990  13.0199997  35.8059992  89.1184990  13.4029997
  35.6798734  88.2824041  13.6096937  30.1109992  85.2074990   3.5319997
  29.3989992  85.7424990   3.1799997  30.8019992  85.2624990   2.8719997
  30.1069704  85.2881663   3.3945797  30.1649992  83.6644990   0.5699997
  30.8659992  83.6874990   1.2219997  30.4669992  83.0364990  -0.0860003
  30.3018202  83.5827223   0.5705591  37.4799992  84.5854990  11.8249997
  36.8279992  85.2794990  11.9139997  37.9449992  84.7954990  11.0149997
  37.4535357  84.7089544  11.7277056  33.5169992  85.4164990   4.4829997
  32.7849992  85.6454990   5.0559997  33.9639992  84.7034990   4.9379997
  33.4772753  85.3513984   4.6229698 117.2229992  30.2954990  78.7989997
 116.5369992  30.6484990  79.3659997 117.7459992  31.0584990  78.5529997
 117.1999033  30.4468757  78.8432644  33.4139992  83.5914990  13.5509997
  33.4939992  84.3544990  14.1229997  32.8129992  83.8704990  12.8609997
  33.3436547  83.7337468  13.5360029  25.1619992  86.0474990   6.3659997
  24.8319992  85.6764990   5.5479997  25.7499992  85.3764990   6.7129997
  25.1963182  85.9060648   6.3009898  26.5289992  89.4754990   9.0469997
  26.4339992  88.8964990   8.2909997  27.2579992  89.1044990   9.5429997
  26.6146011  89.3460572   9.0106011  25.5289992  84.8154990   9.9989997
  26.0939992  84.9374990   9.2369997  25.8469992  85.4534990  10.6379997
  25.6493619  84.9184388   9.9810019  31.8379992  90.3194990  10.7329997
  31.5969992  90.9814990  11.3809997  31.6399992  89.4844990  11.1579997
  31.7782662  90.2972704  10.8791008  26.4089992  89.2154990  14.7169997
  26.0969992  89.9974990  15.1719997  25.7589992  89.0624990  14.0309997
  26.2784858  89.3017882  14.6865344  32.3879992  84.5794990   2.1689997
  32.9669992  84.7294990   2.9149997  32.8019992  85.0494990   1.4449997
  32.5233358  84.6635966   2.1733935  23.3289992  85.4134990  13.9449997
  23.3989992  86.0644990  14.6439997  22.4379992  85.5164990  13.6099997
  23.2181690  85.5164261  13.9953026  30.1139992  91.3154990   5.6039997
  30.5879992  91.6114990   6.3809997  29.5509992  92.0544990   5.3709997
  30.1027890  91.4558047   5.6788084  24.6479992  91.2864990  15.4799997
  24.6559992  91.1504990  14.5329997  23.7319992  91.1694990  15.7319997
  24.5252528  91.2520475  15.3843226 125.0539992  22.9584990  89.0779997
 125.7529992  23.0324990  89.7279997 124.6739992  22.0934990  89.2329997
 125.0982095  22.8517402  89.1877982  36.0859992  76.3294990   1.9809997
  35.1859992  76.4674990   2.2769997  36.3379992  77.1604990   1.5799997
  35.9967727  76.4608705   1.9672935  24.1519992  85.1164990   3.9549997
  23.8599992  85.8844990   3.4639997  23.4779992  84.4574990   3.7919997
  24.0208843  85.1324537   3.8657695  37.2759992  90.6954990   0.3579997
  37.3489992  91.6344990   0.5279997  38.1809992  90.3904990   0.3019997
  37.4084170  90.7828294   0.3737045  20.2449992  87.4794990  12.7699997
  19.7439992  87.4514990  11.9549997  20.2509992  86.5744990  13.0799997
  20.1771690  87.3532234  12.7002770  19.9959992  90.2604990   9.6539997
  20.9419992  90.1154990   9.6349997  19.8829992  91.0444990  10.1909997
  20.1103578  90.3466708   9.7240300  38.1929992  90.9264990  15.3369997
  38.1439992  89.9704990  15.2989997  37.3669992  91.1934990  15.7379997
  38.0745096  90.8318416  15.3860698  29.1719992  90.5004990  14.2129997
  29.2589992  91.3264990  14.6879997  28.3079992  90.1704990  14.4619997
  29.0671944  90.5689871  14.3116558  29.5859992  94.2724990   4.0189997
  29.5109992  94.1514990   3.0719997  29.6189992  95.2214990   4.1369997
  29.5802083  94.3842639   3.9054973  23.2399992  93.0614990   5.7999997
  23.3919992  92.7134990   6.6779997  22.3889992  92.7044990   5.5439997
  23.1458344  92.9655891   5.8856851  32.6879992  93.4264990   1.0209997
  33.0629992  92.6824990   0.5499997  32.6919992  93.1564990   1.9389997
  32.7398969  93.2880920   1.0806475 125.8389992  22.6104990  80.1749997
 126.0589992  23.0814990  79.3719997 126.3969992  23.0044990  80.8459997
 125.9445851  22.7283272  80.1556134  32.3569992  93.3524990   3.7699997
  31.4219992  93.4524990   3.9489997  32.6369992  92.6424990   4.3489997
  32.2669471  93.2702944   3.8726678  35.3449992  82.4194990  15.8169997
  34.9379992  82.8994990  15.0959997  35.3859992  81.5134990  15.5089997
  35.2948403  82.3627989  15.6767253  22.4939992  88.8034990  13.8129997
  22.7099992  88.4414990  14.6729997  21.6389992  88.4284990  13.6039997
  22.4079082  88.7033377  13.9022396  25.1129992  77.2734990   9.8089997
  24.2509992  77.1864990   9.4009997  25.0909992  78.1294990  10.2369997
  24.9920557  77.3773078   9.8110202  29.7759992  76.9954990  13.1839997
  30.1959992  76.5804990  13.9369997  28.8429992  76.8164990  13.3009997
  29.7073736  76.9144921  13.3028950  33.1019992  80.7504990  14.0369997
  32.5879992  80.6254990  14.8349997  32.9469992  81.6634990  13.7929997
  33.0107802  80.8567433  14.1131504  33.8649992  85.6114990  -0.2020003
  33.9069992  85.3894990  -1.1320003  34.7139992  86.0104990  -0.0120003
  33.9855253  85.6350510  -0.3036196  29.4379992  79.4874990   0.4689997
  29.1839992  79.5064990   1.3909997  29.1809992  78.6164990   0.1669997
  29.3684508  79.3723292   0.5544786  25.2039992  82.2384990  10.9039997
  24.5619992  82.1984990  11.6129997  25.2409992  83.1654990  10.6659997
  25.1211659  82.3582540  10.9688463  25.2009992  82.4594990   5.8159997
  24.3079992  82.1194990   5.7569997  25.6519992  82.0824990   5.0599997
  25.1397185  82.3620220   5.7057698 123.5079992  34.7404990  79.0379997
 122.6909992  35.2374990  79.0909997 124.0369992  35.2164990  78.3979997
 123.4677898  34.8728123  78.9587274  30.7369992  82.8754990   4.6329997
  30.3279992  83.6904990   4.3409997  31.4569992  82.7354990   4.0189997
  30.7784439  82.9680383   4.5100098  29.8389992  83.0514990  16.1209997
  29.2759992  82.3464990  16.4419997  30.6649992  82.9304990  16.5889997
  29.8736674  82.9387176  16.2281734  31.7409992  82.3214990   7.4469997
  31.5459992  82.9274990   6.7319997  31.9229992  81.4884990   7.0129997
  31.7389195  82.2917936   7.2904079  22.9539992  82.5594990  12.7709997
  22.9159992  82.9594990  13.6399997  22.4629992  81.7424990  12.8609997
  22.8824374  82.5038228  12.9020980  26.3199992  79.9334990  -0.4300003
  25.8889992  79.4884990   0.2989997  25.6019992  80.3044990  -0.9430003
  26.1639176  79.9227063  -0.3995087  19.5619992  79.6754990   6.6219997
  20.1929992  79.6464990   7.3409997  20.0119992  79.2504990   5.8909997
  19.7091082  79.6141269   6.6216307  20.8359992  80.4214990   2.0459997
  21.3109992  81.0124990   1.4609997  20.1189992  80.9514990   2.3929997
  20.8040406  80.5741011   2.0128495  31.0049992  83.9594990  12.1179997
  31.3289992  83.3284990  11.4749997  30.5649992  83.4254990  12.7789997
  30.9898707  83.8008261  12.1193195  27.7829992  79.8874990   6.9019997
  26.8719992  79.9444990   7.1909997  28.2879992  79.8274990   7.7129997
  27.7266873  79.8871838   7.0511190  22.6109992  81.5164990   5.7289997
  21.7219992  81.6154990   5.3889997  22.9069992  80.6744990   5.3829997
  22.5294001  81.4162473   5.6357318 123.0389992  24.3384990  81.0099997
 123.8509992  24.8424990  81.0559997 122.7939992  24.1934990  81.9239997
 123.1171091  24.3879366  81.1398552  26.2639992  81.5164990   3.3859997
  27.1959992  81.6454990   3.5639997  26.0489992  82.1854990   2.7359997
  26.3624472  81.6245817   3.3224873  32.1879992  79.1224990  10.1659997
  31.5109992  79.2534990  10.8299997  31.7019992  78.9674990   9.3559997
  32.0297265  79.1194665  10.1473380  24.9379992  82.7104990   0.9519997
  24.3959992  82.3314990   0.2609997  25.7719992  82.9054990   0.5239997
  24.9764390  82.6849091   0.7994374  35.4749992  94.7934990  16.4429997
  35.6749992  95.2174990  15.6089997  36.1309992  95.1374990  17.0499997
  35.5909937  94.8979993  16.4108645  23.0729992  87.2674990  16.0509997
  23.8049992  87.5224990  16.6129997  22.2929992  87.4724990  16.5669997
  23.0676526  87.3300438  16.1975168  29.1029992  82.6744990   8.7889997
  29.6669992  82.1284990   8.2419997  28.9549992  82.1534990   9.5779997
  29.1603037  82.5291798   8.8207212  24.1049992  78.8114990   5.2079997
  23.7869992  77.9084990   5.1719997  24.8859992  78.8134990   4.6549997
  24.1671079  78.6882240   5.1282908  27.7289992  81.0634990  11.2029997
  26.8939992  81.5174990  11.3139997  28.2529992  81.3394990  11.9549997
  27.6856072  81.1628960  11.3198118  28.2729992  87.2764990   2.8879997
  27.5279992  86.7684990   2.5659997  28.1389992  87.3254990   3.8339997
  28.1529334  87.2136144   2.9718892  35.4229992  86.4094990  11.6749997
  36.0649992  86.8654990  11.1309997  34.5929992  86.5224990  11.2119997
  35.3986536  86.4871813  11.5379579 123.5749992  25.3244990  90.1949997
 123.6939992  25.8984990  90.9519997 124.2299992  24.6364990  90.3099997
 123.6798684  25.3100205  90.3141656  32.1709992  80.0904990   1.0869997
  31.2319992  80.2014990   0.9359997  32.4679992  80.9464990   1.3939997
  32.0826136  80.2214977   1.1078568  29.7929992  87.4604990  14.1249997
  29.4469992  87.0784990  14.9319997  29.5929992  88.3934990  14.1959997
  29.7185987  87.5344013  14.2450443  32.8889992  81.9574990   2.7479997
  33.7809992  81.8194990   3.0669997  32.9459992  82.7484990   2.2109997
  33.0187380  82.0454777   2.7190981  23.3979992  86.5714990   8.6579997
  24.1429992  86.5684990   8.0559997  23.4759992  85.7474990   9.1389997
  23.5103365  86.4597395   8.6407412  30.3989992  88.7344990   1.9129997
  30.1039992  89.5614990   2.2949997  29.6959992  88.1154990   2.1099997
  30.2636379  88.7639182   1.9918636  20.4059992  85.0314990  13.9729997
  20.6289992  84.6134990  14.8039997  19.8039992  84.4194990  13.5499997
  20.3551513  84.8914617  14.0296722  27.4229992  84.5484990  16.1859997
  27.1269992  84.3834990  15.2899997  28.3539992  84.3284990  16.1749997
  27.5084401  84.4961891  16.0620189  32.0429992  89.9224990  14.0749997
  31.1419992  90.1054990  13.8079997  32.0769992  90.1814990  14.9959997
  31.9243861  89.9825245  14.1629517  37.7739992  82.1664990   2.4429997
  37.2199992  81.7704990   1.7699997  37.8749992  83.0774990   2.1649997
  37.7118589  82.2353904   2.3133839  37.7369992  87.9674990  15.2799997
  36.8859992  88.2054990  14.9119997  38.3279992  87.9504990  14.5259997
  37.7003831  87.9977623  15.1278448 123.9229992  21.4194990  81.9479997
 123.5759992  22.0364990  82.5929997 124.5809992  21.9204990  81.4669997
 123.9645290  21.5716384  81.9711635  36.0689992  90.9524990   2.9079997
  35.6969992  90.1274990   3.2169997  36.3469992  90.7694990   2.0099997
  36.0555807  90.8147031   2.8290063  33.2299992  85.7604990   9.9289997
  32.3019992  85.5294990   9.9019997  33.6809992  84.9834990   9.5989997
  33.1638165  85.6237785   9.8806772  25.7729992  90.0894990   6.0619997
  26.2999992  90.8624990   5.8619997  24.8929992  90.3134990   5.7599997
  25.7262121  90.2257344   5.9937460  21.5279992  84.9514990   0.6489997
  22.1439992  85.5784990   1.0289997  20.6659992  85.2674990   0.9209997
  21.4957678  85.0799423   0.7377192  27.1999992  87.7524990   5.6379997
  26.9589992  88.6774990   5.6799997  26.4599992  87.2934990   6.0349997
  27.0669463  87.8170969   5.6974279  27.7149992  91.9014990  11.9529997
  28.0779992  92.7554990  11.7199997  28.2469992  91.6094990  12.6939997
  27.8365141  91.9788907  12.0212079  25.8829992  92.7734990   5.1839997
  24.9339992  92.8794990   5.2349997  26.2349992  93.5944990   5.5279997
  25.8005647  92.8990029   5.2374882  31.2589992  88.0004990  11.6539997
  30.8329992  87.7724990  12.4799997  31.8399992  87.2614990  11.4719997
  31.2792088  87.8694393  11.7424454  33.4619992  88.9294990   0.7279997
  33.8149992  88.5494990   1.5319997  32.5129992  88.8354990   0.8149997
  33.3820956  88.8647867   0.8498005  33.9179992  92.5524990  14.1229997
  33.3159992  91.9964990  13.6279997  34.1989992  93.2194990  13.4969997
  33.8735757  92.5665755  13.9705657 119.5799992  22.4824990  78.6359997
 119.4969992  23.3704990  78.9819997 120.4699992  22.2174990  78.8669997
 119.6889751  22.5682482  78.7146066  37.9649992  93.4084990   0.9289997
  38.7089992  93.9944990   0.7889997  37.2709992  93.9774990   1.2619997
  37.9729809  93.5655830   0.9548572  22.0399992  79.7854990  13.5309997
  21.1469992  80.1234990  13.4629997  21.9409992  78.9294990  13.9489997
  21.9044752  79.7160986  13.5781644  34.3279992  87.6014990   2.9549997
  34.0509992  86.8734990   3.5109997  35.2549992  87.7204990   3.1599997
  34.4154419  87.5179436   3.0588264  21.6909992  91.5894990  11.9659997
  21.9079992  90.6574990  11.9349997  21.9379992  91.8644990  12.8489997
  21.7540948  91.4990976  12.0811268  26.4899992  89.6114990   1.6309997
  26.6369992  89.0914990   2.4209997  26.4869992  90.5184990   1.9379997
  26.5097102  89.6628964   1.7805907  22.9429992  86.8634990   2.1419997
  22.2569992  87.2164990   2.7089997  23.4659992  87.6264990   1.8949997
  22.9198402  87.0148912   2.1861783  30.7739992  79.5264990  12.4209997
  31.4729992  79.6004990  13.0709997  30.3939992  78.6614990  12.5749997
  30.8182662  79.4197050  12.5307412  31.5589992  79.1784990   3.5179997
  31.7789992  79.6494990   2.7139997  32.1169992  79.5724990   4.1879997
  31.6646044  79.2962946   3.4985207  29.2279992  91.3084990   2.3809997
  28.4109992  91.8054990   2.4329997  29.7569992  91.7844990   1.7399997
  29.1878125  91.4407000   2.3015289  28.7589992  80.9064990   4.3529997
  29.5709992  81.4104990   4.3989997  28.5139992  80.7614990   5.2669997
  28.8371091  80.9559366   4.4828552 129.7789992  23.2314990  91.0299997
 128.8629992  23.4934990  90.9419997 130.1149992  23.2284990  90.1329997
 129.6989789  23.2669637  90.8967829  29.2949992  81.8924990  13.5369997
  29.4139992  82.4664990  14.2939997  29.9499992  81.2044990  13.6519997
  29.3998684  81.8780205  13.6561656  29.6429992  77.9874990   5.2909997
  29.2959992  78.6044990   5.9349997  30.3009992  78.4884990   4.8089997
  29.6844430  78.1396860   5.3140046  26.5659992  92.3524990   2.3619997
  26.7269992  93.1524990   1.8619997  26.3689992  92.6594990   3.2469997
  26.5613906  92.5033690   2.4132316  25.2999992  79.0504990   1.9779997
  25.2169992  79.9384990   2.3249997  26.1899992  78.7854990   2.2099997
  25.4089331  79.1361177   2.0568067  35.4989992  79.7994990  14.3719997
  34.5829992  80.0614990  14.2849997  35.8349992  79.7964990  13.4759997
  35.4188499  79.8350174  14.2388748  34.1009992  83.5494990   8.4679997
  33.3039992  83.1344990   8.1399997  34.5459992  82.8594990   8.9589997
  34.0520367  83.3993372   8.4894897  23.5589992  89.4774990   1.0379997
  24.1509992  90.1774990   1.3149997  24.0179992  89.0444990   0.3189997
  23.7021652  89.5147686   0.9786515  21.8749992  82.1424990   0.1539997
  21.8299992  83.0814990   0.3329997  20.9869992  81.9064990  -0.1150003
  21.7488166  82.2391698   0.1421507  35.1879992  92.8054990  10.0899997
  35.0319992  93.4844990   9.4329997  36.1199992  92.8774990  10.2929997
  35.2927328  92.9081586  10.0275529  22.6829992  76.9234990   8.8269997
  22.4539992  76.9824990   7.8999997  22.2399992  76.1324990   9.1339997
  22.5917387  76.8246412   8.7415223 128.3809992  26.9814990  85.1259997
 127.5839992  26.5664990  84.7969997 128.8259992  26.2914990  85.6169997
 128.3320317  26.8313197  85.1473556  21.6129992  90.8644990   4.9879997
  20.7809992  91.3364990   5.0149997  22.1589992  91.3744990   4.3889997
  21.5728710  90.9980317   4.9107570  20.9019992  93.4764990  16.3179997
  21.4419992  93.2604990  17.0779997  20.4199992  92.6714990  16.1279997
  20.9108485  93.3380463  16.3964870  25.4989992  92.3964990  17.9379997
  26.2669992  91.9374990  18.2789997  25.4779992  92.1704990  17.0079997
  25.6012135  92.3031680  17.8589473  29.5909992  91.9044990  -0.6870003
  28.9469992  91.2734990  -0.3650003  30.3529992  91.3734990  -0.9180003
  29.6058708  91.7463171  -0.6741539  32.0759992  90.7764990  16.6669997
  31.7249992  89.9194990  16.9099997  32.8019992  90.9184990  17.2739997
  32.1261590  90.6785189  16.7822889  34.1949992  91.7214990  -0.4530003
  34.4779992  90.9264990  -0.0000003  34.9349992  91.9544990  -1.0140003
  34.3337295  91.6442349  -0.4668531  20.8089992  87.2874990  17.2719997
  20.9529992  86.3854990  16.9859997  20.0359992  87.5734990  16.7849997
  20.7242266  87.2026548  17.1670102  25.1499992  87.6304990  -0.5950003
  25.2139992  86.8364990  -0.0650003  25.8029992  87.5124990  -1.2850003
  25.2470483  87.5057496  -0.6156593  27.4639992  87.2564990  16.7049997
  27.1359992  87.5274990  15.8479997  27.6159992  86.3154990  16.6169997
  27.4396412  87.1664058  16.5757804  33.1989992  87.1724990  14.0879997
  33.9439992  87.7614990  13.9689997  32.4409992  87.7544990  14.1509997
  33.1985289  87.3317067  14.0802292 129.4679992  36.2374990  86.7479997
 129.3119992  36.9164990  86.0909997 130.3999992  36.3094990  86.9509997
 129.5727328  36.3401586  86.6855529  21.6409992  84.4874990  16.6919997
  22.0489992  83.6304990  16.5709997  21.3809992  84.5014990  17.6129997
  21.6617082  84.3720596  16.7999469  26.2989992  85.6034990   1.7109997
  25.8399992  85.1194990   2.3959997  26.5539992  84.9344990   1.0749997
  26.2705997  85.4468491   1.7188734  25.5879992  83.4964990  14.0669997
  24.9699992  84.1704990  14.3469997  25.9319992  83.8174990  13.2329997
  25.5498078  83.6322298  13.9926609  27.3699992  83.8464990  -0.0270003
  27.1899992  83.6914990  -0.9540003  28.3199992  83.9544990   0.0179997
  27.4737804  83.8398821  -0.1478034  30.6079992  85.9674990  17.3439997
  31.5609992  86.0514990  17.3169997  30.4479992  85.2554990  17.9629997
  30.7167320  85.8827292  17.4239933  36.7599992  86.2004990  -0.5810003
  36.4869992  85.7764990  -1.3940003  36.7999992  87.1324990  -0.7980003
  36.7280201  86.2683523  -0.7216452  25.9279992  80.8514990  15.1489997
  26.0779992  80.1224990  14.5469997  25.9299992  81.6284990  14.5899997
  25.9487967  80.8567720  14.9910523  26.3399992  79.2204990  12.6419997
  26.8759992  79.6724990  11.9899997  25.4879992  79.1124990  12.2189997
  26.2981795  79.2677444  12.4956211  27.9219992  84.6604990  12.8809997
  28.6729992  84.5044990  12.3079997  27.5829992  85.5124990  12.6059997
  27.9789587  84.7543149  12.7654060  32.3379992  82.4754990  17.9099997
  32.5299992  81.5444990  17.7979997  33.1949992  82.9004990  17.8989997
  32.4802176  82.4055090  17.8931757 116.9629992  20.3554990  85.4849997
 116.7339992  20.4144990  84.5579997 116.5199992  19.5644990  85.7919997
 116.8717387  20.2566412  85.3995223  33.6539992  85.2644990  15.9869997
  33.3729992  85.9734990  15.4089997  34.5969992  85.1914990  15.8359997
  33.7429272  85.3516704  15.8874976  24.4059992  82.0494990  17.0599997
  23.6389992  81.5164990  16.8499997  25.0849992  81.7394990  16.4609997
  24.3928292  81.9346360  16.9502693  27.1459992  76.6774990  13.0729997
  27.0479992  77.6234990  12.9679997  26.4029992  76.3044990  12.5969997
  27.0322123  76.7566811  12.9943204  28.4099992  80.9984990  16.6369997
  28.1739992  80.7794990  17.5379997  27.6269992  80.7914990  16.1269997
  28.2718382  80.9405340  16.6913991  31.1259992  80.1264990  15.7119997
  30.1779992  80.1584990  15.8439997  31.4379992  79.5004990  16.3659997
  31.0385293  80.0462934  15.8184130  32.7599992  78.7604990  17.7169997
  32.6629992  77.8084990  17.7119997  32.4379992  79.0284990  18.5779997
  32.7032468  78.6665896  17.8326192  22.5869992  79.9694990  16.7649997
  22.7979992  79.2634990  16.1549997  22.4749992  79.5324990  17.6089997
  22.6007668  79.8136619  16.7955445  27.3679992  75.9714990  15.7439997
  28.0789992  75.3314990  15.7299997  27.2669992  76.2374990  14.8309997
  27.4516858  75.9198591  15.6185501  27.7209992  77.6534990  17.7979997
  27.5899992  77.1784990  16.9779997  27.1219992  78.3984990  17.7429997
  27.6220829  77.6890949  17.6781823  27.2679992  94.5364990   0.9739997
  28.2009992  94.6944990   1.1179997  27.0029992  95.2124990   0.3489997
  27.3599846  94.6494567   0.9092930 115.8929992  34.2964990  81.6459997
 115.0609992  34.7684990  81.6729997 116.4389992  34.8064990  81.0469997
 115.8528710  34.4300317  81.5687570  20.8359992  89.1734990   0.4569997
  21.7499992  89.2524990   0.7299997  20.8429992  88.4864990  -0.2090003
  20.9620624  89.0914074   0.4043045  19.4849992  94.5664990   5.5339997
  18.8379992  94.1044990   5.0019997  19.8399992  93.8944990   6.1169997
  19.4443741  94.4124785   5.5399157  20.3549992  92.6464990   7.3389997
  20.0209992  91.7664990   7.5109997  20.5769992  92.9924990   8.2039997
  20.3392565  92.5727410   7.4794263  37.9039992  93.4564990  10.3199997
  37.8819992  93.6414990  11.2579997  38.5939992  94.0244990   9.9789997
  37.9943383  93.5587104  10.4024580  37.4669992  93.0234990  13.2409997
  36.9799992  92.2874990  12.8699997  38.0159992  92.6294990  13.9189997
  37.4746101  92.8696267  13.2819034  35.9179992  88.8134990  17.8789997
  35.0519992  88.7084990  18.2739997  36.2939992  89.5714990  18.3259997
  35.8504940  88.9016141  17.9933958  37.2189992  87.0694990   3.3939997
  38.0689992  87.4904990   3.5209997  37.2239992  86.3294990   4.0009997
  37.3361143  87.0271106   3.4934732  37.6129992  85.1234990   5.2169997
  36.8869992  84.6434990   5.6149997  38.1939992  85.3284990   5.9489997
  37.5922504  85.0855592   5.3704199  37.3719992  87.9084990  10.1649997
  38.2059992  87.5304990   9.8839997  37.4839992  88.8514990  10.0459997
  37.5011917  87.9842954  10.1104844  35.8579992  90.7864990  12.4719997
  35.2109992  91.1114990  13.0969997  35.3409992  90.3454990  11.7979997
  35.6994112  90.7714133  12.4665272 115.1819992  36.9084990  92.9759997
 115.7219992  36.6924990  93.7349997 114.6999992  36.1034990  92.7859997
 115.1909101  36.7700216  93.0544364  37.8809992  85.0244990   1.6079997
  37.3599992  85.3804990   0.8899997  37.8479992  85.6994990   2.2869997
  37.8050955  85.1645023   1.6012634  36.2299992  82.2634990   0.1589997
  36.3269992  82.9304990  -0.5210003  36.0899992  81.4484990  -0.3220003
  36.2243407  82.2445670   0.0008312  35.3999992  83.6444990   5.7799997
  35.2499992  82.6994990   5.7599997  35.0459992  83.9254990   6.6239997
  35.3316351  83.5531656   5.8913202  20.4349992  85.7224990   9.7909997
  20.6189992  85.6404990   8.8549997  21.2839992  85.5984990  10.2139997
  20.5750132  85.6945066   9.7201460  36.2559992  85.6144990  15.4189997
  36.8389992  84.8794990  15.6109997  36.8199992  86.3864990  15.4659997
  36.4119781  85.6183156  15.4516146  37.7529992  83.5174990  16.1039997
  36.8889992  83.1384990  15.9379997  38.3569992  82.7784990  16.0289997
  37.7165394  83.3658378  16.0711778  35.1099992  81.2264990   4.2429997
  35.3899992  80.3194990   4.3669997  35.8689992  81.6604990   3.8539997
  35.2509258  81.1610935   4.2073691  35.7219992  81.8084990   9.6789997
  36.6549992  82.0204990   9.6439997  35.4869992  81.9094990  10.6009997
  35.8179517  81.8511844   9.7989113  35.7509992  82.5454990  12.4549997
  34.9079992  82.8134990  12.8199997  36.1939992  83.3674990  12.2439997
  35.6954035  82.6933351  12.4764770  20.0319992  80.9924990  15.9309997
  20.9519992  80.8704990  16.1679997  19.5829992  80.2424990  16.3209997
  20.0970500  80.8744576  16.0161016 119.7789992  35.8284990  94.5959997
 120.5469992  35.3694990  94.9369997 119.7579992  35.6024990  93.6659997
 119.8812135  35.7351680  94.5169473  38.0339992  76.5254990  17.8079997
  38.3839992  75.8714990  17.2019997  38.1809992  77.3624990  17.3679997
  38.1017192  76.5492545  17.6656712  35.7239992  78.4894990   4.2909997
  35.9059992  78.0404990   5.1159997  35.1239992  77.9054990   3.8269997
  35.6678187  78.3490563   4.3412721  21.2539992  79.3054990   8.8229997
  21.6989992  78.5134990   9.1249997  21.7199992  80.0214990   9.2529997
  21.3779718  79.2939546   8.9225247  19.5579992  82.3044990   9.8919997
  20.0499992  82.0834990   9.1009997  19.9199992  83.1444990  10.1729997
  19.6742923  82.3878480   9.8217389  37.5539992  78.6344990  16.1569997
  36.6369992  78.9054990  16.1209997  37.6769992  78.0994990  15.3729997
  37.4450828  78.5992711  16.0460767  37.5899992  78.5574990   0.8189997
  38.0029992  77.8364990   0.3439997  38.2719992  79.2264990   0.8769997
  37.7386060  78.5493741   0.7619233  19.8709992  78.5624990   3.9459997
  18.9459992  78.7704990   3.8169997  20.3249992  79.0464990   3.2559997
  19.8056298  78.6564311   3.8350433  34.6419992  93.5464990   5.8919997
  35.2939992  93.1984990   5.2839997  35.1529992  94.0344990   6.5379997
  34.8002872  93.5648248   5.8960964  19.8349992  77.3004990  12.2899997
  19.1699992  77.0544990  12.9329997  19.3919992  77.9224990  11.7129997
  19.6841168  77.3509225  12.2999830  22.0269992  90.4754990  16.4349997
  21.2059992  90.6504990  15.9739997  21.7749992  90.4024990  17.3549997
  21.8805594  90.4895728  16.4963593 126.3559992  34.2084990  93.3249997
 126.0049992  33.3514990  93.5679997 127.0819992  34.3504990  93.9319997
 126.4061590  34.1105189  93.4402889  24.9809992  91.4494990  12.6929997
  24.5559992  92.2594990  12.4109997  25.8849992  91.5354990  12.3909997
  25.0450706  91.5719557  12.6135836  29.2919992  92.8484990  15.6529997
  29.4769992  92.5154990  16.5309997  30.1389992  93.1584990  15.3309997
  29.4317291  92.8448214  15.7296140  31.6369992  94.1344990  14.8969997
  32.3139992  93.5014990  14.6569997  31.9589992  94.5354990  15.7039997
  31.7731618  94.1021147  14.9732802  36.5549992  76.7244990  13.9759997
  35.7419992  77.0494990  13.5889997  36.7879992  75.9634990  13.4429997
  36.4751347  76.6661891  13.8509824  22.3829992  94.7064990  12.7409997
  21.6619992  95.1464990  12.2899997  22.0169992  94.4554990  13.5889997
  22.2349632  94.7327235  12.7939649  24.8499992  94.3064990  11.7699997
  23.9849992  94.3784990  12.1739997  24.7949992  94.8534990  10.9869997
  24.7242289  94.3903242  11.7193749  29.5609992  94.1944990  10.9459997
  29.1039992  94.7234990  10.2919997  29.7229992  94.7974990  11.6709997
  29.5203919  94.3483990  10.9545740  31.8879992  93.0724990  11.8909997
  30.9839992  93.2374990  11.6249997  32.3169992  93.9254990  11.8249997
  31.8222017  93.2104184  11.8456495  34.4919992  94.6424990  12.1859997
  34.3109992  95.5584990  11.9749997  34.6689992  94.2314990  11.3389997
  34.4911377  94.7123365  12.0427178  21.7979992  93.3294990   9.6509997
  21.7789992  92.9034990  10.5079997  22.6019992  93.0104990   9.2419997
  21.9041393  93.2280297   9.7130155 128.4749992  35.1534990  76.2049997
 128.7579992  34.3584990  76.6579997 129.2149992  35.3864990  75.6439997
 128.6137295  35.0762349  76.1911469  23.9389992  92.0394990   8.3059997
  23.7199992  91.1224990   8.4759997  24.7629992  92.1794990   8.7719997
  24.0204702  91.9330523   8.3922510  26.4759992  92.5094990   9.1549997
  26.6889992  91.6214990   8.8679997  26.5409992  92.4744990  10.1089997
  26.5139149  92.3833338   9.2447351  29.9849992  78.1734990   8.2989997
  29.3099992  77.5434990   8.5549997  30.5489992  77.6894990   7.6959997
  29.9689363  78.0218886   8.2524810  35.1269992  76.2804990   8.4119997
  35.7309992  76.8284990   7.9099997  34.2579992  76.5994990   8.1709997
  35.0920419  76.3985628   8.3107741  36.8539992  77.4194990   6.7449997
  37.4659992  76.9054990   6.2179997  37.2369992  78.2964990   6.7679997
  36.9893867  77.4677613   6.6760888  22.3109992  76.8074990   6.1209997
  21.5339992  76.5724990   5.6139997  22.8419992  76.0104990   6.1299997
  22.2763735  76.6676462   6.0528090  21.1479992  76.6054990   1.9249997
  21.5869992  77.2164990   1.3329997  20.5139992  77.1434990   2.3989997
  21.1223859  76.7619076   1.9080287  26.8909992  76.7334990   5.9339997
  27.7649992  77.1224990   5.9049997  26.7549992  76.5184990   6.8569997
  26.9921953  76.7576654   6.0547599  32.4469992  76.7634990   7.5839997
  32.5239992  76.8594990   6.6339997  32.1719992  75.8564990   7.7119997
  32.4203233  76.6539093   7.4713665  33.8009992  76.7894990   3.2759997
  33.0979992  77.4044990   3.0659997  33.3559992  75.9524990   3.4069997
  33.6446550  76.7604679   3.2649819 115.0889992  30.7194990  93.9299997
 115.2329992  29.8174990  93.6439997 114.3159992  31.0054990  93.4419997
 115.0042854  30.6346876  93.8249363  21.0489992  92.5534990   2.8219997
  20.3639992  92.5154990   2.1549997  21.0519992  93.4654990   3.1099997
  20.9556806  92.6716669   2.7696961  23.0089992  78.5214990   0.3669997
  23.4999992  77.8914990  -0.1600003  23.6319992  78.8174990   1.0299997
  23.1605304  78.4752387   0.3844922  28.0349992  78.8144990   2.8239997
  28.2129992  78.1674990   3.5069997  27.9809992  79.6484990   3.2909997
  28.0520678  78.8386615   2.9806283  29.9129992  93.7624990   1.2199997
  30.7789992  94.1294990   1.0419997  29.6659992  93.3234990   0.4059997
  29.9981853  93.7534021   1.0855813  36.6219992  93.3254990   3.8989997
  36.4279992  92.5774990   3.3339997  36.5829992  94.0834990   3.3159997
  36.5901645  93.3255797   3.7428131  22.2689992  77.3214990  15.6389997
  21.9029992  76.5554990  16.0809997  23.1819992  77.3504990  15.9249997
  22.3423172  77.2205335  15.7381872  24.2419992  76.6714990  17.1739997
  25.1409992  76.3974990  16.9899997  23.8559992  75.9294990  17.6389997
  24.3127307  76.5337207  17.2117080  22.8669992  93.4734990  -0.1530003
  22.5989992  93.7594990   0.7209997  23.6379992  92.9274990  -0.0000003
  22.9345926  93.4387790  -0.0128812  32.6629992  76.0044990  17.3569997
  32.7399992  75.5784990  18.2099997  33.5569992  76.0174990  17.0139997
  32.7943263  75.9479345  17.4274366  35.8399992  92.0764990  16.0489997
  35.0579992  91.8904990  15.5289997  35.7679992  93.0064990  16.2659997
  35.7232975  92.1766973  16.0071822 121.7439992  30.6884990  93.3629997
 121.4159992  30.9594990  92.5049997 121.8959992  29.7474990  93.2749997
 121.7196970  30.5983694  93.2337953  50.2459992  85.9634990   6.0799997
  50.3349992  86.9074990   5.9469997  49.6069992  85.6884990   5.4219997
  50.1718378  86.0553846   5.9729258  49.1789992  85.2184990   9.4989997
  49.1399992  84.5724990  10.2039997  48.8559992  84.7514990   8.7269997
  49.1300469  85.0670005   9.4912803  41.5469992  84.8324990  11.0919997
  41.5879992  84.2074990  11.8149997  42.2499992  85.4564990  11.2739997
  41.6476223  84.8312318  11.2156164  52.8849992  88.1574990   7.7999997
  52.4439992  87.4374990   8.2509997  52.8719992  88.8784990   8.4299997
  52.8229215  88.1564303   7.9468088  42.4709992  89.2824990   9.6269997
  42.1009992  88.4804990   9.2569997  43.4119992  89.1144990   9.6729997
  42.5475984  89.1499649   9.5825586  39.0809992  82.9424990   5.0189997
  38.6329992  83.7884990   5.0009997  38.5199992  82.3634990   4.5039997
  38.9438546  82.9799004   4.9468874  39.7909992  85.1044990   7.1449997
  40.0049992  84.3344990   7.6719997  40.5289992  85.1944990   6.5419997
  39.9200073  85.0113546   7.1355786  49.9959992  93.2614990   8.0119997
  50.6159992  92.5854990   7.7389997  49.7879992  93.0434990   8.9209997
  50.0527679  93.1395032   8.0974518  47.5679992  87.6504990   9.9049997
  47.8719992  86.9644990   9.3099997  48.2899992  87.7694990  10.5229997
  47.7071240  87.5727325   9.9070941  56.2309992  79.2524990  10.7649997
  56.2799992  79.8624990  11.5009997  56.6569992  79.7134990  10.0419997
  56.2952851  79.3983266  10.7680532 127.4789992  30.6044990  90.7459997
 128.2239992  31.1934990  90.6259997 126.7209992  31.1864990  90.8089997
 127.4785185  30.7637000  90.7380940  50.7089992  82.0444990  10.2319997
  50.8509992  81.0984990  10.2519997  50.6029992  82.2514990   9.3039997
  50.7141051  81.9429706  10.1092249  43.8639992  80.1464990   7.5049997
  43.9069992  81.0064990   7.0859997  43.4059992  79.5934990   6.8709997
  43.8080163  80.1894174   7.3620604  51.5859992  80.2774990   5.9049997
  52.2319992  79.9484990   6.5299997  52.0959992  80.7944990   5.2829997
  51.7434289  80.3024333   5.9063681  40.4839992  82.5434990   8.2669997
  41.1379992  81.9934990   8.6989997  40.5079992  82.2694990   7.3499997
  40.5767199  82.4312178   8.2021650  45.6399992  84.0934990   7.4819997
  46.2559992  83.5664990   7.9909997  45.0539992  83.4534990   7.0779997
  45.6450652  83.9348919   7.4970277  56.6229992  80.7304990  13.0009997
  55.9339992  81.3884990  12.9059997  56.6379992  80.5324990  13.9379997
  56.5307756  80.7937614  13.1145795  42.6739992  79.0644990  11.5789997
  42.4549992  79.5944990  10.8119997  42.0059992  79.2904990  12.2259997
  42.5536975  79.1675979  11.5615123  50.0429992  88.5644990   5.1229997
  49.7469992  88.2414990   4.2709997  49.7189992  89.4644990   5.1639997
  49.9587458  88.6419678   5.0120598  45.2429992  86.7394990  11.8659997
  44.5029992  87.3384990  11.9699997  45.9569992  87.2934990  11.5499997
  45.2383146  86.8962611  11.8375150  53.3499992  79.5684990   7.8859997
  53.1349992  78.8024990   8.4189997  54.0059992  80.0404990   8.3989997
  53.4092673  79.5275739   8.0281972 115.9209992  27.9194990  93.3499997
 116.3289992  27.0624990  93.2289997 115.6609992  27.9334990  94.2709997
 115.9417082  27.8040596  93.4579469  42.2679992  80.9564990   9.5309997
  42.8809992  81.5894990   9.9039997  42.7799992  80.4844990   8.8749997
  42.4211933  80.9793380   9.4933477  43.6499992  88.7044990  12.6529997
  43.6449992  89.5834990  12.2749997  42.7969992  88.6204990  13.0779997
  43.5339199  88.8135901  12.6586942  39.7719992  88.3754990   3.4349997
  39.4999992  88.6044990   2.5459997  39.8169992  89.2124990   3.8959997
  39.7408360  88.5201034   3.3756186  53.3969992  89.9964990  10.1479997
  52.4549992  90.0554990  10.3099997  53.6729992  90.9024990  10.0109997
  53.3055865  90.1270299  10.1516174  53.6969992  78.2834990  11.5649997
  52.9609992  78.8934990  11.5279997  54.3809992  78.6984990  11.0389997
  53.6885367  78.4232562  11.4888156  46.6999992  76.3694990   9.0309997
  46.5829992  75.4214990   8.9769997  45.8449992  76.7024990   9.3039997
  46.5683691  76.2845842   9.0605072  51.6489992  91.7774990   6.7729997
  52.0739992  91.0704990   6.2879997  51.9659992  92.5794990   6.3559997
  51.7500266  91.7890201   6.6502461  52.8079992  89.6784990   5.2819997
  52.5509992  88.9884990   4.6699997  52.8789992  89.2354990   6.1269997
  52.7824322  89.5241568   5.3125372  54.4939992  88.2454990  13.7589997
  54.6339992  87.6534990  13.0199997  54.6619992  89.1184990  13.4029997
  54.5358734  88.2824041  13.6096937  48.9669992  85.2074990   3.5319997
  48.2549992  85.7424990   3.1799997  49.6579992  85.2624990   2.8719997
  48.9629704  85.2881663   3.3945797 120.5789992  29.0354990  78.3679997
 120.1199992  28.5514990  79.0539997 120.8339992  28.3664990  77.7319997
 120.5506178  28.8788511  78.3759785  49.0209992  83.6644990   0.5699997
  49.7219992  83.6874990   1.2219997  49.3229992  83.0364990  -0.0860003
  49.1578202  83.5827223   0.5705591  56.3359992  84.5854990  11.8249997
  55.6839992  85.2794990  11.9139997  56.8009992  84.7954990  11.0149997
  56.3095357  84.7089544  11.7277056  52.3729992  85.4164990   4.4829997
  51.6409992  85.6454990   5.0559997  52.8199992  84.7034990   4.9379997
  52.3332753  85.3513984   4.6229698  52.2699992  83.5914990  13.5509997
  52.3499992  84.3544990  14.1229997  51.6689992  83.8704990  12.8609997
  52.1996547  83.7337468  13.5360029  44.0179992  86.0474990   6.3659997
  43.6879992  85.6764990   5.5479997  44.6059992  85.3764990   6.7129997
  44.0523182  85.9060648   6.3009898  45.3849992  89.4754990   9.0469997
  45.2899992  88.8964990   8.2909997  46.1139992  89.1044990   9.5429997
  45.4706011  89.3460572   9.0106011  44.3849992  84.8154990   9.9989997
  44.9499992  84.9374990   9.2369997  44.7029992  85.4534990  10.6379997
  44.5053619  84.9184388   9.9810019  50.6939992  90.3194990  10.7329997
  50.4529992  90.9814990  11.3809997  50.4959992  89.4844990  11.1579997
  50.6342662  90.2972704  10.8791008  45.2649992  89.2154990  14.7169997
  44.9529992  89.9974990  15.1719997  44.6149992  89.0624990  14.0309997
  45.1344858  89.3017882  14.6865344  51.2439992  84.5794990   2.1689997
  51.8229992  84.7294990   2.9149997  51.6579992  85.0494990   1.4449997
  51.3793358  84.6635966   2.1733935 119.8679992  26.9284990  90.7239997
 119.2499992  27.6024990  91.0049997 120.2119992  27.2494990  89.8909997
 119.8298181  27.0643233  90.6498266  42.1849992  85.4134990  13.9449997
  42.2549992  86.0644990  14.6439997  41.2939992  85.5164990  13.6099997
  42.0741690  85.5164261  13.9953026  48.9699992  91.3154990   5.6039997
  49.4439992  91.6114990   6.3809997  48.4069992  92.0544990   5.3709997
  48.9587890  91.4558047   5.6788084  43.5039992  91.2864990  15.4799997
  43.5119992  91.1504990  14.5329997  42.5879992  91.1694990  15.7319997
  43.3812528  91.2520475  15.3843226  54.9419992  76.3294990   1.9809997
  54.0419992  76.4674990   2.2769997  55.1939992  77.1604990   1.5799997
  54.8527727  76.4608705   1.9672935  43.0079992  85.1164990   3.9549997
  42.7159992  85.8844990   3.4639997  42.3339992  84.4574990   3.7919997
  42.8768843  85.1324537   3.8657695  56.1319992  90.6954990   0.3579997
  56.2049992  91.6344990   0.5279997  57.0369992  90.3904990   0.3019997
  56.2644170  90.7828294   0.3737045  39.1009992  87.4794990  12.7699997
  38.5999992  87.4514990  11.9549997  39.1069992  86.5744990  13.0799997
  39.0331690  87.3532234  12.7002770  38.8519992  90.2604990   9.6539997
  39.7979992  90.1154990   9.6349997  38.7389992  91.0444990  10.1909997
  38.9663578  90.3466708   9.7240300  57.0489992  90.9264990  15.3369997
  56.9999992  89.9704990  15.2989997  56.2229992  91.1934990  15.7379997
  56.9305096  90.8318416  15.3860698  48.0279992  90.5004990  14.2129997
  48.1149992  91.3264990  14.6879997  47.1639992  90.1704990  14.4619997
  47.9231944  90.5689871  14.3116558 124.8879992  29.3994990  94.0019997
 125.8409992  29.4834990  93.9739997 124.7279992  28.6874990  94.6209997
 124.9968161  29.3147198  94.0818689  48.4419992  94.2724990   4.0189997
  48.3669992  94.1514990   3.0719997  48.4749992  95.2214990   4.1369997
  48.4362083  94.3842639   3.9054973  42.0959992  93.0614990   5.7999997
  42.2479992  92.7134990   6.6779997  41.2449992  92.7044990   5.5439997
  42.0018344  92.9655891   5.8856851  51.5439992  93.4264990   1.0209997
  51.9189992  92.6824990   0.5499997  51.5479992  93.1564990   1.9389997
  51.5958969  93.2880920   1.0806475  51.2129992  93.3524990   3.7699997
  50.2779992  93.4524990   3.9489997  51.4929992  92.6424990   4.3489997
  51.1229471  93.2702944   3.8726678  54.2009992  82.4194990  15.8169997
  53.7939992  82.8994990  15.0959997  54.2419992  81.5134990  15.5089997
  54.1508403  82.3627989  15.6767253  41.3499992  88.8034990  13.8129997
  41.5659992  88.4414990  14.6729997  40.4949992  88.4284990  13.6039997
  41.2639082  88.7033377  13.9022396  43.9689992  77.2734990   9.8089997
  43.1069992  77.1864990   9.4009997  43.9469992  78.1294990  10.2369997
  43.8480557  77.3773078   9.8110202  48.6319992  76.9954990  13.1839997
  49.0519992  76.5804990  13.9369997  47.6989992  76.8164990  13.3009997
  48.5633736  76.9144921  13.3028950  51.9579992  80.7504990  14.0369997
  51.4439992  80.6254990  14.8349997  51.8029992  81.6634990  13.7929997
  51.8667802  80.8567433  14.1131504  52.7209992  85.6114990  -0.2020003
  52.7629992  85.3894990  -1.1320003  53.5699992  86.0104990  -0.0120003
  52.8415253  85.6350510  -0.3036196 131.0399992  29.6324990  76.0759997
 130.7669992  29.2084990  75.2629997 131.0799992  30.5644990  75.8589997
 131.0080201  29.7003523  75.9353548  48.2939992  79.4874990   0.4689997
  48.0399992  79.5064990   1.3909997  48.0369992  78.6164990   0.1669997
  48.2244508  79.3723292   0.5544786  44.0599992  82.2384990  10.9039997
  43.4179992  82.1984990  11.6129997  44.0969992  83.1654990  10.6659997
  43.9771659  82.3582540  10.9688463  44.0569992  82.4594990   5.8159997
  43.1639992  82.1194990   5.7569997  44.5079992  82.0824990   5.0599997
  43.9957185  82.3620220   5.7057698  49.5929992  82.8754990   4.6329997
  49.1839992  83.6904990   4.3409997  50.3129992  82.7354990   4.0189997
  49.6344439  82.9680383   4.5100098  48.6949992  83.0514990  16.1209997
  48.1319992  82.3464990  16.4419997  49.5209992  82.9304990  16.5889997
  48.7296674  82.9387176  16.2281734  50.5969992  82.3214990   7.4469997
  50.4019992  82.9274990   6.7319997  50.7789992  81.4884990   7.0129997
  50.5949195  82.2917936   7.2904079  41.8099992  82.5594990  12.7709997
  41.7719992  82.9594990  13.6399997  41.3189992  81.7424990  12.8609997
  41.7384374  82.5038228  12.9020980  45.1759992  79.9334990  -0.4300003
  44.7449992  79.4884990   0.2989997  44.4579992  80.3044990  -0.9430003
  45.0199176  79.9227063  -0.3995087  38.4179992  79.6754990   6.6219997
  39.0489992  79.6464990   7.3409997  38.8679992  79.2504990   5.8909997
  38.5651082  79.6141269   6.6216307  39.6919992  80.4214990   2.0459997
  40.1669992  81.0124990   1.4609997  38.9749992  80.9514990   2.3929997
  39.6600406  80.5741011   2.0128495 120.2079992  24.2834990  91.8069997
 120.3579992  23.5544990  91.2039997 120.2099992  25.0604990  91.2479997
 120.2287664  24.2888971  91.6490525  49.8609992  83.9594990  12.1179997
  50.1849992  83.3284990  11.4749997  49.4209992  83.4254990  12.7789997
  49.8458707  83.8008261  12.1193195  46.6389992  79.8874990   6.9019997
  45.7279992  79.9444990   7.1909997  47.1439992  79.8274990   7.7129997
  46.5826873  79.8871838   7.0511190  41.4669992  81.5164990   5.7289997
  40.5779992  81.6154990   5.3889997  41.7629992  80.6744990   5.3829997
  41.3854001  81.4162473   5.6357318  45.1199992  81.5164990   3.3859997
  46.0519992  81.6454990   3.5639997  44.9049992  82.1854990   2.7359997
  45.2184472  81.6245817   3.3224873  51.0439992  79.1224990  10.1659997
  50.3669992  79.2534990  10.8299997  50.5579992  78.9674990   9.3559997
  50.8857265  79.1194665  10.1473380  43.7939992  82.7104990   0.9519997
  43.2519992  82.3314990   0.2609997  44.6279992  82.9054990   0.5239997
  43.8324390  82.6849091   0.7994374  54.3309992  94.7934990  16.4429997
  54.5309992  95.2174990  15.6089997  54.9869992  95.1374990  17.0499997
  54.4469937  94.8979993  16.4108645  41.9289992  87.2674990  16.0509997
  42.6609992  87.5224990  16.6129997  41.1489992  87.4724990  16.5669997
  41.9236526  87.3300438  16.1975168  47.9589992  82.6744990   8.7889997
  48.5229992  82.1284990   8.2419997  47.8109992  82.1534990   9.5779997
  48.0163037  82.5291798   8.8207212  42.9609992  78.8114990   5.2079997
  42.6429992  77.9084990   5.1719997  43.7419992  78.8134990   4.6549997
  43.0231079  78.6882240   5.1282908 120.6199992  22.6524990  89.2989997
 121.1559992  23.1044990  88.6469997 119.7679992  22.5444990  88.8769997
 120.5781648  22.6997883  89.1526395  46.5849992  81.0634990  11.2029997
  45.7499992  81.5174990  11.3139997  47.1089992  81.3394990  11.9549997
  46.5416072  81.1628960  11.3198118  47.1289992  87.2764990   2.8879997
  46.3839992  86.7684990   2.5659997  46.9949992  87.3254990   3.8339997
  47.0089334  87.2136144   2.9718892  54.2789992  86.4094990  11.6749997
  54.9209992  86.8654990  11.1309997  53.4489992  86.5224990  11.2119997
  54.2546536  86.4871813  11.5379579  51.0269992  80.0904990   1.0869997
  50.0879992  80.2014990   0.9359997  51.3239992  80.9464990   1.3939997
  50.9386136  80.2214977   1.1078568  48.6489992  87.4604990  14.1249997
  48.3029992  87.0784990  14.9319997  48.4489992  88.3934990  14.1959997
  48.5745987  87.5344013  14.2450443  51.7449992  81.9574990   2.7479997
  52.6369992  81.8194990   3.0669997  51.8019992  82.7484990   2.2109997
  51.8747380  82.0454777   2.7190981  42.2539992  86.5714990   8.6579997
  42.9989992  86.5684990   8.0559997  42.3319992  85.7474990   9.1389997
  42.3663366  86.4597395   8.6407412  49.2549992  88.7344990   1.9129997
  48.9599992  89.5614990   2.2949997  48.5519992  88.1154990   2.1099997
  49.1196379  88.7639182   1.9918636  39.2619992  85.0314990  13.9729997
  39.4849992  84.6134990  14.8039997  38.6599992  84.4194990  13.5499997
  39.2111513  84.8914617  14.0296722  46.2789992  84.5484990  16.1859997
  45.9829992  84.3834990  15.2899997  47.2099992  84.3284990  16.1749997
  46.3644401  84.4961891  16.0620189 122.2019992  28.0924990  89.5389997
 122.9529992  27.9364990  88.9659997 121.8629992  28.9444990  89.2629997
 122.2589052  28.1862745  89.4233469  50.8989992  89.9224990  14.0749997
  49.9979992  90.1054990  13.8079997  50.9329992  90.1814990  14.9959997
  50.7803861  89.9825245  14.1629517  56.6299992  82.1664990   2.4429997
  56.0759992  81.7704990   1.7699997  56.7309992  83.0774990   2.1649997
  56.5678589  82.2353904   2.3133839  56.5929992  87.9674990  15.2799997
  55.7419992  88.2054990  14.9119997  57.1839992  87.9504990  14.5259997
  56.5563831  87.9977623  15.1278448  54.9249992  90.9524990   2.9079997
  54.5529992  90.1274990   3.2169997  55.2029992  90.7694990   2.0099997
  54.9115807  90.8147031   2.8290063  52.0859992  85.7604990   9.9289997
  51.1579992  85.5294990   9.9019997  52.5369992  84.9834990   9.5989997
  52.0198165  85.6237785   9.8806772  44.6289992  90.0894990   6.0619997
  45.1559992  90.8624990   5.8619997  43.7489992  90.3134990   5.7599997
  44.5822121  90.2257344   5.9937460  40.3839992  84.9514990   0.6489997
  40.9999992  85.5784990   1.0289997  39.5219992  85.2674990   0.9209997
  40.3517678  85.0799423   0.7377192  46.0559992  87.7524990   5.6379997
  45.8149992  88.6774990   5.6799997  45.3159992  87.2934990   6.0349997
  45.9229463  87.8170969   5.6974279  46.5709992  91.9014990  11.9529997
  46.9339992  92.7554990  11.7199997  47.1029992  91.6094990  12.6939997
  46.6925141  91.9788907  12.0212079  44.7389992  92.7734990   5.1839997
  43.7899992  92.8794990   5.2349997  45.0909992  93.5944990   5.5279997
  44.6565647  92.8990029   5.2374882 126.6179992  25.9074990  94.5669997
 126.8099992  24.9764990  94.4559997 127.4749992  26.3324990  94.5569997
 126.7602320  25.8374743  94.5504433  50.1149992  88.0004990  11.6539997
  49.6889992  87.7724990  12.4799997  50.6959992  87.2614990  11.4719997
  50.1352088  87.8694393  11.7424454  52.3179992  88.9294990   0.7279997
  52.6709992  88.5494990   1.5319997  51.3689992  88.8354990   0.8149997
  52.2380956  88.8647867   0.8498005  52.7739992  92.5524990  14.1229997
  52.1719992  91.9964990  13.6279997  53.0549992  93.2194990  13.4969997
  52.7295757  92.5665755  13.9705657  56.8209992  93.4084990   0.9289997
  57.5649992  93.9944990   0.7889997  56.1269992  93.9774990   1.2619997
  56.8289809  93.5655830   0.9548572  40.8959992  79.7854990  13.5309997
  40.0029992  80.1234990  13.4629997  40.7969992  78.9294990  13.9489997
  40.7604752  79.7160986  13.5781644  53.1839992  87.6014990   2.9549997
  52.9069992  86.8734990   3.5109997  54.1109992  87.7204990   3.1599997
  53.2714419  87.5179436   3.0588264  40.5469992  91.5894990  11.9659997
  40.7639992  90.6574990  11.9349997  40.7939992  91.8644990  12.8489997
  40.6100948  91.4990976  12.0811268  45.3459992  89.6114990   1.6309997
  45.4929992  89.0914990   2.4209997  45.3429992  90.5184990   1.9379997
  45.3657102  89.6628964   1.7805907  41.7989992  86.8634990   2.1419997
  41.1129992  87.2164990   2.7089997  42.3219992  87.6264990   1.8949997
  41.7758402  87.0148912   2.1861784  49.6299992  79.5264990  12.4209997
  50.3289992  79.6004990  13.0709997  49.2499992  78.6614990  12.5749997
  49.6742662  79.4197050  12.5307412 127.9339992  28.6964990  92.6449997
 127.6529992  29.4054990  92.0669997 128.8769992  28.6234990  92.4939997
 128.0229272  28.7836704  92.5454976  50.4149992  79.1784990   3.5179997
  50.6349992  79.6494990   2.7139997  50.9729992  79.5724990   4.1879997
  50.5206044  79.2962946   3.4985207  48.0839992  91.3084990   2.3809997
  47.2669992  91.8054990   2.4329997  48.6129992  91.7844990   1.7399997
  48.0438125  91.4407000   2.3015289  47.6149992  80.9064990   4.3529997
  48.4269992  81.4104990   4.3989997  47.3699992  80.7614990   5.2669997
  47.6931091  80.9559366   4.4828552  48.1509992  81.8924990  13.5369997
  48.2699992  82.4664990  14.2939997  48.8059992  81.2044990  13.6519997
  48.2558684  81.8780205  13.6561656  48.4989992  77.9874990   5.2909997
  48.1519992  78.6044990   5.9349997  49.1569992  78.4884990   4.8089997
  48.5404430  78.1396860   5.3140046  45.4219992  92.3524990   2.3619997
  45.5829992  93.1524990   1.8619997  45.2249992  92.6594990   3.2469997
  45.4173906  92.5033690   2.4132316  44.1559992  79.0504990   1.9779997
  44.0729992  79.9384990   2.3249997  45.0459992  78.7854990   2.2099997
  44.2649331  79.1361177   2.0568067  54.3549992  79.7994990  14.3719997
  53.4389992  80.0614990  14.2849997  54.6909992  79.7964990  13.4759997
  54.2748499  79.8350174  14.2388748  52.9569992  83.5494990   8.4679997
  52.1599992  83.1344990   8.1399997  53.4019992  82.8594990   8.9589997
  52.9080367  83.3993372   8.4894897  42.4149992  89.4774990   1.0379997
  43.0069992  90.1774990   1.3149997  42.8739992  89.0444990   0.3189997
  42.5581652  89.5147686   0.9786515 118.6859992  25.4814990  93.7179997
 117.9189992  24.9484990  93.5079997 119.3649992  25.1714990  93.1189997
 118.6728292  25.3666360  93.6082693  40.7309992  82.1424990   0.1539997
  40.6859992  83.0814990   0.3329997  39.8429992  81.9064990  -0.1150003
  40.6048166  82.2391698   0.1421507  54.0439992  92.8054990  10.0899997
  53.8879992  93.4844990   9.4329997  54.9759992  92.8774990  10.2929997
  54.1487328  92.9081586  10.0275529  41.5389992  76.9234990   8.8269997
  41.3099992  76.9824990   7.8999997  41.0959992  76.1324990   9.1339997
  41.4477387  76.8246412   8.7415223  40.4689992  90.8644990   4.9879997
  39.6369992  91.3364990   5.0149997  41.0149992  91.3744990   4.3889997
  40.4288710  90.9980317   4.9107570  39.7579992  93.4764990  16.3179997
  40.2979992  93.2604990  17.0779997  39.2759992  92.6714990  16.1279997
  39.7668485  93.3380463  16.3964870  44.3549992  92.3964990  17.9379997
  45.1229992  91.9374990  18.2789997  44.3339992  92.1704990  17.0079997
  44.4572135  92.3031680  17.8589473  48.4469992  91.9044990  -0.6870003
  47.8029992  91.2734990  -0.3650003  49.2089992  91.3734990  -0.9180003
  48.4618708  91.7463171  -0.6741539  50.9319992  90.7764990  16.6669997
  50.5809992  89.9194990  16.9099997  51.6579992  90.9184990  17.2739997
  50.9821590  90.6785189  16.7822889  53.0509992  91.7214990  -0.4530003
  53.3339992  90.9264990  -0.0000003  53.7909992  91.9544990  -1.0140003
  53.1897295  91.6442349  -0.4668531  39.6649992  87.2874990  17.2719997
  39.8089992  86.3854990  16.9859997  38.8919992  87.5734990  16.7849997
  39.5802266  87.2026548  17.1670102 121.4259992  20.1094990  89.7309997
 121.3279992  21.0554990  89.6249997 120.6829992  19.7364990  89.2549997
 121.3122363  20.1885987  89.6522029  44.0059992  87.6304990  -0.5950003
  44.0699992  86.8364990  -0.0650003  44.6589992  87.5124990  -1.2850003
  44.1030483  87.5057496  -0.6156593  46.3199992  87.2564990  16.7049997
  45.9919992  87.5274990  15.8479997  46.4719992  86.3154990  16.6169997
  46.2956412  87.1664058  16.5757804  52.0549992  87.1724990  14.0879997
  52.7999992  87.7614990  13.9689997  51.2969992  87.7544990  14.1509997
  52.0545289  87.3317067  14.0802292  40.4969992  84.4874990  16.6919997
  40.9049992  83.6304990  16.5709997  40.2369992  84.5014990  17.6129997
  40.5177082  84.3720596  16.7999469  45.1549992  85.6034990   1.7109997
  44.6959992  85.1194990   2.3959997  45.4099992  84.9344990   1.0749997
  45.1265997  85.4468491   1.7188734  44.4439992  83.4964990  14.0669997
  43.8259992  84.1704990  14.3469997  44.7879992  83.8174990  13.2329997
  44.4058078  83.6322298  13.9926609  46.2259992  83.8464990  -0.0270003
  46.0459992  83.6914990  -0.9540003  47.1759992  83.9544990   0.0179997
  46.3297804  83.8398821  -0.1478034  49.4639992  85.9674990  17.3439997
  50.4169992  86.0514990  17.3169997  49.3039992  85.2554990  17.9629997
  49.5727320  85.8827292  17.4239933  55.6159992  86.2004990  -0.5810003
  55.3429992  85.7764990  -1.3940003  55.6559992  87.1324990  -0.7980003
  55.5840201  86.2683523  -0.7216452  44.7839992  80.8514990  15.1489997
  44.9339992  80.1224990  14.5469997  44.7859992  81.6284990  14.5899997
  44.8047967  80.8567720  14.9910523 122.6899992  24.4304990  93.2939997
 122.4539992  24.2114990  94.1959997 121.9069992  24.2234990  92.7849997
 122.5518444  24.3725688  93.3484518  45.1959992  79.2204990  12.6419997
  45.7319992  79.6724990  11.9899997  44.3439992  79.1124990  12.2189997
  45.1541795  79.2677444  12.4956211  46.7779992  84.6604990  12.8809997
  47.5289992  84.5044990  12.3079997  46.4389992  85.5124990  12.6059997
  46.8349587  84.7543149  12.7654060  51.1939992  82.4754990  17.9099997
  51.3859992  81.5444990  17.7979997  52.0509992  82.9004990  17.8989997
  51.3362176  82.4055090  17.8931757  52.5099992  85.2644990  15.9869997
  52.2289992  85.9734990  15.4089997  53.4529992  85.1914990  15.8359997
  52.5989272  85.3516704  15.8874976  43.2619992  82.0494990  17.0599997
  42.4949992  81.5164990  16.8499997  43.9409992  81.7394990  16.4609997
  43.2488292  81.9346360  16.9502693  46.0019992  76.6774990  13.0729997
  45.9039992  77.6234990  12.9679997  45.2589992  76.3044990  12.5969997
  45.8882123  76.7566811  12.9943204  47.2659992  80.9984990  16.6369997
  47.0299992  80.7794990  17.5379997  46.4829992  80.7914990  16.1269997
  47.1278382  80.9405340  16.6913991  49.9819992  80.1264990  15.7119997
  49.0339992  80.1584990  15.8439997  50.2939992  79.5004990  16.3659997
  49.8945293  80.0462934  15.8184130  51.6159992  78.7604990  17.7169997
  51.5189992  77.8084990  17.7119997  51.2939992  79.0284990  18.5779997
  51.5592468  78.6665896  17.8326192  41.4429992  79.9694990  16.7649997
  41.6539992  79.2634990  16.1549997  41.3309992  79.5324990  17.6089997
  41.4567668  79.8136619  16.7955445 125.4059992  23.5584990  92.3699997
 124.4579992  23.5904990  92.5019997 125.7179992  22.9324990  93.0239997
 125.3185293  23.4782934  92.4764130  46.2239992  75.9714990  15.7439997
  46.9349992  75.3314990  15.7299997  46.1229992  76.2374990  14.8309997
  46.3076858  75.9198591  15.6185501  46.5769992  77.6534990  17.7979997
  46.4459992  77.1784990  16.9779997  45.9779992  78.3984990  17.7429997
  46.4780829  77.6890949  17.6781823  46.1239992  94.5364990   0.9739997
  47.0569992  94.6944990   1.1179997  45.8589992  95.2124990   0.3489997
  46.2159846  94.6494567   0.9092930  39.6919992  89.1734990   0.4569997
  40.6059992  89.2524990   0.7299997  39.6989992  88.4864990  -0.2090003
  39.8180624  89.0914074   0.4043045  38.3409992  94.5664990   5.5339997
  37.6939992  94.1044990   5.0019997  38.6959992  93.8944990   6.1169997
  38.3003741  94.4124785   5.5399157  39.2109992  92.6464990   7.3389997
  38.8769992  91.7664990   7.5109997  39.4329992  92.9924990   8.2039997
  39.1952565  92.5727410   7.4794263  56.7599992  93.4564990  10.3199997
  56.7379992  93.6414990  11.2579997  57.4499992  94.0244990   9.9789997
  56.8503383  93.5587104  10.4024580  56.3229992  93.0234990  13.2409997
  55.8359992  92.2874990  12.8699997  56.8719992  92.6294990  13.9189997
  56.3306101  92.8696267  13.2819034  54.7739992  88.8134990  17.8789997
  53.9079992  88.7084990  18.2739997  55.1499992  89.5714990  18.3259997
  54.7064940  88.9016141  17.9933958  56.0749992  87.0694990   3.3939997
  56.9249992  87.4904990   3.5209997  56.0799992  86.3294990   4.0009997
  56.1921143  87.0271106   3.4934732 127.0399992  22.1924990  94.3749997
 126.9429992  21.2404990  94.3689997 126.7179992  22.4604990  95.2359997
 126.9832229  22.0984706  94.4905108  56.4689992  85.1234990   5.2169997
  55.7429992  84.6434990   5.6149997  57.0499992  85.3284990   5.9489997
  56.4482504  85.0855592   5.3704199  56.2279992  87.9084990  10.1649997
  57.0619992  87.5304990   9.8839997  56.3399992  88.8514990  10.0459997
  56.3571917  87.9842954  10.1104844  54.7139992  90.7864990  12.4719997
  54.0669992  91.1114990  13.0969997  54.1969992  90.3454990  11.7979997
  54.5554112  90.7714133  12.4665272  56.7369992  85.0244990   1.6079997
  56.2159992  85.3804990   0.8899997  56.7039992  85.6994990   2.2869997
  56.6610955  85.1645023   1.6012634  55.0859992  82.2634990   0.1589997
  55.1829992  82.9304990  -0.5210003  54.9459992  81.4484990  -0.3220003
  55.0803407  82.2445670   0.0008312  54.2559992  83.6444990   5.7799997
  54.1059992  82.6994990   5.7599997  53.9019992  83.9254990   6.6239997
  54.1876351  83.5531656   5.8913202  39.2909992  85.7224990   9.7909997
  39.4749992  85.6404990   8.8549997  40.1399992  85.5984990  10.2139997
  39.4310132  85.6945066   9.7201460  55.1119992  85.6144990  15.4189997
  55.6949992  84.8794990  15.6109997  55.6759992  86.3864990  15.4659997
  55.2679781  85.6183156  15.4516146  56.6089992  83.5174990  16.1039997
  55.7449992  83.1384990  15.9379997  57.2129992  82.7784990  16.0289997
  56.5725394  83.3658378  16.0711778  53.9659992  81.2264990   4.2429997
  54.2459992  80.3194990   4.3669997  54.7249992  81.6604990   3.8539997
  54.1069258  81.1610935   4.2073691 116.8669992  23.4014990  93.4229997
 117.0779992  22.6954990  92.8119997 116.7549992  22.9644990  94.2669997
 116.8807674  23.2456376  93.4534199  54.5779992  81.8084990   9.6789997
  55.5109992  82.0204990   9.6439997  54.3429992  81.9094990  10.6009997
  54.6739517  81.8511844   9.7989113  54.6069992  82.5454990  12.4549997
  53.7639992  82.8134990  12.8199997  55.0499992  83.3674990  12.2439997
  54.5514035  82.6933351  12.4764770  38.8879992  80.9924990  15.9309997
  39.8079992  80.8704990  16.1679997  38.4389992  80.2424990  16.3209997
  38.9530500  80.8744576  16.0161016  56.8899992  76.5254990  17.8079997
  57.2399992  75.8714990  17.2019997  57.0369992  77.3624990  17.3679997
  56.9577192  76.5492545  17.6656712  54.5799992  78.4894990   4.2909997
  54.7619992  78.0404990   5.1159997  53.9799992  77.9054990   3.8269997
  54.5238187  78.3490563   4.3412721  40.1099992  79.3054990   8.8229997
  40.5549992  78.5134990   9.1249997  40.5759992  80.0214990   9.2529997
  40.2339718  79.2939546   8.9225247  38.4139992  82.3044990   9.8919997
  38.9059992  82.0834990   9.1009997  38.7759992  83.1444990  10.1729997
  38.5302923  82.3878480   9.8217389  56.4099992  78.6344990  16.1569997
  55.4929992  78.9054990  16.1209997  56.5329992  78.0994990  15.3729997
  56.3010828  78.5992711  16.0460767  56.4459992  78.5574990   0.8189997
  56.8589992  77.8364990   0.3439997  57.1279992  79.2264990   0.8769997
  56.5946060  78.5493741   0.7619233  38.7269992  78.5624990   3.9459997
  37.8019992  78.7704990   3.8169997  39.1809992  79.0464990   3.2559997
  38.6616298  78.6564311   3.8350433 121.6479992  19.4034990  92.4019997
 122.3589992  18.7634990  92.3879997 121.5469992  19.6694990  91.4879997
 121.7316732  19.3518451  92.2765475  53.4979992  93.5464990   5.8919997
  54.1499992  93.1984990   5.2839997  54.0089992  94.0344990   6.5379997
  53.6562872  93.5648248   5.8960964  38.6909992  77.3004990  12.2899997
  38.0259992  77.0544990  12.9329997  38.2479992  77.9224990  11.7129997
  38.5401168  77.3509225  12.2999830  40.8829992  90.4754990  16.4349997
  40.0619992  90.6504990  15.9739997  40.6309992  90.4024990  17.3549997
  40.7365594  90.4895728  16.4963593  43.8369992  91.4494990  12.6929997
  43.4119992  92.2594990  12.4109997  44.7409992  91.5354990  12.3909997
  43.9010706  91.5719557  12.6135836  48.1479992  92.8484990  15.6529997
  48.3329992  92.5154990  16.5309997  48.9949992  93.1584990  15.3309997
  48.2877291  92.8448214  15.7296140  50.4929992  94.1344990  14.8969997
  51.1699992  93.5014990  14.6569997  50.8149992  94.5354990  15.7039997
  50.6291618  94.1021147  14.9732802  55.4109992  76.7244990  13.9759997
  54.5979992  77.0494990  13.5889997  55.6439992  75.9634990  13.4429997
  55.3311347  76.6661891  13.8509824  41.2389992  94.7064990  12.7409997
  40.5179992  95.1464990  12.2899997  40.8729992  94.4554990  13.5889997
  41.0909632  94.7327235  12.7939649  43.7059992  94.3064990  11.7699997
  42.8409992  94.3784990  12.1739997  43.6509992  94.8534990  10.9869997
  43.5802289  94.3903242  11.7193749  48.4169992  94.1944990  10.9459997
  47.9599992  94.7234990  10.2919997  48.5789992  94.7974990  11.6709997
  48.3763919  94.3483990  10.9545740 122.0009992  21.0854990  94.4559997
 121.8699992  20.6104990  93.6349997 121.4019992  21.8304990  94.3999997
 121.9021524  21.1211968  94.3361553  50.7439992  93.0724990  11.8909997
  49.8399992  93.2374990  11.6249997  51.1729992  93.9254990  11.8249997
  50.6782017  93.2104184  11.8456495  53.3479992  94.6424990  12.1859997
  53.1669992  95.5584990  11.9749997  53.5249992  94.2314990  11.3389997
  53.3471377  94.7123365  12.0427178  40.6539992  93.3294990   9.6509997
  40.6349992  92.9034990  10.5079997  41.4579992  93.0104990   9.2419997
  40.7601393  93.2280297   9.7130155  42.7949992  92.0394990   8.3059997
  42.5759992  91.1224990   8.4759997  43.6189992  92.1794990   8.7719997
  42.8764702  91.9330523   8.3922510  45.3319992  92.5094990   9.1549997
  45.5449992  91.6214990   8.8679997  45.3969992  92.4744990  10.1089997
  45.3699149  92.3833338   9.2447351  48.8409992  78.1734990   8.2989997
  48.1659992  77.5434990   8.5549997  49.4049992  77.6894990   7.6959997
  48.8249363  78.0218886   8.2524810  53.9829992  76.2804990   8.4119997
  54.5869992  76.8284990   7.9099997  53.1139992  76.5994990   8.1709997
  53.9480419  76.3985628   8.3107741  55.7099992  77.4194990   6.7449997
  56.3219992  76.9054990   6.2179997  56.0929992  78.2964990   6.7679997
  55.8453867  77.4677613   6.6760888  41.1669992  76.8074990   6.1209997
  40.3899992  76.5724990   5.6139997  41.6979992  76.0104990   6.1299997
  41.1323735  76.6676462   6.0528090  40.0039992  76.6054990   1.9249997
  40.4429992  77.2164990   1.3329997  39.3699992  77.1434990   2.3989997
  39.9783859  76.7619076   1.9080287 115.1159992  32.6054990  77.1149997
 116.0299992  32.6844990  77.3879997 115.1229992  31.9184990  76.4479997
 115.2420769  32.5234735  77.0622366  45.7469992  76.7334990   5.9339997
  46.6209992  77.1224990   5.9049997  45.6109992  76.5184990   6.8569997
  45.8481953  76.7576654   6.0547599  51.3029992  76.7634990   7.5839997
  51.3799992  76.8594990   6.6339997  51.0279992  75.8564990   7.7119997
  51.2763233  76.6539093   7.4713665  52.6569992  76.7894990   3.2759997
  51.9539992  77.4044990   3.0659997  52.2119992  75.9524990   3.4069997
  52.5006550  76.7604679   3.2649819  39.9049992  92.5534990   2.8219997
  39.2199992  92.5154990   2.1549997  39.9079992  93.4654990   3.1099997
  39.8116806  92.6716669   2.7696961  41.8649992  78.5214990   0.3669997
  42.3559992  77.8914990  -0.1600003  42.4879992  78.8174990   1.0299997
  42.0165304  78.4752387   0.3844922  46.8909992  78.8144990   2.8239997
  47.0689992  78.1674990   3.5069997  46.8369992  79.6484990   3.2909997
  46.9080678  78.8386615   2.9806283  48.7689992  93.7624990   1.2199997
  49.6349992  94.1294990   1.0419997  48.5219992  93.3234990   0.4059997
  48.8541853  93.7534021   1.0855813  55.4779992  93.3254990   3.8989997
  55.2839992  92.5774990   3.3339997  55.4389992  94.0834990   3.3159997
  55.4461645  93.3255797   3.7428131  41.1249992  77.3214990  15.6389997
  40.7589992  76.5554990  16.0809997  42.0379992  77.3504990  15.9249997
  41.1983172  77.2205335  15.7381872  43.0979992  76.6714990  17.1739997
  43.9969992  76.3974990  16.9899997  42.7119992  75.9294990  17.6389997
  43.1687307  76.5337207  17.2117080 113.7649992  37.9984990  82.1919997
 113.1179992  37.5364990  81.6589997 114.1199992  37.3264990  82.7749997
 113.7243861  37.8444707  82.1977939  41.7229992  93.4734990  -0.1530003
  41.4549992  93.7594990   0.7209997  42.4939992  92.9274990  -0.0000003
  41.7905926  93.4387790  -0.0128812  51.5189992  76.0044990  17.3569997
  51.5959992  75.5784990  18.2099997  52.4129992  76.0174990  17.0139997
  51.6503263  75.9479345  17.4274366  54.6959992  92.0764990  16.0489997
  53.9139992  91.8904990  15.5289997  54.6239992  93.0064990  16.2659997
  54.5792975  92.1766973  16.0071823  69.1019992  85.9634990   6.0799997
  69.1909992  86.9074990   5.9469997  68.4629992  85.6884990   5.4219997
  69.0278378  86.0553846   5.9729258  68.0349992  85.2184990   9.4989997
  67.9959992  84.5724990  10.2039997  67.7119992  84.7514990   8.7269997
  67.9860469  85.0670005   9.4912803  60.4029992  84.8324990  11.0919997
  60.4439992  84.2074990  11.8149997  61.1059992  85.4564990  11.2739997
  60.5036223  84.8312318  11.2156164  71.7409992  88.1574990   7.7999997
  71.2999992  87.4374990   8.2509997  71.7279992  88.8784990   8.4299997
  71.6789215  88.1564303   7.9468088  61.3269992  89.2824990   9.6269997
  60.9569992  88.4804990   9.2569997  62.2679992  89.1144990   9.6729997
  61.4035984  89.1499649   9.5825586  57.9369992  82.9424990   5.0189997
  57.4889992  83.7884990   5.0009997  57.3759992  82.3634990   4.5039997
  57.7998546  82.9799004   4.9468874  58.6469992  85.1044990   7.1449997
  58.8609992  84.3344990   7.6719997  59.3849992  85.1944990   6.5419997
  58.7760073  85.0113546   7.1355786 114.6349992  36.0784990  83.9969997
 114.3009992  35.1984990  84.1689997 114.8569992  36.4244990  84.8609997
 114.6192677  36.0047365  84.1374252  68.8519992  93.2614990   8.0119997
  69.4719992  92.5854990   7.7389997  68.6439992  93.0434990   8.9209997
  68.9087679  93.1395032   8.0974518  66.4239992  87.6504990   9.9049997
  66.7279992  86.9644990   9.3099997  67.1459992  87.7694990  10.5229997
  66.5631240  87.5727325   9.9070941  75.0869992  79.2524990  10.7649997
  75.1359992  79.8624990  11.5009997  75.5129992  79.7134990  10.0419997
  75.1512851  79.3983266  10.7680532  69.5649992  82.0444990  10.2319997
  69.7069992  81.0984990  10.2519997  69.4589992  82.2514990   9.3039997
  69.5701051  81.9429706  10.1092249  62.7199992  80.1464990   7.5049997
  62.7629992  81.0064990   7.0859997  62.2619992  79.5934990   6.8709997
  62.6640163  80.1894174   7.3620604  70.4419992  80.2774990   5.9049997
  71.0879992  79.9484990   6.5299997  70.9519992  80.7944990   5.2829997
  70.5994289  80.3024333   5.9063681  59.3399992  82.5434990   8.2669997
  59.9939992  81.9934990   8.6989997  59.3639992  82.2694990   7.3499997
  59.4327199  82.4312178   8.2021650  64.4959992  84.0934990   7.4819997
  65.1119992  83.5664990   7.9909997  63.9099992  83.4534990   7.0779997
  64.5010652  83.9348919   7.4970277  75.4789992  80.7304990  13.0009997
  74.7899992  81.3884990  12.9059997  75.4939992  80.5324990  13.9379997
  75.3867756  80.7937614  13.1145795  61.5299992  79.0644990  11.5789997
  61.3109992  79.5944990  10.8119997  60.8619992  79.2904990  12.2259997
  61.4096975  79.1675979  11.5615123 132.1839992  36.8884990  86.9769997
 132.1619992  37.0734990  87.9159997 132.8739992  37.4564990  86.6359997
 132.2743439  36.9906898  87.0594774  68.8989992  88.5644990   5.1229997
  68.6029992  88.2414990   4.2709997  68.5749992  89.4644990   5.1639997
  68.8147458  88.6419678   5.0120598  64.0989992  86.7394990  11.8659997
  63.3589992  87.3384990  11.9699997  64.8129992  87.2934990  11.5499997
  64.0943146  86.8962611  11.8375150  72.2059992  79.5684990   7.8859997
  71.9909992  78.8024990   8.4189997  72.8619992  80.0404990   8.3989997
  72.2652673  79.5275739   8.0281972  61.1239992  80.9564990   9.5309997
  61.7369992  81.5894990   9.9039997  61.6359992  80.4844990   8.8749997
  61.2771933  80.9793380   9.4933477  62.5059992  88.7044990  12.6529997
  62.5009992  89.5834990  12.2749997  61.6529992  88.6204990  13.0779997
  62.3899199  88.8135901  12.6586942  58.6279992  88.3754990   3.4349997
  58.3559992  88.6044990   2.5459997  58.6729992  89.2124990   3.8959997
  58.5968360  88.5201034   3.3756186  72.2529992  89.9964990  10.1479997
  71.3109992  90.0554990  10.3099997  72.5289992  90.9024990  10.0109997
  72.1615865  90.1270299  10.1516174  72.5529992  78.2834990  11.5649997
  71.8169992  78.8934990  11.5279997  73.2369992  78.6984990  11.0389997
  72.5445367  78.4232562  11.4888156  65.5559992  76.3694990   9.0309997
  65.4389992  75.4214990   8.9769997  64.7009992  76.7024990   9.3039997
  65.4243691  76.2845842   9.0605072  70.5049992  91.7774990   6.7729997
  70.9299992  91.0704990   6.2879997  70.8219992  92.5794990   6.3559997
  70.6060266  91.7890201   6.6502461 131.7469992  36.4554990  89.8989997
 131.2599992  35.7194990  89.5279997 132.2959992  36.0614990  90.5769997
 131.7546101  36.3016267  89.9399034  71.6639992  89.6784990   5.2819997
  71.4069992  88.9884990   4.6699997  71.7349992  89.2354990   6.1269997
  71.6384322  89.5241568   5.3125372  73.3499992  88.2454990  13.7589997
  73.4899992  87.6534990  13.0199997  73.5179992  89.1184990  13.4029997
  73.3918734  88.2824041  13.6096937  67.8229992  85.2074990   3.5319997
  67.1109992  85.7424990   3.1799997  68.5139992  85.2624990   2.8719997
  67.8189704  85.2881663   3.3945797  67.8769992  83.6644990   0.5699997
  68.5779992  83.6874990   1.2219997  68.1789992  83.0364990  -0.0860003
  68.0138202  83.5827223   0.5705591  75.1919992  84.5854990  11.8249997
  74.5399992  85.2794990  11.9139997  75.6569992  84.7954990  11.0149997
  75.1655357  84.7089544  11.7277056  71.2289992  85.4164990   4.4829997
  70.4969992  85.6454990   5.0559997  71.6759992  84.7034990   4.9379997
  71.1892753  85.3513984   4.6229698  71.1259992  83.5914990  13.5509997
  71.2059992  84.3544990  14.1229997  70.5249992  83.8704990  12.8609997
  71.0556547  83.7337468  13.5360029  62.8739992  86.0474990   6.3659997
  62.5439992  85.6764990   5.5479997  63.4619992  85.3764990   6.7129997
  62.9083182  85.9060648   6.3009898  64.2409992  89.4754990   9.0469997
  64.1459992  88.8964990   8.2909997  64.9699992  89.1044990   9.5429997
  64.3266011  89.3460572   9.0106011  63.2409992  84.8154990   9.9989997
  63.8059992  84.9374990   9.2369997  63.5589992  85.4534990  10.6379997
  63.3613619  84.9184388   9.9810019 130.1979992  32.2454990  94.5369997
 129.3319992  32.1404990  94.9309997 130.5739992  33.0034990  94.9839997
 130.1303768  32.3336151  94.6513258  69.5499992  90.3194990  10.7329997
  69.3089992  90.9814990  11.3809997  69.3519992  89.4844990  11.1579997
  69.4902662  90.2972704  10.8791008  64.1209992  89.2154990  14.7169997
  63.8089992  89.9974990  15.1719997  63.4709992  89.0624990  14.0309997
  63.9904858  89.3017882  14.6865344  70.0999992  84.5794990   2.1689997
  70.6789992  84.7294990   2.9149997  70.5139992  85.0494990   1.4449997
  70.2353358  84.6635966   2.1733935  61.0409992  85.4134990  13.9449997
  61.1109992  86.0644990  14.6439997  60.1499992  85.5164990  13.6099997
  60.9301690  85.5164261  13.9953026  67.8259992  91.3154990   5.6039997
  68.2999992  91.6114990   6.3809997  67.2629992  92.0544990   5.3709997
  67.8147890  91.4558047   5.6788084  62.3599992  91.2864990  15.4799997
  62.3679992  91.1504990  14.5329997  61.4439992  91.1694990  15.7319997
  62.2372528  91.2520475  15.3843226  73.7979992  76.3294990   1.9809997
  72.8979992  76.4674990   2.2769997  74.0499992  77.1604990   1.5799997
  73.7087727  76.4608705   1.9672935  61.8639992  85.1164990   3.9549997
  61.5719992  85.8844990   3.4639997  61.1899992  84.4574990   3.7919997
  61.7328843  85.1324537   3.8657695  74.9879992  90.6954990   0.3579997
  75.0609992  91.6344990   0.5279997  75.8929992  90.3904990   0.3019997
  75.1204170  90.7828294   0.3737045  57.9569992  87.4794990  12.7699997
  57.4559992  87.4514990  11.9549997  57.9629992  86.5744990  13.0799997
  57.8891690  87.3532234  12.7002770 131.4989992  30.5014990  80.0509997
 132.3489992  30.9224990  80.1789997 131.5039992  29.7614990  80.6589997
 131.6159745  30.4591347  80.1506479  57.7079992  90.2604990   9.6539997
  58.6539992  90.1154990   9.6349997  57.5949992  91.0444990  10.1909997
  57.8223578  90.3466708   9.7240300  75.9049992  90.9264990  15.3369997
  75.8559992  89.9704990  15.2989997  75.0789992  91.1934990  15.7379997
  75.7865096  90.8318416  15.3860698  66.8839992  90.5004990  14.2129997
  66.9709992  91.3264990  14.6879997  66.0199992  90.1704990  14.4619997
  66.7791944  90.5689871  14.3116558  67.2979992  94.2724990   4.0189997
  67.2229992  94.1514990   3.0719997  67.3309992  95.2214990   4.1369997
  67.2922083  94.3842639   3.9054973  60.9519992  93.0614990   5.7999997
  61.1039992  92.7134990   6.6779997  60.1009992  92.7044990   5.5439997
  60.8578344  92.9655891   5.8856851  70.3999992  93.4264990   1.0209997
  70.7749992  92.6824990   0.5499997  70.4039992  93.1564990   1.9389997
  70.4518969  93.2880920   1.0806475  70.0689992  93.3524990   3.7699997
  69.1339992  93.4524990   3.9489997  70.3489992  92.6424990   4.3489997
  69.9789471  93.2702944   3.8726678  73.0569992  82.4194990  15.8169997
  72.6499992  82.8994990  15.0959997  73.0979992  81.5134990  15.5089997
  73.0068403  82.3627989  15.6767253  60.2059992  88.8034990  13.8129997
  60.4219992  88.4414990  14.6729997  59.3509992  88.4284990  13.6039997
  60.1199082  88.7033377  13.9022396  62.8249992  77.2734990   9.8089997
  61.9629992  77.1864990   9.4009997  62.8029992  78.1294990  10.2369997
  62.7040557  77.3773078   9.8110202 131.8929992  28.5554990  81.8749997
 131.1669992  28.0754990  82.2729997 132.4739992  28.7604990  82.6069997
 131.8722504  28.5175592  82.0284199  67.4879992  76.9954990  13.1839997
  67.9079992  76.5804990  13.9369997  66.5549992  76.8164990  13.3009997
  67.4193736  76.9144921  13.3028950  70.8139992  80.7504990  14.0369997
  70.2999992  80.6254990  14.8349997  70.6589992  81.6634990  13.7929997
  70.7227802  80.8567433  14.1131504  71.5769992  85.6114990  -0.2020003
  71.6189992  85.3894990  -1.1320003  72.4259992  86.0104990  -0.0120003
  71.6975253  85.6350510  -0.3036196  67.1499992  79.4874990   0.4689997
  66.8959992  79.5064990   1.3909997  66.8929992  78.6164990   0.1669997
  67.0804508  79.3723292   0.5544786  62.9159992  82.2384990  10.9039997
  62.2739992  82.1984990  11.6129997  62.9529992  83.1654990  10.6659997
  62.8331659  82.3582540  10.9688463  62.9129992  82.4594990   5.8159997
  62.0199992  82.1194990   5.7569997  63.3639992  82.0824990   5.0599997
  62.8517185  82.3620220   5.7057698  68.4489992  82.8754990   4.6329997
  68.0399992  83.6904990   4.3409997  69.1689992  82.7354990   4.0189997
  68.4904439  82.9680383   4.5100098  67.5509992  83.0514990  16.1209997
  66.9879992  82.3464990  16.4419997  68.3769992  82.9304990  16.5889997
  67.5856674  82.9387176  16.2281734  69.4529992  82.3214990   7.4469997
  69.2579992  82.9274990   6.7319997  69.6349992  81.4884990   7.0129997
  69.4509195  82.2917936   7.2904079  60.6659992  82.5594990  12.7709997
  60.6279992  82.9594990  13.6399997  60.1749992  81.7424990  12.8609997
  60.5944374  82.5038228  12.9020980 131.6519992  31.3404990  86.8229997
 132.4859992  30.9624990  86.5419997 131.7639992  32.2834990  86.7039997
 131.7811917  31.4162954  86.7684844  64.0319992  79.9334990  -0.4300003
  63.6009992  79.4884990   0.2989997  63.3139992  80.3044990  -0.9430003
  63.8759176  79.9227063  -0.3995087  57.2739992  79.6754990   6.6219997
  57.9049992  79.6464990   7.3409997  57.7239992  79.2504990   5.8909997
  57.4211082  79.6141269   6.6216307  58.5479992  80.4214990   2.0459997
  59.0229992  81.0124990   1.4609997  57.8309992  80.9514990   2.3929997
  58.5160406  80.5741011   2.0128495  68.7169992  83.9594990  12.1179997
  69.0409992  83.3284990  11.4749997  68.2769992  83.4254990  12.7789997
  68.7018707  83.8008261  12.1193195  65.4949992  79.8874990   6.9019997
  64.5839992  79.9444990   7.1909997  65.9999992  79.8274990   7.7129997
  65.4386873  79.8871838   7.0511190  60.3229992  81.5164990   5.7289997
  59.4339992  81.6154990   5.3889997  60.6189992  80.6744990   5.3829997
  60.2414001  81.4162473   5.6357318  63.9759992  81.5164990   3.3859997
  64.9079992  81.6454990   3.5639997  63.7609992  82.1854990   2.7359997
  64.0744472  81.6245817   3.3224873  69.8999992  79.1224990  10.1659997
  69.2229992  79.2534990  10.8299997  69.4139992  78.9674990   9.3559997
  69.7417265  79.1194665  10.1473380  62.6499992  82.7104990   0.9519997
  62.1079992  82.3314990   0.2609997  63.4839992  82.9054990   0.5239997
  62.6884390  82.6849091   0.7994374  73.1869992  94.7934990  16.4429997
  73.3869992  95.2174990  15.6089997  73.8429992  95.1374990  17.0499997
  73.3029937  94.8979993  16.4108645 130.1379992  34.2184990  89.1299997
 129.4909992  34.5434990  89.7549997 129.6209992  33.7774990  88.4549997
 129.9794068  34.2034726  89.1244918  60.7849992  87.2674990  16.0509997
  61.5169992  87.5224990  16.6129997  60.0049992  87.4724990  16.5669997
  60.7796526  87.3300438  16.1975168  66.8149992  82.6744990   8.7889997
  67.3789992  82.1284990   8.2419997  66.6669992  82.1534990   9.5779997
  66.8723037  82.5291798   8.8207212  61.8169992  78.8114990   5.2079997
  61.4989992  77.9084990   5.1719997  62.5979992  78.8134990   4.6549997
  61.8791079  78.6882240   5.1282908  65.4409992  81.0634990  11.2029997
  64.6059992  81.5174990  11.3139997  65.9649992  81.3394990  11.9549997
  65.3976072  81.1628960  11.3198118  65.9849992  87.2764990   2.8879997
  65.2399992  86.7684990   2.5659997  65.8509992  87.3254990   3.8339997
  65.8649334  87.2136144   2.9718892  73.1349992  86.4094990  11.6749997
  73.7769992  86.8654990  11.1309997  72.3049992  86.5224990  11.2119997
  73.1106536  86.4871813  11.5379579  69.8829992  80.0904990   1.0869997
  68.9439992  80.2014990   0.9359997  70.1799992  80.9464990   1.3939997
  69.7946136  80.2214977   1.1078568  67.5049992  87.4604990  14.1249997
  67.1589992  87.0784990  14.9319997  67.3049992  88.3934990  14.1959997
  67.4305987  87.5344013  14.2450443  70.6009992  81.9574990   2.7479997
  71.4929992  81.8194990   3.0669997  70.6579992  82.7484990   2.2109997
  70.7307380  82.0454777   2.7190981  61.1099992  86.5714990   8.6579997
  61.8549992  86.5684990   8.0559997  61.1879992  85.7474990   9.1389997
  61.2223365  86.4597395   8.6407412 132.1609992  28.4564990  78.2659997
 131.6399992  28.8124990  77.5469997 132.1279992  29.1314990  78.9439997
 132.0851525  28.5965273  78.2591408  68.1109992  88.7344990   1.9129997
  67.8159992  89.5614990   2.2949997  67.4079992  88.1154990   2.1099997
  67.9756379  88.7639182   1.9918636  58.1179992  85.0314990  13.9729997
  58.3409992  84.6134990  14.8039997  57.5159992  84.4194990  13.5499997
  58.0671513  84.8914617  14.0296722  65.1349992  84.5484990  16.1859997
  64.8389992  84.3834990  15.2899997  66.0659992  84.3284990  16.1749997
  65.2204401  84.4961891  16.0620189  69.7549992  89.9224990  14.0749997
  68.8539992  90.1054990  13.8079997  69.7889992  90.1814990  14.9959997
  69.6363861  89.9825245  14.1629517  75.4859992  82.1664990   2.4429997
  74.9319992  81.7704990   1.7699997  75.5869992  83.0774990   2.1649997
  75.4238589  82.2353904   2.3133839  75.4489992  87.9674990  15.2799997
  74.5979992  88.2054990  14.9119997  76.0399992  87.9504990  14.5259997
  75.4123831  87.9977623  15.1278448  73.7809992  90.9524990   2.9079997
  73.4089992  90.1274990   3.2169997  74.0589992  90.7694990   2.0099997
  73.7675807  90.8147031   2.8290063  70.9419992  85.7604990   9.9289997
  70.0139992  85.5294990   9.9019997  71.3929992  84.9834990   9.5989997
  70.8758165  85.6237785   9.8806772  63.4849992  90.0894990   6.0619997
  64.0119992  90.8624990   5.8619997  62.6049992  90.3134990   5.7599997
  63.4382121  90.2257344   5.9937460  59.2399992  84.9514990   0.6489997
  59.8559992  85.5784990   1.0289997  58.3779992  85.2674990   0.9209997
  59.2077678  85.0799423   0.7377192 129.6799992  27.0764990  82.4379997
 129.5299992  26.1314990  82.4179997 129.3259992  27.3574990  83.2819997
 129.6116351  26.9851656  82.5493202  64.9119992  87.7524990   5.6379997
  64.6709992  88.6774990   5.6799997  64.1719992  87.2934990   6.0349997
  64.7789463  87.8170969   5.6974279  65.4269992  91.9014990  11.9529997
  65.7899992  92.7554990  11.7199997  65.9589992  91.6094990  12.6939997
  65.5485141  91.9788907  12.0212079  63.5949992  92.7734990   5.1839997
  62.6459992  92.8794990   5.2349997  63.9469992  93.5944990   5.5279997
  63.5125647  92.8990029   5.2374882  68.9709992  88.0004990  11.6539997
  68.5449992  87.7724990  12.4799997  69.5519992  87.2614990  11.4719997
  68.9912088  87.8694393  11.7424454  71.1739992  88.9294990   0.7279997
  71.5269992  88.5494990   1.5319997  70.2249992  88.8354990   0.8149997
  71.0940956  88.8647867   0.8498005  71.6299992  92.5524990  14.1229997
  71.0279992  91.9964990  13.6279997  71.9109992  93.2194990  13.4969997
  71.5855757  92.5665755  13.9705657  75.6769992  93.4084990   0.9289997
  76.4209992  93.9944990   0.7889997  74.9829992  93.9774990   1.2619997
  75.6849809  93.5655830   0.9548572  59.7519992  79.7854990  13.5309997
  58.8589992  80.1234990  13.4629997  59.6529992  78.9294990  13.9489997
  59.6164752  79.7160986  13.5781644  72.0399992  87.6014990   2.9549997
  71.7629992  86.8734990   3.5109997  72.9669992  87.7204990   3.1599997
  72.1274419  87.5179436   3.0588264  59.4029992  91.5894990  11.9659997
  59.6199992  90.6574990  11.9349997  59.6499992  91.8644990  12.8489997
  59.4660948  91.4990976  12.0811268 114.7149992  29.1544990  86.4479997
 114.8989992  29.0724990  85.5129997 115.5639992  29.0304990  86.8719997
 114.8550259  29.1264915  86.3771771  64.2019992  89.6114990   1.6309997
  64.3489992  89.0914990   2.4209997  64.1989992  90.5184990   1.9379997
  64.2217102  89.6628964   1.7805907  60.6549992  86.8634990   2.1419997
  59.9689992  87.2164990   2.7089997  61.1779992  87.6264990   1.8949997
  60.6318402  87.0148912   2.1861784  68.4859992  79.5264990  12.4209997
  69.1849992  79.6004990  13.0709997  68.1059992  78.6614990  12.5749997
  68.5302662  79.4197050  12.5307412  69.2709992  79.1784990   3.5179997
  69.4909992  79.6494990   2.7139997  69.8289992  79.5724990   4.1879997
  69.3766044  79.2962946   3.4985207  66.9399992  91.3084990   2.3809997
  66.1229992  91.8054990   2.4329997  67.4689992  91.7844990   1.7399997
  66.8998125  91.4407000   2.3015289  66.4709992  80.9064990   4.3529997
  67.2829992  81.4104990   4.3989997  66.2259992  80.7614990   5.2669997
  66.5491091  80.9559366   4.4828552  67.0069992  81.8924990  13.5369997
  67.1259992  82.4664990  14.2939997  67.6619992  81.2044990  13.6519997
  67.1118684  81.8780205  13.6561656  67.3549992  77.9874990   5.2909997
  67.0079992  78.6044990   5.9349997  68.0129992  78.4884990   4.8089997
  67.3964430  78.1396860   5.3140046  64.2779992  92.3524990   2.3619997
  64.4389992  93.1524990   1.8619997  64.0809992  92.6594990   3.2469997
  64.2733906  92.5033690   2.4132316  63.0119992  79.0504990   1.9779997
  62.9289992  79.9384990   2.3249997  63.9019992  78.7854990   2.2099997
  63.1209331  79.1361177   2.0568067 130.5359992  29.0464990  92.0769997
 131.1189992  28.3114990  92.2679997 131.0999992  29.8184990  92.1229997
 130.6920326  29.0502746  92.1093579  73.2109992  79.7994990  14.3719997
  72.2949992  80.0614990  14.2849997  73.5469992  79.7964990  13.4759997
  73.1308499  79.8350174  14.2388748  71.8129992  83.5494990   8.4679997
  71.0159992  83.1344990   8.1399997  72.2579992  82.8594990   8.9589997
  71.7640367  83.3993372   8.4894897  61.2709992  89.4774990   1.0379997
  61.8629992  90.1774990   1.3149997  61.7299992  89.0444990   0.3189997
  61.4141652  89.5147686   0.9786515  59.5869992  82.1424990   0.1539997
  59.5419992  83.0814990   0.3329997  58.6989992  81.9064990  -0.1150003
  59.4608166  82.2391698   0.1421507  72.8999992  92.8054990  10.0899997
  72.7439992  93.4844990   9.4329997  73.8319992  92.8774990  10.2929997
  73.0047328  92.9081586  10.0275529  60.3949992  76.9234990   8.8269997
  60.1659992  76.9824990   7.8999997  59.9519992  76.1324990   9.1339997
  60.3037387  76.8246412   8.7415223  59.3249992  90.8644990   4.9879997
  58.4929992  91.3364990   5.0149997  59.8709992  91.3744990   4.3889997
  59.2848710  90.9980317   4.9107570  58.6139992  93.4764990  16.3179997
  59.1539992  93.2604990  17.0779997  58.1319992  92.6714990  16.1279997
  58.6228485  93.3380463  16.3964870  63.2109992  92.3964990  17.9379997
  63.9789992  91.9374990  18.2789997  63.1899992  92.1704990  17.0079997
  63.3132135  92.3031680  17.8589473  67.3029992  91.9044990  -0.6870003
  66.6589992  91.2734990  -0.3650003  68.0649992  91.3734990  -0.9180003
  67.3178708  91.7463171  -0.6741539 132.0329992  26.9494990  92.7609997
 131.1689992  26.5704990  92.5959997 132.6369992  26.2104990  92.6869997
 131.9964912  26.7977937  92.7284360  69.7879992  90.7764990  16.6669997
  69.4369992  89.9194990  16.9099997  70.5139992  90.9184990  17.2739997
  69.8381590  90.6785189  16.7822889  71.9069992  91.7214990  -0.4530003
  72.1899992  90.9264990  -0.0000003  72.6469992  91.9544990  -1.0140003
  72.0457295  91.6442349  -0.4668531  58.5209992  87.2874990  17.2719997
  58.6649992  86.3854990  16.9859997  57.7479992  87.5734990  16.7849997
  58.4362266  87.2026548  17.1670102  62.8619992  87.6304990  -0.5950003
  62.9259992  86.8364990  -0.0650003  63.5149992  87.5124990  -1.2850003
  62.9590483  87.5057496  -0.6156593  65.1759992  87.2564990  16.7049997
  64.8479992  87.5274990  15.8479997  65.3279992  86.3154990  16.6169997
  65.1516412  87.1664058  16.5757804  70.9109992  87.1724990  14.0879997
  71.6559992  87.7614990  13.9689997  70.1529992  87.7544990  14.1509997
  70.9105289  87.3317067  14.0802292  59.3529992  84.4874990  16.6919997
  59.7609992  83.6304990  16.5709997  59.0929992  84.5014990  17.6129997
  59.3737082  84.3720596  16.7999469  64.0109992  85.6034990   1.7109997
  63.5519992  85.1194990   2.3959997  64.2659992  84.9344990   1.0749997
  63.9825997  85.4468491   1.7188734  63.2999992  83.4964990  14.0669997
  62.6819992  84.1704990  14.3469997  63.6439992  83.8174990  13.2329997
  63.2618078  83.6322298  13.9926609  65.0819992  83.8464990  -0.0270003
  64.9019992  83.6914990  -0.9540003  66.0319992  83.9544990   0.0179997
  65.1857804  83.8398821  -0.1478034 129.3899992  24.6584990  80.8999997
 129.6699992  23.7514990  81.0249997 130.1489992  25.0924990  80.5109997
 129.5309471  24.5930654  80.8645051  68.3199992  85.9674990  17.3439997
  69.2729992  86.0514990  17.3169997  68.1599992  85.2554990  17.9629997
  68.4287320  85.8827292  17.4239933  74.4719992  86.2004990  -0.5810003
  74.1989992  85.7764990  -1.3940003  74.5119992  87.1324990  -0.7980003
  74.4400201  86.2683523  -0.7216452  63.6399992  80.8514990  15.1489997
  63.7899992  80.1224990  14.5469997  63.6419992  81.6284990  14.5899997
  63.6607967  80.8567720  14.9910523  64.0519992  79.2204990  12.6419997
  64.5879992  79.6724990  11.9899997  63.1999992  79.1124990  12.2189997
  64.0101795  79.2677444  12.4956211  65.6339992  84.6604990  12.8809997
  66.3849992  84.5044990  12.3079997  65.2949992  85.5124990  12.6059997
  65.6909587  84.7543149  12.7654060  70.0499992  82.4754990  17.9099997
  70.2419992  81.5444990  17.7979997  70.9069992  82.9004990  17.8989997
  70.1922176  82.4055090  17.8931757  71.3659992  85.2644990  15.9869997
  71.0849992  85.9734990  15.4089997  72.3089992  85.1914990  15.8359997
  71.4549272  85.3516704  15.8874976  62.1179992  82.0494990  17.0599997
  61.3509992  81.5164990  16.8499997  62.7969992  81.7394990  16.4609997
  62.1048292  81.9346360  16.9502693  64.8579992  76.6774990  13.0729997
  64.7599992  77.6234990  12.9679997  64.1149992  76.3044990  12.5969997
  64.7442123  76.7566811  12.9943204  66.1219992  80.9984990  16.6369997
  65.8859992  80.7794990  17.5379997  65.3389992  80.7914990  16.1269997
  65.9838382  80.9405340  16.6913991 130.0019992  25.2404990  86.3359997
 130.9349992  25.4524990  86.3019997 129.7669992  25.3414990  87.2589997
 130.0978357  25.2831303  86.4560232  68.8379992  80.1264990  15.7119997
  67.8899992  80.1584990  15.8439997  69.1499992  79.5004990  16.3659997
  68.7505293  80.0462934  15.8184130  70.4719992  78.7604990  17.7169997
  70.3749992  77.8084990  17.7119997  70.1499992  79.0284990  18.5779997
  70.4152468  78.6665896  17.8326192  60.2989992  79.9694990  16.7649997
  60.5099992  79.2634990  16.1549997  60.1869992  79.5324990  17.6089997
  60.3127668  79.8136619  16.7955445  65.0799992  75.9714990  15.7439997
  65.7909992  75.3314990  15.7299997  64.9789992  76.2374990  14.8309997
  65.1636858  75.9198591  15.6185501  65.4329992  77.6534990  17.7979997
  65.3019992  77.1784990  16.9779997  64.8339992  78.3984990  17.7429997
  65.3340829  77.6890949  17.6781823  64.9799992  94.5364990   0.9739997
  65.9129992  94.6944990   1.1179997  64.7149992  95.2124990   0.3489997
  65.0719846  94.6494567   0.9092930  58.5479992  89.1734990   0.4569997
  59.4619992  89.2524990   0.7299997  58.5549992  88.4864990  -0.2090003
  58.6740624  89.0914074   0.4043045  57.1969992  94.5664990   5.5339997
  56.5499992  94.1044990   5.0019997  57.5519992  93.8944990   6.1169997
  57.1563741  94.4124785   5.5399157  58.0669992  92.6464990   7.3389997
  57.7329992  91.7664990   7.5109997  58.2889992  92.9924990   8.2039997
  58.0512565  92.5727410   7.4794263  75.6159992  93.4564990  10.3199997
  75.5939992  93.6414990  11.2579997  76.3059992  94.0244990   9.9789997
  75.7063383  93.5587104  10.4024580 130.0309992  25.9774990  89.1119997
 129.1879992  26.2454990  89.4779997 130.4739992  26.7994990  88.9009997
 129.9754358  26.1253294  89.1335999  75.1789992  93.0234990  13.2409997
  74.6919992  92.2874990  12.8699997  75.7279992  92.6294990  13.9189997
  75.1866101  92.8696267  13.2819034  73.6299992  88.8134990  17.8789997
  72.7639992  88.7084990  18.2739997  74.0059992  89.5714990  18.3259997
  73.5624940  88.9016141  17.9933958  74.9309992  87.0694990   3.3939997
  75.7809992  87.4904990   3.5209997  74.9359992  86.3294990   4.0009997
  75.0481143  87.0271106   3.4934732  75.3249992  85.1234990   5.2169997
  74.5989992  84.6434990   5.6149997  75.9059992  85.3284990   5.9489997
  75.3042504  85.0855592   5.3704199  75.0839992  87.9084990  10.1649997
  75.9179992  87.5304990   9.8839997  75.1959992  88.8514990  10.0459997
  75.2131917  87.9842954  10.1104844  73.5699992  90.7864990  12.4719997
  72.9229992  91.1114990  13.0969997  73.0529992  90.3454990  11.7979997
  73.4114112  90.7714133  12.4665272  75.5929992  85.0244990   1.6079997
  75.0719992  85.3804990   0.8899997  75.5599992  85.6994990   2.2869997
  75.5170955  85.1645023   1.6012634  73.9419992  82.2634990   0.1589997
  74.0389992  82.9304990  -0.5210003  73.8019992  81.4484990  -0.3220003
  73.9363407  82.2445670   0.0008312  73.1119992  83.6444990   5.7799997
  72.9619992  82.6994990   5.7599997  72.7579992  83.9254990   6.6239997
  73.0436351  83.5531656   5.8913202  58.1469992  85.7224990   9.7909997
  58.3309992  85.6404990   8.8549997  58.9959992  85.5984990  10.2139997
  58.2870132  85.6945066   9.7201460 114.3119992  24.4244990  92.5889997
 115.2319992  24.3024990  92.8249997 113.8629992  23.6744990  92.9779997
 114.3771561  24.3063720  92.6739015  73.9679992  85.6144990  15.4189997
  74.5509992  84.8794990  15.6109997  74.5319992  86.3864990  15.4659997
  74.1239781  85.6183156  15.4516146  75.4649992  83.5174990  16.1039997
  74.6009992  83.1384990  15.9379997  76.0689992  82.7784990  16.0289997
  75.4285394  83.3658378  16.0711778  72.8219992  81.2264990   4.2429997
  73.1019992  80.3194990   4.3669997  73.5809992  81.6604990   3.8539997
  72.9629258  81.1610935   4.2073691  73.4339992  81.8084990   9.6789997
  74.3669992  82.0204990   9.6439997  73.1989992  81.9094990  10.6009997
  73.5299517  81.8511844   9.7989113  73.4629992  82.5454990  12.4549997
  72.6199992  82.8134990  12.8199997  73.9059992  83.3674990  12.2439997
  73.4074035  82.6933351  12.4764770  57.7439992  80.9924990  15.9309997
  58.6639992  80.8704990  16.1679997  57.2949992  80.2424990  16.3209997
  57.8090500  80.8744576  16.0161016  75.7459992  76.5254990  17.8079997
  76.0959992  75.8714990  17.2019997  75.8929992  77.3624990  17.3679997
  75.8137192  76.5492545  17.6656712  73.4359992  78.4894990   4.2909997
  73.6179992  78.0404990   5.1159997  72.8359992  77.9054990   3.8269997
  73.3798187  78.3490563   4.3412721  58.9659992  79.3054990   8.8229997
  59.4109992  78.5134990   9.1249997  59.4319992  80.0214990   9.2529997
  59.0899718  79.2939546   8.9225247  57.2699992  82.3044990   9.8919997
  57.7619992  82.0834990   9.1009997  57.6319992  83.1444990  10.1729997
  57.3862923  82.3878480   9.8217389 132.3139992  19.9574990  94.4659997
 132.6639992  19.3034990  93.8599997 132.4609992  20.7944990  94.0259997
 132.3817192  19.9812545  94.3236712  75.2659992  78.6344990  16.1569997
  74.3489992  78.9054990  16.1209997  75.3889992  78.0994990  15.3729997
  75.1570828  78.5992711  16.0460767  75.3019992  78.5574990   0.8189997
  75.7149992  77.8364990   0.3439997  75.9839992  79.2264990   0.8769997
  75.4506060  78.5493741   0.7619233  57.5829992  78.5624990   3.9459997
  56.6579992  78.7704990   3.8169997  58.0369992  79.0464990   3.2559997
  57.5176298  78.6564311   3.8350433  72.3539992  93.5464990   5.8919997
  73.0059992  93.1984990   5.2839997  72.8649992  94.0344990   6.5379997
  72.5122872  93.5648248   5.8960964  57.5469992  77.3004990  12.2899997
  56.8819992  77.0544990  12.9329997  57.1039992  77.9224990  11.7129997
  57.3961168  77.3509225  12.2999830  59.7389992  90.4754990  16.4349997
  58.9179992  90.6504990  15.9739997  59.4869992  90.4024990  17.3549997
  59.5925594  90.4895728  16.4963593  62.6929992  91.4494990  12.6929997
  62.2679992  92.2594990  12.4109997  63.5969992  91.5354990  12.3909997
  62.7570706  91.5719557  12.6135836  67.0039992  92.8484990  15.6529997
  67.1889992  92.5154990  16.5309997  67.8509992  93.1584990  15.3309997
  67.1437291  92.8448214  15.7296140  69.3489992  94.1344990  14.8969997
  70.0259992  93.5014990  14.6569997  69.6709992  94.5354990  15.7039997
  69.4851618  94.1021147  14.9732802  74.2669992  76.7244990  13.9759997
  73.4539992  77.0494990  13.5889997  74.4999992  75.9634990  13.4429997
  74.1871347  76.6661891  13.8509824 130.0039992  21.9214990  80.9489997
 130.1859992  21.4724990  81.7739997 129.4039992  21.3374990  80.4849997
 129.9478187  21.7810563  80.9992721  60.0949992  94.7064990  12.7409997
  59.3739992  95.1464990  12.2899997  59.7289992  94.4554990  13.5889997
  59.9469632  94.7327235  12.7939649  62.5619992  94.3064990  11.7699997
  61.6969992  94.3784990  12.1739997  62.5069992  94.8534990  10.9869997
  62.4362289  94.3903242  11.7193749  67.2729992  94.1944990  10.9459997
  66.8159992  94.7234990  10.2919997  67.4349992  94.7974990  11.6709997
  67.2323919  94.3483990  10.9545740  69.5999992  93.0724990  11.8909997
  68.6959992  93.2374990  11.6249997  70.0289992  93.9254990  11.8249997
  69.5342017  93.2104184  11.8456495  72.2039992  94.6424990  12.1859997
  72.0229992  95.5584990  11.9749997  72.3809992  94.2314990  11.3389997
  72.2031377  94.7123365  12.0427178  59.5099992  93.3294990   9.6509997
  59.4909992  92.9034990  10.5079997  60.3139992  93.0104990   9.2419997
  59.6161393  93.2280297   9.7130155  61.6509992  92.0394990   8.3059997
  61.4319992  91.1224990   8.4759997  62.4749992  92.1794990   8.7719997
  61.7324702  91.9330523   8.3922510  64.1879992  92.5094990   9.1549997
  64.4009992  91.6214990   8.8679997  64.2529992  92.4744990  10.1089997
  64.2259149  92.3833338   9.2447351  67.6969992  78.1734990   8.2989997
  67.0219992  77.5434990   8.5549997  68.2609992  77.6894990   7.6959997
  67.6809363  78.0218886   8.2524810  72.8389992  76.2804990   8.4119997
  73.4429992  76.8284990   7.9099997  71.9699992  76.5994990   8.1709997
  72.8040419  76.3985628   8.3107741 115.5339992  22.7374990  85.4799997
 115.9789992  21.9454990  85.7819997 115.9999992  23.4534990  85.9109997
 115.6579059  22.7259485  85.5796061  74.5659992  77.4194990   6.7449997
  75.1779992  76.9054990   6.2179997  74.9489992  78.2964990   6.7679997
  74.7013867  77.4677613   6.6760888  60.0229992  76.8074990   6.1209997
  59.2459992  76.5724990   5.6139997  60.5539992  76.0104990   6.1299997
  59.9883735  76.6676462   6.0528090  58.8599992  76.6054990   1.9249997
  59.2989992  77.2164990   1.3329997  58.2259992  77.1434990   2.3989997
  58.8343859  76.7619076   1.9080287  64.6029992  76.7334990   5.9339997
  65.4769992  77.1224990   5.9049997  64.4669992  76.5184990   6.8569997
  64.7041953  76.7576654   6.0547599  70.1589992  76.7634990   7.5839997
  70.2359992  76.8594990   6.6339997  69.8839992  75.8564990   7.7119997
  70.1323233  76.6539093   7.4713665  71.5129992  76.7894990   3.2759997
  70.8099992  77.4044990   3.0659997  71.0679992  75.9524990   3.4069997
  71.3566550  76.7604679   3.2649819  58.7609992  92.5534990   2.8219997
  58.0759992  92.5154990   2.1549997  58.7639992  93.4654990   3.1099997
  58.6676806  92.6716669   2.7696961  60.7209992  78.5214990   0.3669997
  61.2119992  77.8914990  -0.1600003  61.3439992  78.8174990   1.0299997
  60.8725304  78.4752387   0.3844922  65.7469992  78.8144990   2.8239997
  65.9249992  78.1674990   3.5069997  65.6929992  79.6484990   3.2909997
  65.7640678  78.8386615   2.9806283  67.6249992  93.7624990   1.2199997
  68.4909992  94.1294990   1.0419997  67.3779992  93.3234990   0.4059997
  67.7101853  93.7534021   1.0855813 113.8379992  25.7364990  86.5489997
 114.3299992  25.5154990  85.7589997 114.1999992  26.5764990  86.8299997
 113.9543429  25.8198220  86.4787918  74.3339992  93.3254990   3.8989997
  74.1399992  92.5774990   3.3339997  74.2949992  94.0834990   3.3159997
  74.3021645  93.3255797   3.7428131  59.9809992  77.3214990  15.6389997
  59.6149992  76.5554990  16.0809997  60.8939992  77.3504990  15.9249997
  60.0543172  77.2205335  15.7381872  61.9539992  76.6714990  17.1739997
  62.8529992  76.3974990  16.9899997  61.5679992  75.9294990  17.6389997
  62.0247307  76.5337207  17.2117080  60.5789992  93.4734990  -0.1530003
  60.3109992  93.7594990   0.7209997  61.3499992  92.9274990  -0.0000003
  60.6465926  93.4387790  -0.0128812  70.3749992  76.0044990  17.3569997
  70.4519992  75.5784990  18.2099997  71.2689992  76.0174990  17.0139997
  70.5063263  75.9479345  17.4274366  73.5519992  92.0764990  16.0489997
  72.7699992  91.8904990  15.5289997  73.4799992  93.0064990  16.2659997
  73.4352975  92.1766973  16.0071823  87.9579992  85.9634990   6.0799997
  88.0469992  86.9074990   5.9469997  87.3189992  85.6884990   5.4219997
  87.8838378  86.0553846   5.9729258  86.8909992  85.2184990   9.4989997
  86.8519992  84.5724990  10.2039997  86.5679992  84.7514990   8.7269997
  86.8420469  85.0670005   9.4912803  79.2589992  84.8324990  11.0919997
  79.2999992  84.2074990  11.8149997  79.9619992  85.4564990  11.2739997
  79.3596223  84.8312318  11.2156164  90.5969992  88.1574990   7.7999997
  90.1559992  87.4374990   8.2509997  90.5839992  88.8784990   8.4299997
  90.5349215  88.1564303   7.9468088 131.8339992  22.0664990  92.8149997
 130.9169992  22.3374990  92.7789997 131.9569992  21.5314990  92.0309997
 131.7250828  22.0312711  92.7040767  80.1829992  89.2824990   9.6269997
  79.8129992  88.4804990   9.2569997  81.1239992  89.1144990   9.6729997
  80.2595984  89.1499649   9.5825586  76.7929992  82.9424990   5.0189997
  76.3449992  83.7884990   5.0009997  76.2319992  82.3634990   4.5039997
  76.6558546  82.9799004   4.9468874  77.5029992  85.1044990   7.1449997
  77.7169992  84.3344990   7.6719997  78.2409992  85.1944990   6.5419997
  77.6320073  85.0113546   7.1355786  87.7079992  93.2614990   8.0119997
  88.3279992  92.5854990   7.7389997  87.4999992  93.0434990   8.9209997
  87.7647679  93.1395032   8.0974518  85.2799992  87.6504990   9.9049997
  85.5839992  86.9644990   9.3099997  86.0019992  87.7694990  10.5229997
  85.4191240  87.5727325   9.9070941  93.9429992  79.2524990  10.7649997
  93.9919992  79.8624990  11.5009997  94.3689992  79.7134990  10.0419997
  94.0072851  79.3983266  10.7680532  88.4209992  82.0444990  10.2319997
  88.5629992  81.0984990  10.2519997  88.3149992  82.2514990   9.3039997
  88.4261051  81.9429706  10.1092249  81.5759992  80.1464990   7.5049997
  81.6189992  81.0064990   7.0859997  81.1179992  79.5934990   6.8709997
  81.5200163  80.1894174   7.3620604  89.2979992  80.2774990   5.9049997
  89.9439992  79.9484990   6.5299997  89.8079992  80.7944990   5.2829997
  89.4554289  80.3024333   5.9063681  78.1959992  82.5434990   8.2669997
  78.8499992  81.9934990   8.6989997  78.2199992  82.2694990   7.3499997
  78.2887199  82.4312178   8.2021650 114.1509992  21.9944990  80.6039997
 113.2259992  22.2024990  80.4739997 114.6049992  22.4784990  79.9139997
 114.0857401  22.0883895  80.4929433  83.3519992  84.0934990   7.4819997
  83.9679992  83.5664990   7.9909997  82.7659992  83.4534990   7.0779997
  83.3570652  83.9348919   7.4970277  94.3349992  80.7304990  13.0009997
  93.6459992  81.3884990  12.9059997  94.3499992  80.5324990  13.9379997
  94.2427756  80.7937614  13.1145795  80.3859992  79.0644990  11.5789997
  80.1669992  79.5944990  10.8119997  79.7179992  79.2904990  12.2259997
  80.2656975  79.1675979  11.5615123  87.7549992  88.5644990   5.1229997
  87.4589992  88.2414990   4.2709997  87.4309992  89.4644990   5.1639997
  87.6707458  88.6419678   5.0120598  82.9549992  86.7394990  11.8659997
  82.2149992  87.3384990  11.9699997  83.6689992  87.2934990  11.5499997
  82.9503146  86.8962611  11.8375150  91.0619992  79.5684990   7.8859997
  90.8469992  78.8024990   8.4189997  91.7179992  80.0404990   8.3989997
  91.1212673  79.5275739   8.0281972  79.9799992  80.9564990   9.5309997
  80.5929992  81.5894990   9.9039997  80.4919992  80.4844990   8.8749997
  80.1331933  80.9793380   9.4933477  81.3619992  88.7044990  12.6529997
  81.3569992  89.5834990  12.2749997  80.5089992  88.6204990  13.0779997
  81.2459199  88.8135901  12.6586942  77.4839992  88.3754990   3.4349997
  77.2119992  88.6044990   2.5459997  77.5289992  89.2124990   3.8959997
  77.4528360  88.5201034   3.3756186  91.1089992  89.9964990  10.1479997
  90.1669992  90.0554990  10.3099997  91.3849992  90.9024990  10.0109997
  91.0175865  90.1270299  10.1516174 128.9219992  36.9784990  82.5489997
 129.5739992  36.6304990  81.9409997 129.4329992  37.4664990  83.1949997
 129.0802872  36.9968248  82.5530964  91.4089992  78.2834990  11.5649997
  90.6729992  78.8934990  11.5279997  92.0929992  78.6984990  11.0389997
  91.4005367  78.4232562  11.4888156  84.4119992  76.3694990   9.0309997
  84.2949992  75.4214990   8.9769997  83.5569992  76.7024990   9.3039997
  84.2803691  76.2845842   9.0605072  89.3609992  91.7774990   6.7729997
  89.7859992  91.0704990   6.2879997  89.6779992  92.5794990   6.3559997
  89.4620266  91.7890201   6.6502461  90.5199992  89.6784990   5.2819997
  90.2629992  88.9884990   4.6699997  90.5909992  89.2354990   6.1269997
  90.4944322  89.5241568   5.3125372  92.2059992  88.2454990  13.7589997
  92.3459992  87.6534990  13.0199997  92.3739992  89.1184990  13.4029997
  92.2478734  88.2824041  13.6096937  86.6789992  85.2074990   3.5319997
  85.9669992  85.7424990   3.1799997  87.3699992  85.2624990   2.8719997
  86.6749704  85.2881663   3.3945797  86.7329992  83.6644990   0.5699997
  87.4339992  83.6874990   1.2219997  87.0349992  83.0364990  -0.0860003
  86.8698202  83.5827223   0.5705591  94.0479992  84.5854990  11.8249997
  93.3959992  85.2794990  11.9139997  94.5129992  84.7954990  11.0149997
  94.0215357  84.7089544  11.7277056  90.0849992  85.4164990   4.4829997
  89.3529992  85.6454990   5.0559997  90.5319992  84.7034990   4.9379997
  90.0452753  85.3513984   4.6229698  89.9819992  83.5914990  13.5509997
  90.0619992  84.3544990  14.1229997  89.3809992  83.8704990  12.8609997
  89.9116547  83.7337468  13.5360029 114.1149992  20.7324990  88.9479997
 113.4499992  20.4864990  89.5909997 113.6719992  21.3544990  88.3709997
 113.9641168  20.7829225  88.9579830  81.7299992  86.0474990   6.3659997
  81.3999992  85.6764990   5.5479997  82.3179992  85.3764990   6.7129997
  81.7643182  85.9060648   6.3009898  83.0969992  89.4754990   9.0469997
  83.0019992  88.8964990   8.2909997  83.8259992  89.1044990   9.5429997
  83.1826011  89.3460572   9.0106011  82.0969992  84.8154990   9.9989997
  82.6619992  84.9374990   9.2369997  82.4149992  85.4534990  10.6379997
  82.2173619  84.9184388   9.9810019  88.4059992  90.3194990  10.7329997
  88.1649992  90.9814990  11.3809997  88.2079992  89.4844990  11.1579997
  88.3462662  90.2972704  10.8791008  82.9769992  89.2154990  14.7169997
  82.6649992  89.9974990  15.1719997  82.3269992  89.0624990  14.0309997
  82.8464858  89.3017882  14.6865344  88.9559992  84.5794990   2.1689997
  89.5349992  84.7294990   2.9149997  89.3699992  85.0494990   1.4449997
  89.0913358  84.6635966   2.1733935  79.8969992  85.4134990  13.9449997
  79.9669992  86.0644990  14.6439997  79.0059992  85.5164990  13.6099997
  79.7861690  85.5164261  13.9953026  86.6819992  91.3154990   5.6039997
  87.1559992  91.6114990   6.3809997  86.1189992  92.0544990   5.3709997
  86.6707890  91.4558047   5.6788084  81.2159992  91.2864990  15.4799997
  81.2239992  91.1504990  14.5329997  80.2999992  91.1694990  15.7319997
  81.0932528  91.2520475  15.3843226  92.6539992  76.3294990   1.9809997
  91.7539992  76.4674990   2.2769997  92.9059992  77.1604990   1.5799997
  92.5647727  76.4608705   1.9672935 116.3069992  33.9074990  93.0919997
 115.4859992  34.0824990  92.6319997 116.0549992  33.8344990  94.0129997
 116.1606173  33.9215806  93.1534954  80.7199992  85.1164990   3.9549997
  80.4279992  85.8844990   3.4639997  80.0459992  84.4574990   3.7919997
  80.5888843  85.1324537   3.8657695  93.8439992  90.6954990   0.3579997
  93.9169992  91.6344990   0.5279997  94.7489992  90.3904990   0.3019997
  93.9764170  90.7828294   0.3737045  76.8129992  87.4794990  12.7699997
  76.3119992  87.4514990  11.9549997  76.8189992  86.5744990  13.0799997
  76.7451690  87.3532234  12.7002770  76.5639992  90.2604990   9.6539997
  77.5099992  90.1154990   9.6349997  76.4509992  91.0444990  10.1909997
  76.6783578  90.3466708   9.7240300  94.7609992  90.9264990  15.3369997
  94.7119992  89.9704990  15.2989997  93.9349992  91.1934990  15.7379997
  94.6425096  90.8318416  15.3860698  85.7399992  90.5004990  14.2129997
  85.8269992  91.3264990  14.6879997  84.8759992  90.1704990  14.4619997
  85.6351944  90.5689871  14.3116558  86.1539992  94.2724990   4.0189997
  86.0789992  94.1514990   3.0719997  86.1869992  95.2214990   4.1369997
  86.1482083  94.3842639   3.9054973  79.8079992  93.0614990   5.7999997
  79.9599992  92.7134990   6.6779997  78.9569992  92.7044990   5.5439997
  79.7138344  92.9655891   5.8856851  89.2559992  93.4264990   1.0209997
  89.6309992  92.6824990   0.5499997  89.2599992  93.1564990   1.9389997
  89.3078969  93.2880920   1.0806475  88.9249992  93.3524990   3.7699997
  87.9899992  93.4524990   3.9489997  89.2049992  92.6424990   4.3489997
  88.8349471  93.2702944   3.8726678 119.2609992  34.8814990  89.3509997
 118.8359992  35.6914990  89.0679997 120.1649992  34.9674990  89.0489997
 119.3251002  35.0038728  89.2714798  91.9129992  82.4194990  15.8169997
  91.5059992  82.8994990  15.0959997  91.9539992  81.5134990  15.5089997
  91.8628403  82.3627989  15.6767253  79.0619992  88.8034990  13.8129997
  79.2779992  88.4414990  14.6729997  78.2069992  88.4284990  13.6039997
  78.9759082  88.7033377  13.9022396  81.6809992  77.2734990   9.8089997
  80.8189992  77.1864990   9.4009997  81.6589992  78.1294990  10.2369997
  81.5600557  77.3773078   9.8110202  86.3439992  76.9954990  13.1839997
  86.7639992  76.5804990  13.9369997  85.4109992  76.8164990  13.3009997
  86.2753736  76.9144921  13.3028950  89.6699992  80.7504990  14.0369997
  89.1559992  80.6254990  14.8349997  89.5149992  81.6634990  13.7929997
  89.5787802  80.8567433  14.1131504  90.4329992  85.6114990  -0.2020003
  90.4749992  85.3894990  -1.1320003  91.2819992  86.0104990  -0.0120003
  90.5535253  85.6350510  -0.3036196  86.0059992  79.4874990   0.4689997
  85.7519992  79.5064990   1.3909997  85.7489992  78.6164990   0.1669997
  85.9364508  79.3723292   0.5544786  81.7719992  82.2384990  10.9039997
  81.1299992  82.1984990  11.6129997  81.8089992  83.1654990  10.6659997
  81.6891659  82.3582540  10.9688463  81.7689992  82.4594990   5.8159997
  80.8759992  82.1194990   5.7569997  82.2199992  82.0824990   5.0599997
  81.7077185  82.3620220   5.7057698  87.3049992  82.8754990   4.6329997
  86.8959992  83.6904990   4.3409997  88.0249992  82.7354990   4.0189997
  87.3464439  82.9680383   4.5100098 123.5719992  36.2804990  92.3099997
 123.7569992  35.9474990  93.1879997 124.4189992  36.5904990  91.9879997
 123.7117291  36.2768214  92.3866140  86.4069992  83.0514990  16.1209997
  85.8439992  82.3464990  16.4419997  87.2329992  82.9304990  16.5889997
  86.4416674  82.9387176  16.2281734  88.3089992  82.3214990   7.4469997
  88.1139992  82.9274990   6.7319997  88.4909992  81.4884990   7.0129997
  88.3069195  82.2917936   7.2904079  79.5219992  82.5594990  12.7709997
  79.4839992  82.9594990  13.6399997  79.0309992  81.7424990  12.8609997
  79.4504374  82.5038228  12.9020980  82.8879992  79.9334990  -0.4300003
  82.4569992  79.4884990   0.2989997  82.1699992  80.3044990  -0.9430003
  82.7319176  79.9227063  -0.3995087  76.1299992  79.6754990   6.6219997
  76.7609992  79.6464990   7.3409997  76.5799992  79.2504990   5.8909997
  76.2771082  79.6141269   6.6216307  77.4039992  80.4214990   2.0459997
  77.8789992  81.0124990   1.4609997  76.6869992  80.9514990   2.3929997
  77.3720406  80.5741011   2.0128495  87.5729992  83.9594990  12.1179997
  87.8969992  83.3284990  11.4749997  87.1329992  83.4254990  12.7789997
  87.5578707  83.8008261  12.1193195  84.3509992  79.8874990   6.9019997
  83.4399992  79.9444990   7.1909997  84.8559992  79.8274990   7.7129997
  84.2946873  79.8871838   7.0511190  79.1789992  81.5164990   5.7289997
  78.2899992  81.6154990   5.3889997  79.4749992  80.6744990   5.3829997
  79.0974001  81.4162473   5.6357318  82.8319992  81.5164990   3.3859997
  83.7639992  81.6454990   3.5639997  82.6169992  82.1854990   2.7359997
  82.9304472  81.6245817   3.3224873 125.9169992  37.5664990  91.5539997
 126.5939992  36.9334990  91.3139997 126.2389992  37.9674990  92.3619997
 126.0531280  37.5340638  91.6303190  88.7559992  79.1224990  10.1659997
  88.0789992  79.2534990  10.8299997  88.2699992  78.9674990   9.3559997
  88.5977265  79.1194665  10.1473380  81.5059992  82.7104990   0.9519997
  80.9639992  82.3314990   0.2609997  82.3399992  82.9054990   0.5239997
  81.5444390  82.6849091   0.7994374  92.0429992  94.7934990  16.4429997
  92.2429992  95.2174990  15.6089997  92.6989992  95.1374990  17.0499997
  92.1589937  94.8979993  16.4108645  79.6409992  87.2674990  16.0509997
  80.3729992  87.5224990  16.6129997  78.8609992  87.4724990  16.5669997
  79.6356526  87.3300438  16.1975168  85.6709992  82.6744990   8.7889997
  86.2349992  82.1284990   8.2419997  85.5229992  82.1534990   9.5779997
  85.7283037  82.5291798   8.8207212  80.6729992  78.8114990   5.2079997
  80.3549992  77.9084990   5.1719997  81.4539992  78.8134990   4.6549997
  80.7351079  78.6882240   5.1282908  84.2969992  81.0634990  11.2029997
  83.4619992  81.5174990  11.3139997  84.8209992  81.3394990  11.9549997
  84.2536072  81.1628960  11.3198118  84.8409992  87.2764990   2.8879997
  84.0959992  86.7684990   2.5659997  84.7069992  87.3254990   3.8339997
  84.7209334  87.2136144   2.9718892  91.9909992  86.4094990  11.6749997
  92.6329992  86.8654990  11.1309997  91.1609992  86.5224990  11.2119997
  91.9666536  86.4871813  11.5379579  88.7389992  80.0904990   1.0869997
  87.7999992  80.2014990   0.9359997  89.0359992  80.9464990   1.3939997
  88.6506136  80.2214977   1.1078568 130.8349992  20.1564990  90.6339997
 130.0219992  20.4814990  90.2459997 131.0679992  19.3954990  90.1009997
 130.7552566  20.0981570  90.5089196  86.3609992  87.4604990  14.1249997
  86.0149992  87.0784990  14.9319997  86.1609992  88.3934990  14.1959997
  86.2865987  87.5344013  14.2450443  89.4569992  81.9574990   2.7479997
  90.3489992  81.8194990   3.0669997  89.5139992  82.7484990   2.2109997
  89.5867380  82.0454777   2.7190981  79.9659992  86.5714990   8.6579997
  80.7109992  86.5684990   8.0559997  80.0439992  85.7474990   9.1389997
  80.0783365  86.4597395   8.6407412  86.9669992  88.7344990   1.9129997
  86.6719992  89.5614990   2.2949997  86.2639992  88.1154990   2.1099997
  86.8316379  88.7639182   1.9918636  76.9739992  85.0314990  13.9729997
  77.1969992  84.6134990  14.8039997  76.3719992  84.4194990  13.5499997
  76.9231513  84.8914617  14.0296722  83.9909992  84.5484990  16.1859997
  83.6949992  84.3834990  15.2899997  84.9219992  84.3284990  16.1749997
  84.0764401  84.4961891  16.0620189  88.6109992  89.9224990  14.0749997
  87.7099992  90.1054990  13.8079997  88.6449992  90.1814990  14.9959997
  88.4923861  89.9825245  14.1629517  94.3419992  82.1664990   2.4429997
  93.7879992  81.7704990   1.7699997  94.4429992  83.0774990   2.1649997
  94.2798589  82.2353904   2.3133839  94.3049992  87.9674990  15.2799997
  93.4539992  88.2054990  14.9119997  94.8959992  87.9504990  14.5259997
  94.2683831  87.9977623  15.1278448  92.6369992  90.9524990   2.9079997
  92.2649992  90.1274990   3.2169997  92.9149992  90.7694990   2.0099997
  92.6235807  90.8147031   2.8290063 116.6629992  38.1384990  89.3979997
 115.9419992  38.5784990  88.9469997 116.2969992  37.8874990  90.2469997
 116.5149785  38.1647691  89.4509849  89.7979992  85.7604990   9.9289997
  88.8699992  85.5294990   9.9019997  90.2489992  84.9834990   9.5989997
  89.7318165  85.6237785   9.8806772  82.3409992  90.0894990   6.0619997
  82.8679992  90.8624990   5.8619997  81.4609992  90.3134990   5.7599997
  82.2942121  90.2257344   5.9937460  78.0959992  84.9514990   0.6489997
  78.7119992  85.5784990   1.0289997  77.2339992  85.2674990   0.9209997
  78.0637678  85.0799423   0.7377192  83.7679992  87.7524990   5.6379997
  83.5269992  88.6774990   5.6799997  83.0279992  87.2934990   6.0349997
  83.6349463  87.8170969   5.6974279  84.2829992  91.9014990  11.9529997
  84.6459992  92.7554990  11.7199997  84.8149992  91.6094990  12.6939997
  84.4045141  91.9788907  12.0212079  82.4509992  92.7734990   5.1839997
  81.5019992  92.8794990   5.2349997  82.8029992  93.5944990   5.5279997
  82.3685647  92.8990029   5.2374882  87.8269992  88.0004990  11.6539997
  87.4009992  87.7724990  12.4799997  88.4079992  87.2614990  11.4719997
  87.8472088  87.8694393  11.7424454  90.0299992  88.9294990   0.7279997
  90.3829992  88.5494990   1.5319997  89.0809992  88.8354990   0.8149997
  89.9500956  88.8647867   0.8498005  90.4859992  92.5524990  14.1229997
  89.8839992  91.9964990  13.6279997  90.7669992  93.2194990  13.4969997
  90.4415757  92.5665755  13.9705657  94.5329992  93.4084990   0.9289997
  95.2769992  93.9944990   0.7889997  93.8389992  93.9774990   1.2619997
  94.5409809  93.5655830   0.9548572 119.1299992  37.7384990  88.4279997
 118.2649992  37.8104990  88.8319997 119.0749992  38.2854990  87.6439997
 119.0042066  37.8222678  88.3773371  78.6079992  79.7854990  13.5309997
  77.7149992  80.1234990  13.4629997  78.5089992  78.9294990  13.9489997
  78.4724752  79.7160986  13.5781644  90.8959992  87.6014990   2.9549997
  90.6189992  86.8734990   3.5109997  91.8229992  87.7204990   3.1599997
  90.9834419  87.5179436   3.0588264  78.2589992  91.5894990  11.9659997
  78.4759992  90.6574990  11.9349997  78.5059992  91.8644990  12.8489997
  78.3220948  91.4990976  12.0811268  83.0579992  89.6114990   1.6309997
  83.2049992  89.0914990   2.4209997  83.0549992  90.5184990   1.9379997
  83.0777102  89.6628964   1.7805907  79.5109992  86.8634990   2.1419997
  78.8249992  87.2164990   2.7089997  80.0339992  87.6264990   1.8949997
  79.4878402  87.0148912   2.1861784  87.3419992  79.5264990  12.4209997
  88.0409992  79.6004990  13.0709997  86.9619992  78.6614990  12.5749997
  87.3862662  79.4197050  12.5307412  88.1269992  79.1784990   3.5179997
  88.3469992  79.6494990   2.7139997  88.6849992  79.5724990   4.1879997
  88.2326044  79.2962946   3.4985207  85.7959992  91.3084990   2.3809997
  84.9789992  91.8054990   2.4329997  86.3249992  91.7844990   1.7399997
  85.7558125  91.4407000   2.3015289  85.3269992  80.9064990   4.3529997
  86.1389992  81.4104990   4.3989997  85.0819992  80.7614990   5.2669997
  85.4051091  80.9559366   4.4828552  85.8629992  81.8924990  13.5369997
  85.9819992  82.4664990  14.2939997  86.5179992  81.2044990  13.6519997
  85.9678684  81.8780205  13.6561656 123.8409992  37.6264990  87.6039997
 123.3839992  38.1554990  86.9499997 124.0029992  38.2294990  88.3289997
 123.8003919  37.7803990  87.6125740  86.2109992  77.9874990   5.2909997
  85.8639992  78.6044990   5.9349997  86.8689992  78.4884990   4.8089997
  86.2524430  78.1396860   5.3140046  83.1339992  92.3524990   2.3619997
  83.2949992  93.1524990   1.8619997  82.9369992  92.6594990   3.2469997
  83.1293906  92.5033690   2.4132316  81.8679992  79.0504990   1.9779997
  81.7849992  79.9384990   2.3249997  82.7579992  78.7854990   2.2099997
  81.9769331  79.1361177   2.0568067  92.0669992  79.7994990  14.3719997
  91.1509992  80.0614990  14.2849997  92.4029992  79.7964990  13.4759997
  91.9868499  79.8350174  14.2388748  90.6689992  83.5494990   8.4679997
  89.8719992  83.1344990   8.1399997  91.1139992  82.8594990   8.9589997
  90.6200367  83.3993372   8.4894897  80.1269992  89.4774990   1.0379997
  80.7189992  90.1774990   1.3149997  80.5859992  89.0444990   0.3189997
  80.2701652  89.5147686   0.9786515  78.4429992  82.1424990   0.1539997
  78.3979992  83.0814990   0.3329997  77.5549992  81.9064990  -0.1150003
  78.3168166  82.2391698   0.1421507  91.7559992  92.8054990  10.0899997
  91.5999992  93.4844990   9.4329997  92.6879992  92.8774990  10.2929997
  91.8607328  92.9081586  10.0275529  79.2509992  76.9234990   8.8269997
  79.0219992  76.9824990   7.8999997  78.8079992  76.1324990   9.1339997
  79.1597387  76.8246412   8.7415223  78.1809992  90.8644990   4.9879997
  77.3489992  91.3364990   5.0149997  78.7269992  91.3744990   4.3889997
  78.1408710  90.9980317   4.9107570 126.1679992  36.5044990  88.5489997
 125.2639992  36.6694990  88.2829997 126.5969992  37.3574990  88.4829997
 126.1022017  36.6424184  88.5036495  77.4699992  93.4764990  16.3179997
  78.0099992  93.2604990  17.0779997  76.9879992  92.6714990  16.1279997
  77.4788485  93.3380463  16.3964870  82.0669992  92.3964990  17.9379997
  82.8349992  91.9374990  18.2789997  82.0459992  92.1704990  17.0079997
  82.1692135  92.3031680  17.8589473  86.1589992  91.9044990  -0.6870003
  85.5149992  91.2734990  -0.3650003  86.9209992  91.3734990  -0.9180003
  86.1738708  91.7463171  -0.6741539  88.6439992  90.7764990  16.6669997
  88.2929992  89.9194990  16.9099997  89.3699992  90.9184990  17.2739997
  88.6941590  90.6785189  16.7822889  90.7629992  91.7214990  -0.4530003
  91.0459992  90.9264990  -0.0000003  91.5029992  91.9544990  -1.0140003
  90.9017295  91.6442349  -0.4668531  77.3769992  87.2874990  17.2719997
  77.5209992  86.3854990  16.9859997  76.6039992  87.5734990  16.7849997
  77.2922266  87.2026548  17.1670102  81.7179992  87.6304990  -0.5950003
  81.7819992  86.8364990  -0.0650003  82.3709992  87.5124990  -1.2850003
  81.8150483  87.5057496  -0.6156593  84.0319992  87.2564990  16.7049997
  83.7039992  87.5274990  15.8479997  84.1839992  86.3154990  16.6169997
  84.0076412  87.1664058  16.5757804  89.7669992  87.1724990  14.0879997
  90.5119992  87.7614990  13.9689997  89.0089992  87.7544990  14.1509997
  89.7665289  87.3317067  14.0802292  78.2089992  84.4874990  16.6919997
  78.6169992  83.6304990  16.5709997  77.9489992  84.5014990  17.6129997
  78.2297082  84.3720596  16.7999469 128.7719992  38.0744990  88.8439997
 128.5909992  38.9904990  88.6329997 128.9489992  37.6634990  87.9969997
 128.7711377  38.1443365  88.7007178  82.8669992  85.6034990   1.7109997
  82.4079992  85.1194990   2.3959997  83.1219992  84.9344990   1.0749997
  82.8385997  85.4468491   1.7188734  82.1559992  83.4964990  14.0669997
  81.5379992  84.1704990  14.3469997  82.4999992  83.8174990  13.2329997
  82.1178078  83.6322298  13.9926609  83.9379992  83.8464990  -0.0270003
  83.7579992  83.6914990  -0.9540003  84.8879992  83.9544990   0.0179997
  84.0417804  83.8398821  -0.1478034  87.1759992  85.9674990  17.3439997
  88.1289992  86.0514990  17.3169997  87.0159992  85.2554990  17.9629997
  87.2847320  85.8827292  17.4239933  93.3279992  86.2004990  -0.5810003
  93.0549992  85.7764990  -1.3940003  93.3679992  87.1324990  -0.7980003
  93.2960201  86.2683523  -0.7216452  82.4959992  80.8514990  15.1489997
  82.6459992  80.1224990  14.5469997  82.4979992  81.6284990  14.5899997
  82.5167967  80.8567720  14.9910523  82.9079992  79.2204990  12.6419997
  83.4439992  79.6724990  11.9899997  82.0559992  79.1124990  12.2189997
  82.8661795  79.2677444  12.4956211  84.4899992  84.6604990  12.8809997
  85.2409992  84.5044990  12.3079997  84.1509992  85.5124990  12.6059997
  84.5469587  84.7543149  12.7654060  88.9059992  82.4754990  17.9099997
  89.0979992  81.5444990  17.7979997  89.7629992  82.9004990  17.8989997
  89.0482176  82.4055090  17.8931757  90.2219992  85.2644990  15.9869997
  89.9409992  85.9734990  15.4089997  91.1649992  85.1914990  15.8359997
  90.3109272  85.3516704  15.8874976 116.0779992  36.7614990  86.3089997
 116.0589992  36.3354990  87.1659997 116.8819992  36.4424990  85.8999997
 116.1841393  36.6600297  86.3710155  80.9739992  82.0494990  17.0599997
  80.2069992  81.5164990  16.8499997  81.6529992  81.7394990  16.4609997
  80.9608292  81.9346360  16.9502693  83.7139992  76.6774990  13.0729997
  83.6159992  77.6234990  12.9679997  82.9709992  76.3044990  12.5969997
  83.6002123  76.7566811  12.9943204  84.9779992  80.9984990  16.6369997
  84.7419992  80.7794990  17.5379997  84.1949992  80.7914990  16.1269997
  84.8398382  80.9405340  16.6913991  87.6939992  80.1264990  15.7119997
  86.7459992  80.1584990  15.8439997  88.0059992  79.5004990  16.3659997
  87.6065293  80.0462934  15.8184130  89.3279992  78.7604990  17.7169997
  89.2309992  77.8084990  17.7119997  89.0059992  79.0284990  18.5779997
  89.2712468  78.6665896  17.8326192  79.1549992  79.9694990  16.7649997
  79.3659992  79.2634990  16.1549997  79.0429992  79.5324990  17.6089997
  79.1687668  79.8136619  16.7955445  83.9359992  75.9714990  15.7439997
  84.6469992  75.3314990  15.7299997  83.8349992  76.2374990  14.8309997
  84.0196858  75.9198591  15.6185501  84.2889992  77.6534990  17.7979997
  84.1579992  77.1784990  16.9779997  83.6899992  78.3984990  17.7429997
  84.1900829  77.6890949  17.6781823  83.8359992  94.5364990   0.9739997
  84.7689992  94.6944990   1.1179997  83.5709992  95.2124990   0.3489997
  83.9279846  94.6494567   0.9092930  77.4039992  89.1734990   0.4569997
  78.3179992  89.2524990   0.7299997  77.4109992  88.4864990  -0.2090003
  77.5300624  89.0914074   0.4043045 118.2189992  35.4714990  84.9639997
 117.9999992  34.5544990  85.1329997 119.0429992  35.6114990  85.4299997
 118.3004637  35.3649586  85.0501414  76.0529992  94.5664990   5.5339997
  75.4059992  94.1044990   5.0019997  76.4079992  93.8944990   6.1169997
  76.0123741  94.4124785   5.5399157  76.9229992  92.6464990   7.3389997
  76.5889992  91.7664990   7.5109997  77.1449992  92.9924990   8.2039997
  76.9072565  92.5727410   7.4794263  94.4719992  93.4564990  10.3199997
  94.4499992  93.6414990  11.2579997  95.1619992  94.0244990   9.9789997
  94.5623383  93.5587104  10.4024580  94.0349992  93.0234990  13.2409997
  93.5479992  92.2874990  12.8699997  94.5839992  92.6294990  13.9189997
  94.0426101  92.8696267  13.2819034  92.4859992  88.8134990  17.8789997
  91.6199992  88.7084990  18.2739997  92.8619992  89.5714990  18.3259997
  92.4184940  88.9016141  17.9933958  93.7869992  87.0694990   3.3939997
  94.6369992  87.4904990   3.5209997  93.7919992  86.3294990   4.0009997
  93.9041143  87.0271106   3.4934732  94.1809992  85.1234990   5.2169997
  93.4549992  84.6434990   5.6149997  94.7619992  85.3284990   5.9489997
  94.1602504  85.0855592   5.3704199  93.9399992  87.9084990  10.1649997
  94.7739992  87.5304990   9.8839997  94.0519992  88.8514990  10.0459997
  94.0691917  87.9842954  10.1104844  92.4259992  90.7864990  12.4719997
  91.7789992  91.1114990  13.0969997  91.9089992  90.3454990  11.7979997
  92.2674112  90.7714133  12.4665272  94.4489992  85.0244990   1.6079997
  93.9279992  85.3804990   0.8899997  94.4159992  85.6994990   2.2869997
  94.3730955  85.1645023   1.6012634 120.7559992  35.9414990  85.8119997
 120.9689992  35.0534990  85.5249997 120.8209992  35.9064990  86.7669997
 120.7939075  35.8153318  85.9017355  92.7979992  82.2634990   0.1589997
  92.8949992  82.9304990  -0.5210003  92.6579992  81.4484990  -0.3220003
  92.7923407  82.2445670   0.0008312  91.9679992  83.6444990   5.7799997
  91.8179992  82.6994990   5.7599997  91.6139992  83.9254990   6.6239997
  91.8996351  83.5531656   5.8913202  77.0029992  85.7224990   9.7909997
  77.1869992  85.6404990   8.8549997  77.8519992  85.5984990  10.2139997
  77.1430132  85.6945066   9.7201460  92.8239992  85.6144990  15.4189997
  93.4069992  84.8794990  15.6109997  93.3879992  86.3864990  15.4659997
  92.9799781  85.6183156  15.4516146  94.3209992  83.5174990  16.1039997
  93.4569992  83.1384990  15.9379997  94.9249992  82.7784990  16.0289997
  94.2845394  83.3658378  16.0711778  91.6779992  81.2264990   4.2429997
  91.9579992  80.3194990   4.3669997  92.4369992  81.6604990   3.8539997
  91.8189258  81.1610935   4.2073691  92.2899992  81.8084990   9.6789997
  93.2229992  82.0204990   9.6439997  92.0549992  81.9094990  10.6009997
  92.3859517  81.8511844   9.7989113  92.3189992  82.5454990  12.4549997
  91.4759992  82.8134990  12.8199997  92.7619992  83.3674990  12.2439997
  92.2634035  82.6933351  12.4764770  76.5999992  80.9924990  15.9309997
  77.5199992  80.8704990  16.1679997  76.1509992  80.2424990  16.3209997
  76.6650500  80.8744576  16.0161016  94.6019992  76.5254990  17.8079997
  94.9519992  75.8714990  17.2019997  94.7489992  77.3624990  17.3679997
  94.6697192  76.5492545  17.6656712 124.2649992  21.6054990  84.9569997
 123.5899992  20.9754990  85.2119997 124.8289992  21.1214990  84.3539997
 124.2489558  21.4539283  84.9103451  92.2919992  78.4894990   4.2909997
  92.4739992  78.0404990   5.1159997  91.6919992  77.9054990   3.8269997
  92.2358187  78.3490563   4.3412721  77.8219992  79.3054990   8.8229997
  78.2669992  78.5134990   9.1249997  78.2879992  80.0214990   9.2529997
  77.9459718  79.2939546   8.9225247  76.1259992  82.3044990   9.8919997
  76.6179992  82.0834990   9.1009997  76.4879992  83.1444990  10.1729997
  76.2422923  82.3878480   9.8217389  94.1219992  78.6344990  16.1569997
  93.2049992  78.9054990  16.1209997  94.2449992  78.0994990  15.3729997
  94.0130828  78.5992711  16.0460767  94.1579992  78.5574990   0.8189997
  94.5709992  77.8364990   0.3439997  94.8399992  79.2264990   0.8769997
  94.3066060  78.5493741   0.7619233  76.4389992  78.5624990   3.9459997
  75.5139992  78.7704990   3.8169997  76.8929992  79.0464990   3.2559997
  76.3736298  78.6564311   3.8350433  91.2099992  93.5464990   5.8919997
  91.8619992  93.1984990   5.2839997  91.7209992  94.0344990   6.5379997
  91.3682872  93.5648248   5.8960964  76.4029992  77.3004990  12.2899997
  75.7379992  77.0544990  12.9329997  75.9599992  77.9224990  11.7129997
  76.2521168  77.3509225  12.2999830  78.5949992  90.4754990  16.4349997
  77.7739992  90.6504990  15.9739997  78.3429992  90.4024990  17.3549997
  78.4485594  90.4895728  16.4963593  81.5489992  91.4494990  12.6929997
  81.1239992  92.2594990  12.4109997  82.4529992  91.5354990  12.3909997
  81.6130706  91.5719557  12.6135836 129.4069992  19.7124990  85.0689997
 130.0109992  20.2604990  84.5679997 128.5379992  20.0314990  84.8289997
 129.3721126  19.8307070  84.9679180  85.8599992  92.8484990  15.6529997
  86.0449992  92.5154990  16.5309997  86.7069992  93.1584990  15.3309997
  85.9997291  92.8448214  15.7296140  88.2049992  94.1344990  14.8969997
  88.8819992  93.5014990  14.6569997  88.5269992  94.5354990  15.7039997
  88.3411618  94.1021147  14.9732802  93.1229992  76.7244990  13.9759997
  92.3099992  77.0494990  13.5889997  93.3559992  75.9634990  13.4429997
  93.0431347  76.6661891  13.8509824  78.9509992  94.7064990  12.7409997
  78.2299992  95.1464990  12.2899997  78.5849992  94.4554990  13.5889997
  78.8029632  94.7327235  12.7939649  81.4179992  94.3064990  11.7699997
  80.5529992  94.3784990  12.1739997  81.3629992  94.8534990  10.9869997
  81.2922289  94.3903242  11.7193749  86.1289992  94.1944990  10.9459997
  85.6719992  94.7234990  10.2919997  86.2909992  94.7974990  11.6709997
  86.0883919  94.3483990  10.9545740  88.4559992  93.0724990  11.8909997
  87.5519992  93.2374990  11.6249997  88.8849992  93.9254990  11.8249997
  88.3902017  93.2104184  11.8456495  91.0599992  94.6424990  12.1859997
  90.8789992  95.5584990  11.9749997  91.2369992  94.2314990  11.3389997
  91.0591377  94.7123365  12.0427178  78.3659992  93.3294990   9.6509997
  78.3469992  92.9034990  10.5079997  79.1699992  93.0104990   9.2419997
  78.4721393  93.2280297   9.7130155  80.5069992  92.0394990   8.3059997
  80.2879992  91.1224990   8.4759997  81.3309992  92.1794990   8.7719997
  80.5884702  91.9330523   8.3922510 131.1339992  20.8514990  83.4029997
 131.7459992  20.3374990  82.8759997 131.5169992  21.7284990  83.4259997
 131.2693867  20.8997613  83.3340888  83.0439992  92.5094990   9.1549997
  83.2569992  91.6214990   8.8679997  83.1089992  92.4744990  10.1089997
  83.0819149  92.3833338   9.2447351  86.5529992  78.1734990   8.2989997
  85.8779992  77.5434990   8.5549997  87.1169992  77.6894990   7.6959997
  86.5369363  78.0218886   8.2524810  91.6949992  76.2804990   8.4119997
  92.2989992  76.8284990   7.9099997  90.8259992  76.5994990   8.1709997
  91.6600419  76.3985628   8.3107741  93.4219992  77.4194990   6.7449997
  94.0339992  76.9054990   6.2179997  93.8049992  78.2964990   6.7679997
  93.5573867  77.4677613   6.6760888  78.8789992  76.8074990   6.1209997
  78.1019992  76.5724990   5.6139997  79.4099992  76.0104990   6.1299997
  78.8443735  76.6676462   6.0528090  77.7159992  76.6054990   1.9249997
  78.1549992  77.2164990   1.3329997  77.0819992  77.1434990   2.3989997
  77.6903859  76.7619076   1.9080287  83.4589992  76.7334990   5.9339997
  84.3329992  77.1224990   5.9049997  83.3229992  76.5184990   6.8569997
  83.5601953  76.7576654   6.0547599  89.0149992  76.7634990   7.5839997
  89.0919992  76.8594990   6.6339997  88.7399992  75.8564990   7.7119997
  88.9883233  76.6539093   7.4713665  90.3689992  76.7894990   3.2759997
  89.6659992  77.4044990   3.0659997  89.9239992  75.9524990   3.4069997
  90.2126550  76.7604679   3.2649819  77.6169992  92.5534990   2.8219997
  76.9319992  92.5154990   2.1549997  77.6199992  93.4654990   3.1099997
  77.5236806  92.6716669   2.7696961 116.5909992  20.2394990  82.7789997
 115.8139992  20.0044990  82.2709997 117.1219992  19.4424990  82.7879997
 116.5564443  20.0996721  82.7107200  79.5769992  78.5214990   0.3669997
  80.0679992  77.8914990  -0.1600003  80.1999992  78.8174990   1.0299997
  79.7285304  78.4752387   0.3844922  84.6029992  78.8144990   2.8239997
  84.7809992  78.1674990   3.5069997  84.5489992  79.6484990   3.2909997
  84.6200678  78.8386615   2.9806283  86.4809992  93.7624990   1.2199997
  87.3469992  94.1294990   1.0419997  86.2339992  93.3234990   0.4059997
  86.5661853  93.7534021   1.0855813  93.1899992  93.3254990   3.8989997
  92.9959992  92.5774990   3.3339997  93.1509992  94.0834990   3.3159997
  93.1581645  93.3255797   3.7428131  78.8369992  77.3214990  15.6389997
  78.4709992  76.5554990  16.0809997  79.7499992  77.3504990  15.9249997
  78.9103172  77.2205335  15.7381872  80.8099992  76.6714990  17.1739997
  81.7089992  76.3974990  16.9899997  80.4239992  75.9294990  17.6389997
  80.8807307  76.5337207  17.2117080  79.4349992  93.4734990  -0.1530003
  79.1669992  93.7594990   0.7209997  80.2059992  92.9274990  -0.0000003
  79.5025926  93.4387790  -0.0128812  89.2309992  76.0044990  17.3569997
  89.3079992  75.5784990  18.2099997  90.1249992  76.0174990  17.0139997
  89.3623263  75.9479345  17.4274366  92.4079992  92.0764990  16.0489997
  91.6259992  91.8904990  15.5289997  92.3359992  93.0064990  16.2659997
  92.2912975  92.1766973  16.0071822 106.8139992  85.9634990   6.0799997
 106.9029992  86.9074990   5.9469997 106.1749992  85.6884990   5.4219997
 106.7398378  86.0553846   5.9729258 115.4279992  20.0374990  78.5819997
 115.8669992  20.6484990  77.9909997 114.7939992  20.5754990  79.0559997
 115.4024104  20.1939233  78.5651376 105.7469992  85.2184990   9.4989997
 105.7079992  84.5724990  10.2039997 105.4239992  84.7514990   8.7269997
 105.6980469  85.0670005   9.4912803  98.1149992  84.8324990  11.0919997
  98.1559992  84.2074990  11.8149997  98.8179992  85.4564990  11.2739997
  98.2156223  84.8312318  11.2156164 109.4529992  88.1574990   7.7999997
 109.0119992  87.4374990   8.2509997 109.4399992  88.8784990   8.4299997
 109.3909215  88.1564303   7.9468088  99.0389992  89.2824990   9.6269997
  98.6689992  88.4804990   9.2569997  99.9799992  89.1144990   9.6729997
  99.1155984  89.1499649   9.5825586  95.6489992  82.9424990   5.0189997
  95.2009992  83.7884990   5.0009997  95.0879992  82.3634990   4.5039997
  95.5118546  82.9799004   4.9468874  96.3589992  85.1044990   7.1449997
  96.5729992  84.3344990   7.6719997  97.0969992  85.1944990   6.5419997
  96.4880073  85.0113546   7.1355786 106.5639992  93.2614990   8.0119997
 107.1839992  92.5854990   7.7389997 106.3559992  93.0434990   8.9209997
 106.6207679  93.1395032   8.0974518 104.1359992  87.6504990   9.9049997
 104.4399992  86.9644990   9.3099997 104.8579992  87.7694990  10.5229997
 104.2751240  87.5727325   9.9070941 112.7989992  79.2524990  10.7649997
 112.8479992  79.8624990  11.5009997 113.2249992  79.7134990  10.0419997
 112.8632851  79.3983266  10.7680532 107.2769992  82.0444990  10.2319997
 107.4189992  81.0984990  10.2519997 107.1709992  82.2514990   9.3039997
 107.2821051  81.9429706  10.1092249 121.1709992  20.1654990  82.5919997
 122.0449992  20.5544990  82.5619997 121.0349992  19.9504990  83.5149997
 121.2723125  20.1897120  82.7126523 100.4319992  80.1464990   7.5049997
 100.4749992  81.0064990   7.0859997  99.9739992  79.5934990   6.8709997
 100.3760163  80.1894174   7.3620604 108.1539992  80.2774990   5.9049997
 108.7999992  79.9484990   6.5299997 108.6639992  80.7944990   5.2829997
 108.3114289  80.3024333   5.9063681  97.0519992  82.5434990   8.2669997
  97.7059992  81.9934990   8.6989997  97.0759992  82.2694990   7.3499997
  97.1447199  82.4312178   8.2021650 102.2079992  84.0934990   7.4819997
 102.8239992  83.5664990   7.9909997 101.6219992  83.4534990   7.0779997
 102.2130652  83.9348919   7.4970277 113.1909992  80.7304990  13.0009997
 112.5019992  81.3884990  12.9059997 113.2059992  80.5324990  13.9379997
 113.0987756  80.7937614  13.1145795  99.2419992  79.0644990  11.5789997
  99.0229992  79.5944990  10.8119997  98.5739992  79.2904990  12.2259997
  99.1216975  79.1675979  11.5615123 106.6109992  88.5644990   5.1229997
 106.3149992  88.2414990   4.2709997 106.2869992  89.4644990   5.1639997
 106.5267458  88.6419678   5.0120598 101.8109992  86.7394990  11.8659997
 101.0709992  87.3384990  11.9699997 102.5249992  87.2934990  11.5499997
 101.8063146  86.8962611  11.8375150 109.9179992  79.5684990   7.8859997
 109.7029992  78.8024990   8.4189997 110.5739992  80.0404990   8.3989997
 109.9772673  79.5275739   8.0281972  98.8359992  80.9564990   9.5309997
  99.4489992  81.5894990   9.9039997  99.3479992  80.4844990   8.8749997
  98.9891933  80.9793380   9.4933477 126.7269992  20.1954990  84.2409997
 126.8039992  20.2914990  83.2919997 126.4519992  19.2884990  84.3699997
 126.7003407  20.0859188  84.1283532 100.2179992  88.7044990  12.6529997
 100.2129992  89.5834990  12.2749997  99.3649992  88.6204990  13.0779997
 100.1019199  88.8135901  12.6586942  96.3399992  88.3754990   3.4349997
  96.0679992  88.6044990   2.5459997  96.3849992  89.2124990   3.8959997
  96.3088360  88.5201034   3.3756186 109.9649992  89.9964990  10.1479997
 109.0229992  90.0554990  10.3099997 110.2409992  90.9024990  10.0109997
 109.8735865  90.1270299  10.1516174 110.2649992  78.2834990  11.5649997
 109.5289992  78.8934990  11.5279997 110.9489992  78.6984990  11.0389997
 110.2565367  78.4232562  11.4888156 103.2679992  76.3694990   9.0309997
 103.1509992  75.4214990   8.9769997 102.4129992  76.7024990   9.3039997
 103.1363691  76.2845842   9.0605072 108.2169992  91.7774990   6.7729997
 108.6419992  91.0704990   6.2879997 108.5339992  92.5794990   6.3559997
 108.3180266  91.7890201   6.6502461 109.3759992  89.6784990   5.2819997
 109.1189992  88.9884990   4.6699997 109.4469992  89.2354990   6.1269997
 109.3504322  89.5241568   5.3125372 111.0619992  88.2454990  13.7589997
 111.2019992  87.6534990  13.0199997 111.2299992  89.1184990  13.4029997
 111.1038734  88.2824041  13.6096937 105.5349992  85.2074990   3.5319997
 104.8229992  85.7424990   3.1799997 106.2259992  85.2624990   2.8719997
 105.5309704  85.2881663   3.3945797 105.5889992  83.6644990   0.5699997
 106.2899992  83.6874990   1.2219997 105.8909992  83.0364990  -0.0860003
 105.7258202  83.5827223   0.5705591 128.0809992  20.2214990  79.9339997
 127.3779992  20.8364990  79.7239997 127.6359992  19.3844990  80.0649997
 127.9246550  20.1924679  79.9229819 112.9039992  84.5854990  11.8249997
 112.2519992  85.2794990  11.9139997 113.3689992  84.7954990  11.0149997
 112.8775357  84.7089544  11.7277056 108.9409992  85.4164990   4.4829997
 108.2089992  85.6454990   5.0559997 109.3879992  84.7034990   4.9379997
 108.9012753  85.3513984   4.6229698 108.8379992  83.5914990  13.5509997
 108.9179992  84.3544990  14.1229997 108.2369992  83.8704990  12.8609997
 108.7676547  83.7337468  13.5360029 100.5859992  86.0474990   6.3659997
 100.2559992  85.6764990   5.5479997 101.1739992  85.3764990   6.7129997
 100.6203182  85.9060648   6.3009898 101.9529992  89.4754990   9.0469997
 101.8579992  88.8964990   8.2909997 102.6819992  89.1044990   9.5429997
 102.0386011  89.3460572   9.0106011 100.9529992  84.8154990   9.9989997
 101.5179992  84.9374990   9.2369997 101.2709992  85.4534990  10.6379997
 101.0733619  84.9184388   9.9810019 107.2619992  90.3194990  10.7329997
 107.0209992  90.9814990  11.3809997 107.0639992  89.4844990  11.1579997
 107.2022662  90.2972704  10.8791008 101.8329992  89.2154990  14.7169997
 101.5209992  89.9974990  15.1719997 101.1829992  89.0624990  14.0309997
 101.7024858  89.3017882  14.6865344 107.8119992  84.5794990   2.1689997
 108.3909992  84.7294990   2.9149997 108.2259992  85.0494990   1.4449997
 107.9473358  84.6635966   2.1733935  98.7529992  85.4134990  13.9449997
  98.8229992  86.0644990  14.6439997  97.8619992  85.5164990  13.6099997
  98.6421690  85.5164261  13.9953026 115.3289992  35.9854990  79.4799997
 114.6439992  35.9474990  78.8119997 115.3319992  36.8974990  79.7679997
 115.2357358  36.1036744  79.4276145 105.5379992  91.3154990   5.6039997
 106.0119992  91.6114990   6.3809997 104.9749992  92.0544990   5.3709997
 105.5267890  91.4558047   5.6788084 100.0719992  91.2864990  15.4799997
 100.0799992  91.1504990  14.5329997  99.1559992  91.1694990  15.7319997
  99.9492528  91.2520475  15.3843226 111.5099992  76.3294990   1.9809997
 110.6099992  76.4674990   2.2769997 111.7619992  77.1604990   1.5799997
 111.4207727  76.4608705   1.9672935  99.5759992  85.1164990   3.9549997
  99.2839992  85.8844990   3.4639997  98.9019992  84.4574990   3.7919997
  99.4448843  85.1324537   3.8657695 112.6999992  90.6954990   0.3579997
 112.7729992  91.6344990   0.5279997 113.6049992  90.3904990   0.3019997
 112.8324170  90.7828294   0.3737045  95.6689992  87.4794990  12.7699997
  95.1679992  87.4514990  11.9549997  95.6749992  86.5744990  13.0799997
  95.6011690  87.3532234  12.7002770  95.4199992  90.2604990   9.6539997
  96.3659992  90.1154990   9.6349997  95.3069992  91.0444990  10.1909997
  95.5343578  90.3466708   9.7240300 113.6169992  90.9264990  15.3369997
 113.5679992  89.9704990  15.2989997 112.7909992  91.1934990  15.7379997
 113.4985096  90.8318416  15.3860698 104.5959992  90.5004990  14.2129997
 104.6829992  91.3264990  14.6879997 103.7319992  90.1704990  14.4619997
 104.4911944  90.5689871  14.3116558 105.0099992  94.2724990   4.0189997
 104.9349992  94.1514990   3.0719997 105.0429992  95.2214990   4.1369997
 105.0042083  94.3842639   3.9054973 117.2889992  21.9534990  77.0249997
 117.7799992  21.3234990  76.4969997 117.9119992  22.2494990  77.6879997
 117.4405459  21.9072419  77.0423667  98.6639992  93.0614990   5.7999997
  98.8159992  92.7134990   6.6779997  97.8129992  92.7044990   5.5439997
  98.5698344  92.9655891   5.8856851 108.1119992  93.4264990   1.0209997
 108.4869992  92.6824990   0.5499997 108.1159992  93.1564990   1.9389997
 108.1638969  93.2880920   1.0806475 107.7809992  93.3524990   3.7699997
 106.8459992  93.4524990   3.9489997 108.0609992  92.6424990   4.3489997
 107.6909471  93.2702944   3.8726678 110.7689992  82.4194990  15.8169997
 110.3619992  82.8994990  15.0959997 110.8099992  81.5134990  15.5089997
 110.7188403  82.3627989  15.6767253  97.9179992  88.8034990  13.8129997
  98.1339992  88.4414990  14.6729997  97.0629992  88.4284990  13.6039997
  97.8319082  88.7033377  13.9022396 100.5369992  77.2734990   9.8089997
  99.6749992  77.1864990   9.4009997 100.5149992  78.1294990  10.2369997
 100.4160557  77.3773078   9.8110202 105.1999992  76.9954990  13.1839997
 105.6199992  76.5804990  13.9369997 104.2669992  76.8164990  13.3009997
 105.1313736  76.9144921  13.3028950 108.5259992  80.7504990  14.0369997
 108.0119992  80.6254990  14.8349997 108.3709992  81.6634990  13.7929997
 108.4347802  80.8567433  14.1131504 109.2889992  85.6114990  -0.2020003
 109.3309992  85.3894990  -1.1320003 110.1379992  86.0104990  -0.0120003
 109.4095253  85.6350510  -0.3036196 104.8619992  79.4874990   0.4689997
 104.6079992  79.5064990   1.3909997 104.6049992  78.6164990   0.1669997
 104.7924508  79.3723292   0.5544786 122.3149992  22.2464990  79.4819997
 122.4929992  21.5994990  80.1649997 122.2609992  23.0804990  79.9489997
 122.3320678  22.2706615  79.6386283 100.6279992  82.2384990  10.9039997
  99.9859992  82.1984990  11.6129997 100.6649992  83.1654990  10.6659997
 100.5451659  82.3582540  10.9688463 100.6249992  82.4594990   5.8159997
  99.7319992  82.1194990   5.7569997 101.0759992  82.0824990   5.0599997
 100.5637185  82.3620220   5.7057698 106.1609992  82.8754990   4.6329997
 105.7519992  83.6904990   4.3409997 106.8809992  82.7354990   4.0189997
 106.2024439  82.9680383   4.5100098 105.2629992  83.0514990  16.1209997
 104.6999992  82.3464990  16.4419997 106.0889992  82.9304990  16.5889997
 105.2976674  82.9387176  16.2281734 107.1649992  82.3214990   7.4469997
 106.9699992  82.9274990   6.7319997 107.3469992  81.4884990   7.0129997
 107.1629195  82.2917936   7.2904079  98.3779992  82.5594990  12.7709997
  98.3399992  82.9594990  13.6399997  97.8869992  81.7424990  12.8609997
  98.3064374  82.5038228  12.9020980 101.7439992  79.9334990  -0.4300003
 101.3129992  79.4884990   0.2989997 101.0259992  80.3044990  -0.9430003
 101.5879176  79.9227063  -0.3995087  94.9859992  79.6754990   6.6219997
  95.6169992  79.6464990   7.3409997  95.4359992  79.2504990   5.8909997
  95.1331082  79.6141269   6.6216307  96.2599992  80.4214990   2.0459997
  96.7349992  81.0124990   1.4609997  95.5429992  80.9514990   2.3929997
  96.2280406  80.5741011   2.0128495 106.4289992  83.9594990  12.1179997
 106.7529992  83.3284990  11.4749997 105.9889992  83.4254990  12.7789997
 106.4138707  83.8008261  12.1193195 124.1929992  37.1944990  77.8769997
 125.0589992  37.5614990  77.6989997 123.9459992  36.7554990  77.0639997
 124.2782041  37.1853648  77.7425958 103.2069992  79.8874990   6.9019997
 102.2959992  79.9444990   7.1909997 103.7119992  79.8274990   7.7129997
 103.1506873  79.8871838   7.0511190  98.0349992  81.5164990   5.7289997
  97.1459992  81.6154990   5.3889997  98.3309992  80.6744990   5.3829997
  97.9534001  81.4162473   5.6357318 101.6879992  81.5164990   3.3859997
 102.6199992  81.6454990   3.5639997 101.4729992  82.1854990   2.7359997
 101.7864472  81.6245817   3.3224873 107.6119992  79.1224990  10.1659997
 106.9349992  79.2534990  10.8299997 107.1259992  78.9674990   9.3559997
 107.4537265  79.1194665  10.1473380 100.3619992  82.7104990   0.9519997
  99.8199992  82.3314990   0.2609997 101.1959992  82.9054990   0.5239997
 100.4004390  82.6849091   0.7994374 110.8989992  94.7934990  16.4429997
 111.0989992  95.2174990  15.6089997 111.5549992  95.1374990  17.0499997
 111.0149937  94.8979993  16.4108645  98.4969992  87.2674990  16.0509997
  99.2289992  87.5224990  16.6129997  97.7169992  87.4724990  16.5669997
  98.4916526  87.3300438  16.1975168 104.5269992  82.6744990   8.7889997
 105.0909992  82.1284990   8.2419997 104.3789992  82.1534990   9.5779997
 104.5843037  82.5291798   8.8207212  99.5289992  78.8114990   5.2079997
  99.2109992  77.9084990   5.1719997 100.3099992  78.8134990   4.6549997
  99.5911079  78.6882240   5.1282908 103.1529992  81.0634990  11.2029997
 102.3179992  81.5174990  11.3139997 103.6769992  81.3394990  11.9549997
 103.1096072  81.1628960  11.3198118 130.9019992  36.7574990  80.5569997
 130.7079992  36.0094990  79.9919997 130.8629992  37.5154990  79.9729997
 130.8701907  36.7575770  80.4008077 103.6969992  87.2764990   2.8879997
 102.9519992  86.7684990   2.5659997 103.5629992  87.3254990   3.8339997
 103.5769334  87.2136144   2.9718892 110.8469992  86.4094990  11.6749997
 111.4889992  86.8654990  11.1309997 110.0169992  86.5224990  11.2119997
 110.8226536  86.4871813  11.5379579 107.5949992  80.0904990   1.0869997
 106.6559992  80.2014990   0.9359997 107.8919992  80.9464990   1.3939997
 107.5066136  80.2214977   1.1078568 105.2169992  87.4604990  14.1249997
 104.8709992  87.0784990  14.9319997 105.0169992  88.3934990  14.1959997
 105.1425987  87.5344013  14.2450443 108.3129992  81.9574990   2.7479997
 109.2049992  81.8194990   3.0669997 108.3699992  82.7484990   2.2109997
 108.4427380  82.0454777   2.7190981  98.8219992  86.5714990   8.6579997
  99.5669992  86.5684990   8.0559997  98.8999992  85.7474990   9.1389997
  98.9343365  86.4597395   8.6407412 105.8229992  88.7344990   1.9129997
 105.5279992  89.5614990   2.2949997 105.1199992  88.1154990   2.1099997
 105.6876379  88.7639182   1.9918636  95.8299992  85.0314990  13.9729997
  96.0529992  84.6134990  14.8039997  95.2279992  84.4194990  13.5499997
  95.7791513  84.8914617  14.0296722 102.8469992  84.5484990  16.1859997
 102.5509992  84.3834990  15.2899997 103.7779992  84.3284990  16.1749997
 102.9324401  84.4961891  16.0620189 107.4669992  89.9224990  14.0749997
 106.5659992  90.1054990  13.8079997 107.5009992  90.1814990  14.9959997
 107.3483861  89.9825245  14.1629517 116.5489992  20.7534990  92.2959997
 116.1829992  19.9874990  92.7389997 117.4619992  20.7824990  92.5829997
 116.6223225  20.6526917  92.3953441 113.1979992  82.1664990   2.4429997
 112.6439992  81.7704990   1.7699997 113.2989992  83.0774990   2.1649997
 113.1358589  82.2353904   2.3133839 113.1609992  87.9674990  15.2799997
 112.3099992  88.2054990  14.9119997 113.7519992  87.9504990  14.5259997
 113.1243831  87.9977623  15.1278448 111.4929992  90.9524990   2.9079997
 111.1209992  90.1274990   3.2169997 111.7709992  90.7694990   2.0099997
 111.4795807  90.8147031   2.8290063 108.6539992  85.7604990   9.9289997
 107.7259992  85.5294990   9.9019997 109.1049992  84.9834990   9.5989997
 108.5878165  85.6237785   9.8806772 101.1969992  90.0894990   6.0619997
 101.7239992  90.8624990   5.8619997 100.3169992  90.3134990   5.7599997
 101.1502121  90.2257344   5.9937460  96.9519992  84.9514990   0.6489997
  97.5679992  85.5784990   1.0289997  96.0899992  85.2674990   0.9209997
  96.9197678  85.0799423   0.7377192 102.6239992  87.7524990   5.6379997
 102.3829992  88.6774990   5.6799997 101.8839992  87.2934990   6.0349997
 102.4909463  87.8170969   5.6974279 103.1389992  91.9014990  11.9529997
 103.5019992  92.7554990  11.7199997 103.6709992  91.6094990  12.6939997
 103.2605141  91.9788907  12.0212079 101.3069992  92.7734990   5.1839997
 100.3579992  92.8794990   5.2349997 101.6589992  93.5944990   5.5279997
 101.2245647  92.8990029   5.2374882 106.6829992  88.0004990  11.6539997
 106.2569992  87.7724990  12.4799997 107.2639992  87.2614990  11.4719997
 106.7032088  87.8694393  11.7424454 118.5219992  20.1034990  93.8319997
 119.4209992  19.8294990  93.6469997 118.1359992  19.3614990  94.2959997
 118.5927237  19.9656520  93.8694693 108.8859992  88.9294990   0.7279997
 109.2389992  88.5494990   1.5319997 107.9369992  88.8354990   0.8149997
 108.8060956  88.8647867   0.8498005 109.3419992  92.5524990  14.1229997
 108.7399992  91.9964990  13.6279997 109.6229992  93.2194990  13.4969997
 109.2975757  92.5665755  13.9705657 113.3889992  93.4084990   0.9289997
 114.1329992  93.9944990   0.7889997 112.6949992  93.9774990   1.2619997
 113.3969809  93.5655830   0.9548572  97.4639992  79.7854990  13.5309997
  96.5709992  80.1234990  13.4629997  97.3649992  78.9294990  13.9489997
  97.3284752  79.7160986  13.5781644 109.7519992  87.6014990   2.9549997
 109.4749992  86.8734990   3.5109997 110.6789992  87.7204990   3.1599997
 109.8394419  87.5179436   3.0588264  97.1149992  91.5894990  11.9659997
  97.3319992  90.6574990  11.9349997  97.3619992  91.8644990  12.8489997
  97.1780948  91.4990976  12.0811268 101.9139992  89.6114990   1.6309997
 102.0609992  89.0914990   2.4209997 101.9109992  90.5184990   1.9379997
 101.9337102  89.6628964   1.7805907  98.3669992  86.8634990   2.1419997
  97.6809992  87.2164990   2.7089997  98.8899992  87.6264990   1.8949997
  98.3438402  87.0148912   2.1861784 106.1979992  79.5264990  12.4209997
 106.8969992  79.6004990  13.0709997 105.8179992  78.6614990  12.5749997
 106.2422662  79.4197050  12.5307412 106.9829992  79.1784990   3.5179997
 107.2029992  79.6494990   2.7139997 107.5409992  79.5724990   4.1879997
 107.0886044  79.2962946   3.4985207 126.9429992  19.4364990  94.0139997
 127.0199992  19.0104990  94.8679997 127.8369992  19.4494990  93.6719997
 127.0743315  19.3800320  94.0845052 104.6519992  91.3084990   2.3809997
 103.8349992  91.8054990   2.4329997 105.1809992  91.7844990   1.7399997
 104.6118125  91.4407000   2.3015289 104.1829992  80.9064990   4.3529997
 104.9949992  81.4104990   4.3989997 103.9379992  80.7614990   5.2669997
 104.2611091  80.9559366   4.4828552 104.7189992  81.8924990  13.5369997
 104.8379992  82.4664990  14.2939997 105.3739992  81.2044990  13.6519997
 104.8238684  81.8780205  13.6561656 105.0669992  77.9874990   5.2909997
 104.7199992  78.6044990   5.9349997 105.7249992  78.4884990   4.8089997
 105.1084430  78.1396860   5.3140046 101.9899992  92.3524990   2.3619997
 102.1509992  93.1524990   1.8619997 101.7929992  92.6594990   3.2469997
 101.9853906  92.5033690   2.4132316 100.7239992  79.0504990   1.9779997
 100.6409992  79.9384990   2.3249997 101.6139992  78.7854990   2.2099997
 100.8329331  79.1361177   2.0568067 110.9229992  79.7994990  14.3719997
 110.0069992  80.0614990  14.2849997 111.2589992  79.7964990  13.4759997
 110.8428499  79.8350174  14.2388748 109.5249992  83.5494990   8.4679997
 108.7279992  83.1344990   8.1399997 109.9699992  82.8594990   8.9589997
 109.4760367  83.3993372   8.4894897  98.9829992  89.4774990   1.0379997
  99.5749992  90.1774990   1.3149997  99.4419992  89.0444990   0.3189997
  99.1261652  89.5147686   0.9786515  97.2989992  82.1424990   0.1539997
  97.2539992  83.0814990   0.3329997  96.4109992  81.9064990  -0.1150003
  97.1728166  82.2391698   0.1421507 130.1199992  35.5084990  92.7069997
 129.3379992  35.3224990  92.1869997 130.0479992  36.4384990  92.9239997
 130.0032975  35.6086973  92.6651822 110.6119992  92.8054990  10.0899997
 110.4559992  93.4844990   9.4329997 111.5439992  92.8774990  10.2929997
 110.7167328  92.9081586  10.0275529  98.1069992  76.9234990   8.8269997
  97.8779992  76.9824990   7.8999997  97.6639992  76.1324990   9.1339997
  98.0157387  76.8246412   8.7415223  97.0369992  90.8644990   4.9879997
  96.2049992  91.3364990   5.0149997  97.5829992  91.3744990   4.3889997
  96.9968710  90.9980317   4.9107570  96.3259992  93.4764990  16.3179997
  96.8659992  93.2604990  17.0779997  95.8439992  92.6714990  16.1279997
  96.3348485  93.3380463  16.3964870 100.9229992  92.3964990  17.9379997
 101.6909992  91.9374990  18.2789997 100.9019992  92.1704990  17.0079997
 101.0252135  92.3031680  17.8589473 105.0149992  91.9044990  -0.6870003
 104.3709992  91.2734990  -0.3650003 105.7769992  91.3734990  -0.9180003
 105.0298708  91.7463171  -0.6741539 107.4999992  90.7764990  16.6669997
 107.1489992  89.9194990  16.9099997 108.2259992  90.9184990  17.2739997
 107.5501590  90.6785189  16.7822889 109.6189992  91.7214990  -0.4530003
 109.9019992  90.9264990  -0.0000003 110.3589992  91.9544990  -1.0140003
 109.7577295  91.6442349  -0.4668531  96.2329992  87.2874990  17.2719997
  96.3769992  86.3854990  16.9859997  95.4599992  87.5734990  16.7849997
  96.1482266  87.2026548  17.1670102 100.5739992  87.6304990  -0.5950003
 100.6379992  86.8364990  -0.0650003 101.2269992  87.5124990  -1.2850003
 100.6710483  87.5057496  -0.6156593 135.8269992  28.2644990  87.7489997
 135.8679992  27.6394990  88.4729997 136.5299992  28.8884990  87.9309997
 135.9276054  28.2633262  87.8726311 102.8879992  87.2564990  16.7049997
 102.5599992  87.5274990  15.8479997 103.0399992  86.3154990  16.6169997
 102.8636412  87.1664058  16.5757804 108.6229992  87.1724990  14.0879997
 109.3679992  87.7614990  13.9689997 107.8649992  87.7544990  14.1509997
 108.6225289  87.3317067  14.0802292  97.0649992  84.4874990  16.6919997
  97.4729992  83.6304990  16.5709997  96.8049992  84.5014990  17.6129997
  97.0857082  84.3720596  16.7999469 101.7229992  85.6034990   1.7109997
 101.2639992  85.1194990   2.3959997 101.9779992  84.9344990   1.0749997
 101.6945997  85.4468491   1.7188734 101.0119992  83.4964990  14.0669997
 100.3939992  84.1704990  14.3469997 101.3559992  83.8174990  13.2329997
 100.9738078  83.6322298  13.9926609 102.7939992  83.8464990  -0.0270003
 102.6139992  83.6914990  -0.9540003 103.7439992  83.9544990   0.0179997
 102.8977804  83.8398821  -0.1478034 106.0319992  85.9674990  17.3439997
 106.9849992  86.0514990  17.3169997 105.8719992  85.2554990  17.9629997
 106.1407320  85.8827292  17.4239933 112.1839992  86.2004990  -0.5810003
 111.9109992  85.7764990  -1.3940003 112.2239992  87.1324990  -0.7980003
 112.1520201  86.2683523  -0.7216452 101.3519992  80.8514990  15.1489997
 101.5019992  80.1224990  14.5469997 101.3539992  81.6284990  14.5899997
 101.3727967  80.8567720  14.9910523 101.7639992  79.2204990  12.6419997
 102.2999992  79.6724990  11.9899997 100.9119992  79.1124990  12.2189997
 101.7221795  79.2677444  12.4956211 136.7509992  32.7144990  86.2839997
 136.3809992  31.9124990  85.9149997 137.6919992  32.5464990  86.3309997
 136.8275630  32.5818680  86.2397873 103.3459992  84.6604990  12.8809997
 104.0969992  84.5044990  12.3079997 103.0069992  85.5124990  12.6059997
 103.4029587  84.7543149  12.7654060 107.7619992  82.4754990  17.9099997
 107.9539992  81.5444990  17.7979997 108.6189992  82.9004990  17.8989997
 107.9042176  82.4055090  17.8931757 109.0779992  85.2644990  15.9869997
 108.7969992  85.9734990  15.4089997 110.0209992  85.1914990  15.8359997
 109.1669272  85.3516704  15.8874976  99.8299992  82.0494990  17.0599997
  99.0629992  81.5164990  16.8499997 100.5089992  81.7394990  16.4609997
  99.8168292  81.9346360  16.9502693 102.5699992  76.6774990  13.0729997
 102.4719992  77.6234990  12.9679997 101.8269992  76.3044990  12.5969997
 102.4562123  76.7566811  12.9943204 103.8339992  80.9984990  16.6369997
 103.5979992  80.7794990  17.5379997 103.0509992  80.7914990  16.1269997
 103.6958382  80.9405340  16.6913991 106.5499992  80.1264990  15.7119997
 105.6019992  80.1584990  15.8439997 106.8619992  79.5004990  16.3659997
 106.4625293  80.0462934  15.8184130 108.1839992  78.7604990  17.7169997
 108.0869992  77.8084990  17.7119997 107.8619992  79.0284990  18.5779997
 108.1272468  78.6665896  17.8326192  98.0109992  79.9694990  16.7649997
  98.2219992  79.2634990  16.1549997  97.8989992  79.5324990  17.6089997
  98.0247668  79.8136619  16.7955445 102.7919992  75.9714990  15.7439997
 103.5029992  75.3314990  15.7299997 102.6909992  76.2374990  14.8309997
 102.8756858  75.9198591  15.6185501 133.3609992  26.3744990  81.6769997
 132.9129992  27.2204990  81.6589997 132.7999992  25.7954990  81.1619997
 133.2238546  26.4119004  81.6048874 103.1449992  77.6534990  17.7979997
 103.0139992  77.1784990  16.9779997 102.5459992  78.3984990  17.7429997
 103.0460829  77.6890949  17.6781823 102.6919992  94.5364990   0.9739997
 103.6249992  94.6944990   1.1179997 102.4269992  95.2124990   0.3489997
 102.7839846  94.6494567   0.9092930  96.2599992  89.1734990   0.4569997
  97.1739992  89.2524990   0.7299997  96.2669992  88.4864990  -0.2090003
  96.3860624  89.0914074   0.4043045  94.9089992  94.5664990   5.5339997
  94.2619992  94.1044990   5.0019997  95.2639992  93.8944990   6.1169997
  94.8683741  94.4124785   5.5399157  95.7789992  92.6464990   7.3389997
  95.4449992  91.7664990   7.5109997  96.0009992  92.9924990   8.2039997
  95.7632565  92.5727410   7.4794263 113.3279992  93.4564990  10.3199997
 113.3059992  93.6414990  11.2579997 114.0179992  94.0244990   9.9789997
 113.4183383  93.5587104  10.4024580 112.8909992  93.0234990  13.2409997
 112.4039992  92.2874990  12.8699997 113.4399992  92.6294990  13.9189997
 112.8986101  92.8696267  13.2819034 111.3419992  88.8134990  17.8789997
 110.4759992  88.7084990  18.2739997 111.7179992  89.5714990  18.3259997
 111.2744940  88.9016141  17.9933958 112.6429992  87.0694990   3.3939997
 113.4929992  87.4904990   3.5209997 112.6479992  86.3294990   4.0009997
 112.7601143  87.0271106   3.4934732 113.0369992  85.1234990   5.2169997
 112.3109992  84.6434990   5.6149997 113.6179992  85.3284990   5.9489997
 113.0162504  85.0855592   5.3704199 134.0709992  28.5364990  83.8029997
 134.2849992  27.7664990  84.3299997 134.8089992  28.6264990  83.1999997
 134.2000073  28.4433546  83.7935786 112.7959992  87.9084990  10.1649997
 113.6299992  87.5304990   9.8839997 112.9079992  88.8514990  10.0459997
 112.9251917  87.9842954  10.1104844 111.2819992  90.7864990  12.4719997
 110.6349992  91.1114990  13.0969997 110.7649992  90.3454990  11.7979997
 111.1234112  90.7714133  12.4665272 113.3049992  85.0244990   1.6079997
 112.7839992  85.3804990   0.8899997 113.2719992  85.6994990   2.2869997
 113.2290955  85.1645023   1.6012634 111.6539992  82.2634990   0.1589997
 111.7509992  82.9304990  -0.5210003 111.5139992  81.4484990  -0.3220003
 111.6483407  82.2445670   0.0008312 110.8239992  83.6444990   5.7799997
 110.6739992  82.6994990   5.7599997 110.4699992  83.9254990   6.6239997
 110.7556351  83.5531656   5.8913202  95.8589992  85.7224990   9.7909997
  96.0429992  85.6404990   8.8549997  96.7079992  85.5984990  10.2139997
  95.9990132  85.6945066   9.7201460 111.6799992  85.6144990  15.4189997
 112.2629992  84.8794990  15.6109997 112.2439992  86.3864990  15.4659997
 111.8359781  85.6183156  15.4516146 113.1769992  83.5174990  16.1039997
 112.3129992  83.1384990  15.9379997 113.7809992  82.7784990  16.0289997
 113.1405394  83.3658378  16.0711778 110.5339992  81.2264990   4.2429997
 110.8139992  80.3194990   4.3669997 111.2929992  81.6604990   3.8539997
 110.6749258  81.1610935   4.2073691 111.1459992  81.8084990   9.6789997
 112.0789992  82.0204990   9.6439997 110.9109992  81.9094990  10.6009997
 111.2419517  81.8511844   9.7989113 138.1439992  23.5784990  84.1619997
 138.1869992  24.4384990  83.7439997 137.6859992  23.0254990  83.5289997
 138.0879613  23.6215689  84.0191276 111.1749992  82.5454990  12.4549997
 110.3319992  82.8134990  12.8199997 111.6179992  83.3674990  12.2439997
 111.1194035  82.6933351  12.4764770  95.4559992  80.9924990  15.9309997
  96.3759992  80.8704990  16.1679997  95.0069992  80.2424990  16.3209997
  95.5210500  80.8744576  16.0161016 113.4579992  76.5254990  17.8079997
 113.8079992  75.8714990  17.2019997 113.6049992  77.3624990  17.3679997
 113.5257192  76.5492545  17.6656712 111.1479992  78.4894990   4.2909997
 111.3299992  78.0404990   5.1159997 110.5479992  77.9054990   3.8269997
 111.0918187  78.3490563   4.3412721  96.6779992  79.3054990   8.8229997
  97.1229992  78.5134990   9.1249997  97.1439992  80.0214990   9.2529997
  96.8019718  79.2939546   8.9225247  94.9819992  82.3044990   9.8919997
  95.4739992  82.0834990   9.1009997  95.3439992  83.1444990  10.1729997
  95.0982923  82.3878480   9.8217389 112.9779992  78.6344990  16.1569997
 112.0609992  78.9054990  16.1209997 113.1009992  78.0994990  15.3729997
 112.8690828  78.5992711  16.0460767 113.0139992  78.5574990   0.8189997
 113.4269992  77.8364990   0.3439997 113.6959992  79.2264990   0.8769997
 113.1626060  78.5493741   0.7619233  95.2949992  78.5624990   3.9459997
  94.3699992  78.7704990   3.8169997  95.7489992  79.0464990   3.2559997
  95.2296298  78.6564311   3.8350433 110.0659992  93.5464990   5.8919997
 110.7179992  93.1984990   5.2839997 110.5769992  94.0344990   6.5379997
 110.2242872  93.5648248   5.8960964 134.7639992  25.9754990  84.9239997
 135.4179992  25.4254990  85.3559997 134.7879992  25.7014990  84.0079997
 134.8567022  25.8632005  84.8591698  95.2589992  77.3004990  12.2899997
  94.5939992  77.0544990  12.9329997  94.8159992  77.9224990  11.7129997
  95.1081168  77.3509225  12.2999830  97.4509992  90.4754990  16.4349997
  96.6299992  90.6504990  15.9739997  97.1989992  90.4024990  17.3549997
  97.3045594  90.4895728  16.4963593 100.4049992  91.4494990  12.6929997
  99.9799992  92.2594990  12.4109997 101.3089992  91.5354990  12.3909997
 100.4690706  91.5719557  12.6135836 104.7159992  92.8484990  15.6529997
 104.9009992  92.5154990  16.5309997 105.5629992  93.1584990  15.3309997
 104.8557291  92.8448214  15.7296140 107.0609992  94.1344990  14.8969997
 107.7379992  93.5014990  14.6569997 107.3829992  94.5354990  15.7039997
 107.1971618  94.1021147  14.9732802 111.9789992  76.7244990  13.9759997
 111.1659992  77.0494990  13.5889997 112.2119992  75.9634990  13.4429997
 111.8991347  76.6661891  13.8509824  97.8069992  94.7064990  12.7409997
  97.0859992  95.1464990  12.2899997  97.4409992  94.4554990  13.5889997
  97.6589632  94.7327235  12.7939649 100.2739992  94.3064990  11.7699997
  99.4089992  94.3784990  12.1739997 100.2189992  94.8534990  10.9869997
 100.1482289  94.3903242  11.7193749 104.9849992  94.1944990  10.9459997
 104.5279992  94.7234990  10.2919997 105.1469992  94.7974990  11.6709997
 104.9443919  94.3483990  10.9545740 107.3119992  93.0724990  11.8909997
 106.4079992  93.2374990  11.6249997 107.7409992  93.9254990  11.8249997
 107.2462017  93.2104184  11.8456495 136.9539992  22.4964990  88.2359997
 136.7349992  23.0264990  87.4699997 136.2859992  22.7224990  88.8839997
 136.8337271  22.5996508  88.2186206 109.9159992  94.6424990  12.1859997
 109.7349992  95.5584990  11.9749997 110.0929992  94.2314990  11.3389997
 109.9151377  94.7123365  12.0427178  97.2219992  93.3294990   9.6509997
  97.2029992  92.9034990  10.5079997  98.0259992  93.0104990   9.2419997
  97.3281393  93.2280297   9.7130155  99.3629992  92.0394990   8.3059997
  99.1439992  91.1224990   8.4759997 100.1869992  92.1794990   8.7719997
  99.4444702  91.9330523   8.3922510 101.8999992  92.5094990   9.1549997
 102.1129992  91.6214990   8.8679997 101.9649992  92.4744990  10.1089997
 101.9379149  92.3833338   9.2447351 105.4089992  78.1734990   8.2989997
 104.7339992  77.5434990   8.5549997 105.9729992  77.6894990   7.6959997
 105.3929363  78.0218886   8.2524810 110.5509992  76.2804990   8.4119997
 111.1549992  76.8284990   7.9099997 109.6819992  76.5994990   8.1709997
 110.5160419  76.3985628   8.3107741 112.2779992  77.4194990   6.7449997
 112.8899992  76.9054990   6.2179997 112.6609992  78.2964990   6.7679997
 112.4133867  77.4677613   6.6760888  97.7349992  76.8074990   6.1209997
  96.9579992  76.5724990   5.6139997  98.2659992  76.0104990   6.1299997
  97.7003735  76.6676462   6.0528090  96.5719992  76.6054990   1.9249997
  97.0109992  77.2164990   1.3329997  95.9379992  77.1434990   2.3989997
  96.5463859  76.7619076   1.9080287 102.3149992  76.7334990   5.9339997
 103.1889992  77.1224990   5.9049997 102.1789992  76.5184990   6.8569997
 102.4161953  76.7576654   6.0547599 139.5229992  30.1714990  88.5239997
 138.7829992  30.7704990  88.6269997 140.2369992  30.7254990  88.2079997
 139.5183288  30.3282368  88.4953787 107.8709992  76.7634990   7.5839997
 107.9479992  76.8594990   6.6339997 107.5959992  75.8564990   7.7119997
 107.8443233  76.6539093   7.4713665 109.2249992  76.7894990   3.2759997
 108.5219992  77.4044990   3.0659997 108.7799992  75.9524990   3.4069997
 109.0686550  76.7604679   3.2649819  96.4729992  92.5534990   2.8219997
  95.7879992  92.5154990   2.1549997  96.4759992  93.4654990   3.1099997
  96.3796806  92.6716669   2.7696961  98.4329992  78.5214990   0.3669997
  98.9239992  77.8914990  -0.1600003  99.0559992  78.8174990   1.0299997
  98.5845304  78.4752387   0.3844922 103.4589992  78.8144990   2.8239997
 103.6369992  78.1674990   3.5069997 103.4049992  79.6484990   3.2909997
 103.4760678  78.8386615   2.9806283 105.3369992  93.7624990   1.2199997
 106.2029992  94.1294990   1.0419997 105.0899992  93.3234990   0.4059997
 105.4221853  93.7534021   1.0855813 112.0459992  93.3254990   3.8989997
 111.8519992  92.5774990   3.3339997 112.0069992  94.0834990   3.3159997
 112.0141645  93.3255797   3.7428131  97.6929992  77.3214990  15.6389997
  97.3269992  76.5554990  16.0809997  98.6059992  77.3504990  15.9249997
  97.7663172  77.2205335  15.7381872  99.6659992  76.6714990  17.1739997
 100.5649992  76.3974990  16.9899997  99.2799992  75.9294990  17.6389997
  99.7367307  76.5337207  17.2117080  98.2909992  93.4734990  -0.1530003
  98.0229992  93.7594990   0.7209997  99.0619992  92.9274990  -0.0000003
  98.3585926  93.4387790  -0.0128812 136.5479992  24.3884990  86.1889997
 137.1609992  25.0214990  86.5619997 137.0599992  23.9164990  85.5319997
 136.7011680  24.4114006  86.1512830 108.0869992  76.0044990  17.3569997
 108.1639992  75.5784990  18.2099997 108.9809992  76.0174990  17.0139997
 108.2183263  75.9479345  17.4274366 111.2639992  92.0764990  16.0489997
 110.4819992  91.8904990  15.5289997 111.1919992  93.0064990  16.2659997
 111.1472975  92.1766973  16.0071822 125.6699992  85.9634990   6.0799997
 125.7589992  86.9074990   5.9469997 125.0309992  85.6884990   5.4219997
 125.5958378  86.0553846   5.9729258 124.6029992  85.2184990   9.4989997
 124.5639992  84.5724990  10.2039997 124.2799992  84.7514990   8.7269997
 124.5540470  85.0670005   9.4912803 116.9709992  84.8324990  11.0919997
 117.0119992  84.2074990  11.8149997 117.6739992  85.4564990  11.2739997
 117.0716223  84.8312318  11.2156164 128.3089992  88.1574990   7.7999997
 127.8679992  87.4374990   8.2509997 128.2959992  88.8784990   8.4299997
 128.2469215  88.1564303   7.9468088 117.8949992  89.2824990   9.6269997
 117.5249992  88.4804990   9.2569997 118.8359992  89.1144990   9.6729997
 117.9715984  89.1499649   9.5825586 114.5049992  82.9424990   5.0189997
 114.0569992  83.7884990   5.0009997 113.9439992  82.3634990   4.5039997
 114.3678546  82.9799004   4.9468874 115.2149992  85.1044990   7.1449997
 115.4289992  84.3344990   7.6719997 115.9529992  85.1944990   6.5419997
 115.3440073  85.0113546   7.1355786 125.4199992  93.2614990   8.0119997
 126.0399992  92.5854990   7.7389997 125.2119992  93.0434990   8.9209997
 125.4767679  93.1395032   8.0974518 137.9299992  32.1364990  89.3109997
 137.9249992  33.0154990  88.9329997 137.0769992  32.0524990  89.7359997
 137.8139199  32.2455901  89.3166942 122.9919992  87.6504990   9.9049997
 123.2959992  86.9644990   9.3099997 123.7139992  87.7694990  10.5229997
 123.1311240  87.5727325   9.9070941 131.6549992  79.2524990  10.7649997
 131.7039992  79.8624990  11.5009997 132.0809992  79.7134990  10.0419997
 131.7192851  79.3983266  10.7680532 126.1329992  82.0444990  10.2319997
 126.2749992  81.0984990  10.2519997 126.0269992  82.2514990   9.3039997
 126.1381051  81.9429706  10.1092249 119.2879992  80.1464990   7.5049997
 119.3309992  81.0064990   7.0859997 118.8299992  79.5934990   6.8709997
 119.2320163  80.1894174   7.3620604 127.0099992  80.2774990   5.9049997
 127.6559992  79.9484990   6.5299997 127.5199992  80.7944990   5.2829997
 127.1674289  80.3024333   5.9063681 115.9079992  82.5434990   8.2669997
 116.5619992  81.9934990   8.6989997 115.9319992  82.2694990   7.3499997
 116.0007199  82.4312178   8.2021650 121.0639992  84.0934990   7.4819997
 121.6799992  83.5664990   7.9909997 120.4779992  83.4534990   7.0779997
 121.0690652  83.9348919   7.4970277 132.0469992  80.7304990  13.0009997
 131.3579992  81.3884990  12.9059997 132.0619992  80.5324990  13.9379997
 131.9547756  80.7937614  13.1145795 118.0979992  79.0644990  11.5789997
 117.8789992  79.5944990  10.8119997 117.4299992  79.2904990  12.2259997
 117.9776975  79.1675979  11.5615123 125.4669992  88.5644990   5.1229997
 125.1709992  88.2414990   4.2709997 125.1429992  89.4644990   5.1639997
 125.3827458  88.6419678   5.0120598 134.0519992  31.8074990  80.0929997
 133.7799992  32.0364990  79.2039997 134.0969992  32.6444990  80.5529997
 134.0208709  31.9521069  80.0336089 120.6669992  86.7394990  11.8659997
 119.9269992  87.3384990  11.9699997 121.3809992  87.2934990  11.5499997
 120.6623146  86.8962611  11.8375150 128.7739992  79.5684990   7.8859997
 128.5589992  78.8024990   8.4189997 129.4299992  80.0404990   8.3989997
 128.8332673  79.5275739   8.0281972 117.6919992  80.9564990   9.5309997
 118.3049992  81.5894990   9.9039997 118.2039992  80.4844990   8.8749997
 117.8451933  80.9793380   9.4933477 119.0739992  88.7044990  12.6529997
 119.0689992  89.5834990  12.2749997 118.2209992  88.6204990  13.0779997
 118.9579199  88.8135901  12.6586942 115.1959992  88.3754990   3.4349997
 114.9239992  88.6044990   2.5459997 115.2409992  89.2124990   3.8959997
 115.1648360  88.5201034   3.3756186 128.8209992  89.9964990  10.1479997
 127.8789992  90.0554990  10.3099997 129.0969992  90.9024990  10.0109997
 128.7295865  90.1270299  10.1516174 129.1209992  78.2834990  11.5649997
 128.3849992  78.8934990  11.5279997 129.8049992  78.6984990  11.0389997
 129.1125367  78.4232562  11.4888156 122.1239992  76.3694990   9.0309997
 122.0069992  75.4214990   8.9769997 121.2689992  76.7024990   9.3039997
 121.9923691  76.2845842   9.0605072 127.0729992  91.7774990   6.7729997
 127.4979992  91.0704990   6.2879997 127.3899992  92.5794990   6.3559997
 127.1740266  91.7890201   6.6502461 128.2319992  89.6784990   5.2819997
 127.9749992  88.9884990   4.6699997 128.3029992  89.2354990   6.1269997
 128.2064322  89.5241568   5.3125372 138.2979992  29.4794990  83.0239997
 137.9679992  29.1084990  82.2049997 138.8859992  28.8084990  83.3699997
 138.3324056  29.3381257  82.9589035 129.9179992  88.2454990  13.7589997
 130.0579992  87.6534990  13.0199997 130.0859992  89.1184990  13.4029997
 129.9598734  88.2824041  13.6096937 124.3909992  85.2074990   3.5319997
 123.6789992  85.7424990   3.1799997 125.0819992  85.2624990   2.8719997
 124.3869704  85.2881663   3.3945797 124.4449992  83.6644990   0.5699997
 125.1459992  83.6874990   1.2219997 124.7469992  83.0364990  -0.0860003
 124.5818202  83.5827223   0.5705591 131.7599992  84.5854990  11.8249997
 131.1079992  85.2794990  11.9139997 132.2249992  84.7954990  11.0149997
 131.7335357  84.7089544  11.7277056 127.7969992  85.4164990   4.4829997
 127.0649992  85.6454990   5.0559997 128.2439992  84.7034990   4.9379997
 127.7572753  85.3513984   4.6229698 127.6939992  83.5914990  13.5509997
 127.7739992  84.3544990  14.1229997 127.0929992  83.8704990  12.8609997
 127.6236547  83.7337468  13.5360029 119.4419992  86.0474990   6.3659997
 119.1119992  85.6764990   5.5479997 120.0299992  85.3764990   6.7129997
 119.4763182  85.9060648   6.3009898 120.8089992  89.4754990   9.0469997
 120.7139992  88.8964990   8.2909997 121.5379992  89.1044990   9.5429997
 120.8946011  89.3460572   9.0106011 119.8089992  84.8154990   9.9989997
 120.3739992  84.9374990   9.2369997 120.1269992  85.4534990  10.6379997
 119.9293619  84.9184388   9.9810019 126.1179992  90.3194990  10.7329997
 125.8769992  90.9814990  11.3809997 125.9199992  89.4844990  11.1579997
 126.0582662  90.2972704  10.8791008 138.6649992  28.2474990  86.6569997
 139.2299992  28.3694990  85.8939997 138.9829992  28.8854990  87.2959997
 138.7853430  28.3504448  86.6389094 120.6889992  89.2154990  14.7169997
 120.3769992  89.9974990  15.1719997 120.0389992  89.0624990  14.0309997
 120.5584858  89.3017882  14.6865344 126.6679992  84.5794990   2.1689997
 127.2469992  84.7294990   2.9149997 127.0819992  85.0494990   1.4449997
 126.8033358  84.6635966   2.1733935 117.6089992  85.4134990  13.9449997
 117.6789992  86.0644990  14.6439997 116.7179992  85.5164990  13.6099997
 117.4981690  85.5164261  13.9953026 124.3939992  91.3154990   5.6039997
 124.8679992  91.6114990   6.3809997 123.8309992  92.0544990   5.3709997
 124.3827890  91.4558047   5.6788084 118.9279992  91.2864990  15.4799997
 118.9359992  91.1504990  14.5329997 118.0119992  91.1694990  15.7319997
 118.8052528  91.2520475  15.3843226 130.3659992  76.3294990   1.9809997
 129.4659992  76.4674990   2.2769997 130.6179992  77.1604990   1.5799997
 130.2767727  76.4608705   1.9672935 118.4319992  85.1164990   3.9549997
 118.1399992  85.8844990   3.4639997 117.7579992  84.4574990   3.7919997
 118.3008843  85.1324537   3.8657695 131.5559992  90.6954990   0.3579997
 131.6289992  91.6344990   0.5279997 132.4609992  90.3904990   0.3019997
 131.6884170  90.7828294   0.3737045 114.5249992  87.4794990  12.7699997
 114.0239992  87.4514990  11.9549997 114.5309992  86.5744990  13.0799997
 114.4571690  87.3532234  12.7002770 114.2759992  90.2604990   9.6539997
 115.2219992  90.1154990   9.6349997 114.1629992  91.0444990  10.1909997
 114.3903578  90.3466708   9.7240300 139.5449992  32.6474990  91.3739997
 139.2329992  33.4294990  91.8299997 138.8949992  32.4944990  90.6879997
 139.4144643  32.7338019  91.3436657 132.4729992  90.9264990  15.3369997
 132.4239992  89.9704990  15.2989997 131.6469992  91.1934990  15.7379997
 132.3545096  90.8318416  15.3860698 123.4519992  90.5004990  14.2129997
 123.5389992  91.3264990  14.6879997 122.5879992  90.1704990  14.4619997
 123.3471944  90.5689871  14.3116558 123.8659992  94.2724990   4.0189997
 123.7909992  94.1514990   3.0719997 123.8989992  95.2214990   4.1369997
 123.8602083  94.3842639   3.9054973 117.5199992  93.0614990   5.7999997
 117.6719992  92.7134990   6.6779997 116.6689992  92.7044990   5.5439997
 117.4258344  92.9655891   5.8856851 126.9679992  93.4264990   1.0209997
 127.3429992  92.6824990   0.5499997 126.9719992  93.1564990   1.9389997
 127.0198969  93.2880920   1.0806475 126.6369992  93.3524990   3.7699997
 125.7019992  93.4524990   3.9489997 126.9169992  92.6424990   4.3489997
 126.5469471  93.2702944   3.8726678 129.6249992  82.4194990  15.8169997
 129.2179992  82.8994990  15.0959997 129.6659992  81.5134990  15.5089997
 129.5748403  82.3627989  15.6767253 116.7739992  88.8034990  13.8129997
 116.9899992  88.4414990  14.6729997 115.9189992  88.4284990  13.6039997
 116.6879082  88.7033377  13.9022396 119.3929992  77.2734990   9.8089997
 118.5309992  77.1864990   9.4009997 119.3709992  78.1294990  10.2369997
 119.2720557  77.3773078   9.8110202 124.0559992  76.9954990  13.1839997
 124.4759992  76.5804990  13.9369997 123.1229992  76.8164990  13.3009997
 123.9873736  76.9144921  13.3028950 136.4649992  28.8454990  90.6029997
 136.5349992  29.4964990  91.3009997 135.5739992  28.9484990  90.2679997
 136.3541802  28.9484769  90.6532231 127.3819992  80.7504990  14.0369997
 126.8679992  80.6254990  14.8349997 127.2269992  81.6634990  13.7929997
 127.2907802  80.8567433  14.1131504 128.1449992  85.6114990  -0.2020003
 128.1869992  85.3894990  -1.1320003 128.9939992  86.0104990  -0.0120003
 128.2655253  85.6350510  -0.3036196 123.7179992  79.4874990   0.4689997
 123.4639992  79.5064990   1.3909997 123.4609992  78.6164990   0.1669997
 123.6484508  79.3723292   0.5544786 119.4839992  82.2384990  10.9039997
 118.8419992  82.1984990  11.6129997 119.5209992  83.1654990  10.6659997
 119.4011659  82.3582540  10.9688463 119.4809992  82.4594990   5.8159997
 118.5879992  82.1194990   5.7569997 119.9319992  82.0824990   5.0599997
 119.4197185  82.3620220   5.7057698 125.0169992  82.8754990   4.6329997
 124.6079992  83.6904990   4.3409997 125.7369992  82.7354990   4.0189997
 125.0584439  82.9680383   4.5100098 124.1189992  83.0514990  16.1209997
 123.5559992  82.3464990  16.4419997 124.9449992  82.9304990  16.5889997
 124.1536674  82.9387176  16.2281734 126.0209992  82.3214990   7.4469997
 125.8259992  82.9274990   6.7319997 126.2029992  81.4884990   7.0129997
 126.0189195  82.2917936   7.2904079 117.2339992  82.5594990  12.7709997
 117.1959992  82.9594990  13.6399997 116.7429992  81.7424990  12.8609997
 117.1624374  82.5038228  12.9020980 120.5999992  79.9334990  -0.4300003
 120.1689992  79.4884990   0.2989997 119.8819992  80.3044990  -0.9430003
 120.4439176  79.9227063  -0.3995087 137.7839992  34.7184990  92.1379997
 137.7919992  34.5824990  91.1899997 136.8679992  34.6014990  92.3899997
 137.6612512  34.6840663  92.0423179 113.8419992  79.6754990   6.6219997
 114.4729992  79.6464990   7.3409997 114.2919992  79.2504990   5.8909997
 113.9891082  79.6141269   6.6216307 115.1159992  80.4214990   2.0459997
 115.5909992  81.0124990   1.4609997 114.3989992  80.9514990   2.3929997
 115.0840406  80.5741011   2.0128495 125.2849992  83.9594990  12.1179997
 125.6089992  83.3284990  11.4749997 124.8449992  83.4254990  12.7789997
 125.2698707  83.8008261  12.1193195 122.0629992  79.8874990   6.9019997
 121.1519992  79.9444990   7.1909997 122.5679992  79.8274990   7.7129997
 122.0066873  79.8871838   7.0511190 116.8909992  81.5164990   5.7289997
 116.0019992  81.6154990   5.3889997 117.1869992  80.6744990   5.3829997
 116.8094001  81.4162473   5.6357318 120.5439992  81.5164990   3.3859997
 121.4759992  81.6454990   3.5639997 120.3289992  82.1854990   2.7359997
 120.6424472  81.6245817   3.3224873 126.4679992  79.1224990  10.1659997
 125.7909992  79.2534990  10.8299997 125.9819992  78.9674990   9.3559997
 126.3097265  79.1194665  10.1473380 119.2179992  82.7104990   0.9519997
 118.6759992  82.3314990   0.2609997 120.0519992  82.9054990   0.5239997
 119.2564390  82.6849091   0.7994374 129.7549992  94.7934990  16.4429997
 129.9549992  95.2174990  15.6089997 130.4109992  95.1374990  17.0499997
 129.8709937  94.8979993  16.4108645 117.3529992  87.2674990  16.0509997
 118.0849992  87.5224990  16.6129997 116.5729992  87.4724990  16.5669997
 117.3476526  87.3300438  16.1975168 137.2879992  28.5484990  80.6129997
 136.9959992  29.3164990  80.1219997 136.6139992  27.8894990  80.4499997
 137.1568843  28.5644537  80.5237695 123.3829992  82.6744990   8.7889997
 123.9469992  82.1284990   8.2419997 123.2349992  82.1534990   9.5779997
 123.4403037  82.5291798   8.8207212 118.3849992  78.8114990   5.2079997
 118.0669992  77.9084990   5.1719997 119.1659992  78.8134990   4.6549997
 118.4471079  78.6882240   5.1282908 122.0089992  81.0634990  11.2029997
 121.1739992  81.5174990  11.3139997 122.5329992  81.3394990  11.9549997
 121.9656072  81.1628960  11.3198118 122.5529992  87.2764990   2.8879997
 121.8079992  86.7684990   2.5659997 122.4189992  87.3254990   3.8339997
 122.4329334  87.2136144   2.9718892 129.7029992  86.4094990  11.6749997
 130.3449992  86.8654990  11.1309997 128.8729992  86.5224990  11.2119997
 129.6786536  86.4871813  11.5379579 126.4509992  80.0904990   1.0869997
 125.5119992  80.2014990   0.9359997 126.7479992  80.9464990   1.3939997
 126.3626136  80.2214977   1.1078568 124.0729992  87.4604990  14.1249997
 123.7269992  87.0784990  14.9319997 123.8729992  88.3934990  14.1959997
 123.9985987  87.5344013  14.2450443 127.1689992  81.9574990   2.7479997
 128.0609992  81.8194990   3.0669997 127.2259992  82.7484990   2.2109997
 127.2987380  82.0454777   2.7190981 117.6779992  86.5714990   8.6579997
 118.4229992  86.5684990   8.0559997 117.7559992  85.7474990   9.1389997
 117.7903366  86.4597395   8.6407412 124.6789992  88.7344990   1.9129997
 124.3839992  89.5614990   2.2949997 123.9759992  88.1154990   2.1099997
 124.5436379  88.7639182   1.9918636 133.3809992  30.9114990  89.4279997
 132.8799992  30.8834990  88.6129997 133.3869992  30.0064990  89.7379997
 133.3131690  30.7852234  89.3582770 114.6859992  85.0314990  13.9729997
 114.9089992  84.6134990  14.8039997 114.0839992  84.4194990  13.5499997
 114.6351513  84.8914617  14.0296722 121.7029992  84.5484990  16.1859997
 121.4069992  84.3834990  15.2899997 122.6339992  84.3284990  16.1749997
 121.7884401  84.4961891  16.0620189 126.3229992  89.9224990  14.0749997
 125.4219992  90.1054990  13.8079997 126.3569992  90.1814990  14.9959997
 126.2043861  89.9825245  14.1629517 132.0539992  82.1664990   2.4429997
 131.4999992  81.7704990   1.7699997 132.1549992  83.0774990   2.1649997
 131.9918589  82.2353904   2.3133839 132.0169992  87.9674990  15.2799997
 131.1659992  88.2054990  14.9119997 132.6079992  87.9504990  14.5259997
 131.9803831  87.9977623  15.1278448 130.3489992  90.9524990   2.9079997
 129.9769992  90.1274990   3.2169997 130.6269992  90.7694990   2.0099997
 130.3355807  90.8147031   2.8290063 127.5099992  85.7604990   9.9289997
 126.5819992  85.5294990   9.9019997 127.9609992  84.9834990   9.5989997
 127.4438165  85.6237785   9.8806772 120.0529992  90.0894990   6.0619997
 120.5799992  90.8624990   5.8619997 119.1729992  90.3134990   5.7599997
 120.0062121  90.2257344   5.9937460 115.8079992  84.9514990   0.6489997
 116.4239992  85.5784990   1.0289997 114.9459992  85.2674990   0.9209997
 115.7757678  85.0799423   0.7377192 121.4799992  87.7524990   5.6379997
 121.2389992  88.6774990   5.6799997 120.7399992  87.2934990   6.0349997
 121.3469463  87.8170969   5.6974279 133.1319992  33.6924990  86.3119997
 134.0779992  33.5474990  86.2929997 133.0189992  34.4764990  86.8489997
 133.2463578  33.7786708  86.3820300 121.9949992  91.9014990  11.9529997
 122.3579992  92.7554990  11.7199997 122.5269992  91.6094990  12.6939997
 122.1165141  91.9788907  12.0212079 120.1629992  92.7734990   5.1839997
 119.2139992  92.8794990   5.2349997 120.5149992  93.5944990   5.5279997
 120.0805647  92.8990029   5.2374882 125.5389992  88.0004990  11.6539997
 125.1129992  87.7724990  12.4799997 126.1199992  87.2614990  11.4719997
 125.5592088  87.8694393  11.7424454 127.7419992  88.9294990   0.7279997
 128.0949992  88.5494990   1.5319997 126.7929992  88.8354990   0.8149997
 127.6620956  88.8647867   0.8498005 128.1979992  92.5524990  14.1229997
 127.5959992  91.9964990  13.6279997 128.4789992  93.2194990  13.4969997
 128.1535757  92.5665755  13.9705657 132.2449992  93.4084990   0.9289997
 132.9889992  93.9944990   0.7889997 131.5509992  93.9774990   1.2619997
 132.2529809  93.5655830   0.9548572 116.3199992  79.7854990  13.5309997
 115.4269992  80.1234990  13.4629997 116.2209992  78.9294990  13.9489997
 116.1844752  79.7160986  13.5781644 128.6079992  87.6014990   2.9549997
 128.3309992  86.8734990   3.5109997 129.5349992  87.7204990   3.1599997
 128.6954419  87.5179436   3.0588264 115.9709992  91.5894990  11.9659997
 116.1879992  90.6574990  11.9349997 116.2179992  91.8644990  12.8489997
 116.0340948  91.4990976  12.0811268 120.7699992  89.6114990   1.6309997
 120.9169992  89.0914990   2.4209997 120.7669992  90.5184990   1.9379997
 120.7897102  89.6628964   1.7805907 136.3759992  36.4934990  82.4569997
 136.5279992  36.1454990  83.3359997 135.5249992  36.1364990  82.2019997
 136.2817899  36.3976749  82.5427322 117.2229992  86.8634990   2.1419997
 116.5369992  87.2164990   2.7089997 117.7459992  87.6264990   1.8949997
 117.1998402  87.0148912   2.1861783 125.0539992  79.5264990  12.4209997
 125.7529992  79.6004990  13.0709997 124.6739992  78.6614990  12.5749997
 125.0982662  79.4197050  12.5307412 125.8389992  79.1784990   3.5179997
 126.0589992  79.6494990   2.7139997 126.3969992  79.5724990   4.1879997
 125.9446044  79.2962946   3.4985207 123.5079992  91.3084990   2.3809997
 122.6909992  91.8054990   2.4329997 124.0369992  91.7844990   1.7399997
 123.4678125  91.4407000   2.3015289 123.0389992  80.9064990   4.3529997
 123.8509992  81.4104990   4.3989997 122.7939992  80.7614990   5.2669997
 123.1171091  80.9559366   4.4828552 123.5749992  81.8924990  13.5369997
 123.6939992  82.4664990  14.2939997 124.2299992  81.2044990  13.6519997
 123.6798684  81.8780205  13.6561656 123.9229992  77.9874990   5.2909997
 123.5759992  78.6044990   5.9349997 124.5809992  78.4884990   4.8089997
 123.9644430  78.1396860   5.3140046 120.8459992  92.3524990   2.3619997
 121.0069992  93.1524990   1.8619997 120.6489992  92.6594990   3.2469997
 120.8413906  92.5033690   2.4132316 119.5799992  79.0504990   1.9779997
 119.4969992  79.9384990   2.3249997 120.4699992  78.7854990   2.2099997
 119.6889331  79.1361177   2.0568067 129.7789992  79.7994990  14.3719997
 128.8629992  80.0614990  14.2849997 130.1149992  79.7964990  13.4759997
 129.6988499  79.8350174  14.2388748 135.6299992  32.2354990  90.4709997
 135.8459992  31.8734990  91.3309997 134.7749992  31.8604990  90.2609997
 135.5439349  32.1352914  90.5602134 128.3809992  83.5494990   8.4679997
 127.5839992  83.1344990   8.1399997 128.8259992  82.8594990   8.9589997
 128.3320367  83.3993372   8.4894897 117.8389992  89.4774990   1.0379997
 118.4309992  90.1774990   1.3149997 118.2979992  89.0444990   0.3189997
 117.9821652  89.5147686   0.9786515 116.1549992  82.1424990   0.1539997
 116.1099992  83.0814990   0.3329997 115.2669992  81.9064990  -0.1150003
 116.0288166  82.2391698   0.1421507 129.4679992  92.8054990  10.0899997
 129.3119992  93.4844990   9.4329997 130.3999992  92.8774990  10.2929997
 129.5727328  92.9081586  10.0275529 116.9629992  76.9234990   8.8269997
 116.7339992  76.9824990   7.8999997 116.5199992  76.1324990   9.1339997
 116.8717387  76.8246412   8.7415223 115.8929992  90.8644990   4.9879997
 115.0609992  91.3364990   5.0149997 116.4389992  91.3744990   4.3889997
 115.8528710  90.9980317   4.9107570 115.1819992  93.4764990  16.3179997
 115.7219992  93.2604990  17.0779997 114.6999992  92.6714990  16.1279997
 115.1908485  93.3380463  16.3964870 119.7789992  92.3964990  17.9379997
 120.5469992  91.9374990  18.2789997 119.7579992  92.1704990  17.0079997
 119.8812135  92.3031680  17.8589473 123.8709992  91.9044990  -0.6870003
 123.2269992  91.2734990  -0.3650003 124.6329992  91.3734990  -0.9180003
 123.8858708  91.7463171  -0.6741539 126.3559992  90.7764990  16.6669997
 126.0049992  89.9194990  16.9099997 127.0819992  90.9184990  17.2739997
 126.4061590  90.6785189  16.7822889 138.2489992  20.7054990  86.4669997
 137.3869992  20.6184990  86.0589997 138.2269992  21.5614990  86.8939997
 138.1280953  20.8093558  86.4689262 128.4749992  91.7214990  -0.4530003
 128.7579992  90.9264990  -0.0000003 129.2149992  91.9544990  -1.0140003
 128.6137295  91.6442349  -0.4668531 115.0889992  87.2874990  17.2719997
 115.2329992  86.3854990  16.9859997 114.3159992  87.5734990  16.7849997
 115.0042266  87.2026548  17.1670102 119.4299992  87.6304990  -0.5950003
 119.4939992  86.8364990  -0.0650003 120.0829992  87.5124990  -1.2850003
 119.5270483  87.5057496  -0.6156593 121.7439992  87.2564990  16.7049997
 121.4159992  87.5274990  15.8479997 121.8959992  86.3154990  16.6169997
 121.7196412  87.1664058  16.5757804 127.4789992  87.1724990  14.0879997
 128.2239992  87.7614990  13.9689997 126.7209992  87.7544990  14.1509997
 127.4785289  87.3317067  14.0802292 115.9209992  84.4874990  16.6919997
 116.3289992  83.6304990  16.5709997 115.6609992  84.5014990  17.6129997
 115.9417082  84.3720596  16.7999469 120.5789992  85.6034990   1.7109997
 120.1199992  85.1194990   2.3959997 120.8339992  84.9344990   1.0749997
 120.5505997  85.4468491   1.7188734 119.8679992  83.4964990  14.0669997
 119.2499992  84.1704990  14.3469997 120.2119992  83.8174990  13.2329997
 119.8298078  83.6322298  13.9926609 121.6499992  83.8464990  -0.0270003
 121.4699992  83.6914990  -0.9540003 122.5999992  83.9544990   0.0179997
 121.7537804  83.8398821  -0.1478034 124.8879992  85.9674990  17.3439997
 125.8409992  86.0514990  17.3169997 124.7279992  85.2554990  17.9629997
 124.9967320  85.8827292  17.4239933 138.3399992  25.6704990  87.5619997
 137.6979992  25.6304990  88.2709997 138.3769992  26.5974990  87.3239997
 138.2571659  25.7902540  87.6268463 131.0399992  86.2004990  -0.5810003
 130.7669992  85.7764990  -1.3940003 131.0799992  87.1324990  -0.7980003
 131.0080201  86.2683523  -0.7216452 120.2079992  80.8514990  15.1489997
 120.3579992  80.1224990  14.5469997 120.2099992  81.6284990  14.5899997
 120.2287967  80.8567720  14.9910523 120.6199992  79.2204990  12.6419997
 121.1559992  79.6724990  11.9899997 119.7679992  79.1124990  12.2189997
 120.5781795  79.2677444  12.4956211 122.2019992  84.6604990  12.8809997
 122.9529992  84.5044990  12.3079997 121.8629992  85.5124990  12.6059997
 122.2589587  84.7543149  12.7654060 126.6179992  82.4754990  17.9099997
 126.8099992  81.5444990  17.7979997 127.4749992  82.9004990  17.8989997
 126.7602176  82.4055090  17.8931757 127.9339992  85.2644990  15.9869997
 127.6529992  85.9734990  15.4089997 128.8769992  85.1914990  15.8359997
 128.0229272  85.3516704  15.8874976 118.6859992  82.0494990  17.0599997
 117.9189992  81.5164990  16.8499997 119.3649992  81.7394990  16.4609997
 118.6728292  81.9346360  16.9502693 121.4259992  76.6774990  13.0729997
 121.3279992  77.6234990  12.9679997 120.6829992  76.3044990  12.5969997
 121.3122123  76.7566811  12.9943204 122.6899992  80.9984990  16.6369997
 122.4539992  80.7794990  17.5379997 121.9069992  80.7914990  16.1269997
 122.5518382  80.9405340  16.6913991 125.4059992  80.1264990  15.7119997
 124.4579992  80.1584990  15.8439997 125.7179992  79.5004990  16.3659997
 125.3185293  80.0462934  15.8184130 138.3369992  25.8914990  82.4739997
 137.4439992  25.5514990  82.4149997 138.7879992  25.5144990  81.7179997
 138.2757185  25.7940220  82.3637698 127.0399992  78.7604990  17.7169997
 126.9429992  77.8084990  17.7119997 126.7179992  79.0284990  18.5779997
 126.9832468  78.6665896  17.8326192 116.8669992  79.9694990  16.7649997
 117.0779992  79.2634990  16.1549997 116.7549992  79.5324990  17.6089997
 116.8807668  79.8136619  16.7955445 121.6479992  75.9714990  15.7439997
 122.3589992  75.3314990  15.7299997 121.5469992  76.2374990  14.8309997
 121.7316858  75.9198591  15.6185501 122.0009992  77.6534990  17.7979997
 121.8699992  77.1784990  16.9779997 121.4019992  78.3984990  17.7429997
 121.9020829  77.6890949  17.6781823 121.5479992  94.5364990   0.9739997
 122.4809992  94.6944990   1.1179997 121.2829992  95.2124990   0.3489997
 121.6399846  94.6494567   0.9092930 115.1159992  89.1734990   0.4569997
 116.0299992  89.2524990   0.7299997 115.1229992  88.4864990  -0.2090003
 115.2420624  89.0914074   0.4043045 113.7649992  94.5664990   5.5339997
 113.1179992  94.1044990   5.0019997 114.1199992  93.8944990   6.1169997
 113.7243741  94.4124785   5.5399157 114.6349992  92.6464990   7.3389997
 114.3009992  91.7664990   7.5109997 114.8569992  92.9924990   8.2039997
 114.6192565  92.5727410   7.4794263 132.1839992  93.4564990  10.3199997
 132.1619992  93.6414990  11.2579997 132.8739992  94.0244990   9.9789997
 132.2743383  93.5587104  10.4024580 131.7469992  93.0234990  13.2409997
 131.2599992  92.2874990  12.8699997 132.2959992  92.6294990  13.9189997
 131.7546101  92.8696267  13.2819034 136.0899992  25.9914990  89.4289997
 136.0519992  26.3914990  90.2969997 135.5989992  25.1744990  89.5189997
 136.0184246  25.9358842  89.5601171 130.1979992  88.8134990  17.8789997
 129.3319992  88.7084990  18.2739997 130.5739992  89.5714990  18.3259997
 130.1304940  88.9016141  17.9933958 131.4989992  87.0694990   3.3939997
 132.3489992  87.4904990   3.5209997 131.5039992  86.3294990   4.0009997
 131.6161143  87.0271106   3.4934732 131.8929992  85.1234990   5.2169997
 131.1669992  84.6434990   5.6149997 132.4739992  85.3284990   5.9489997
 131.8722504  85.0855592   5.3704199 131.6519992  87.9084990  10.1649997
 132.4859992  87.5304990   9.8839997 131.7639992  88.8514990  10.0459997
 131.7811917  87.9842954  10.1104844 130.1379992  90.7864990  12.4719997
 129.4909992  91.1114990  13.0969997 129.6209992  90.3454990  11.7979997
 129.9794112  90.7714133  12.4665272 132.1609992  85.0244990   1.6079997
 131.6399992  85.3804990   0.8899997 132.1279992  85.6994990   2.2869997
 132.0850955  85.1645023   1.6012634 130.5099992  82.2634990   0.1589997
 130.6069992  82.9304990  -0.5210003 130.3699992  81.4484990  -0.3220003
 130.5043407  82.2445670   0.0008312 129.6799992  83.6444990   5.7799997
 129.5299992  82.6994990   5.7599997 129.3259992  83.9254990   6.6239997
 129.6116351  83.5531656   5.8913202 114.7149992  85.7224990   9.7909997
 114.8989992  85.6404990   8.8549997 115.5639992  85.5984990  10.2139997
 114.8550132  85.6945066   9.7201460 130.5359992  85.6144990  15.4189997
 131.1189992  84.8794990  15.6109997 131.0999992  86.3864990  15.4659997
 130.6919781  85.6183156  15.4516146 139.4559992  23.3654990  76.2269997
 139.0249992  22.9204990  76.9569997 138.7379992  23.7364990  75.7149997
 139.2999363  23.3547979  76.2576194 132.0329992  83.5174990  16.1039997
 131.1689992  83.1384990  15.9379997 132.6369992  82.7784990  16.0289997
 131.9965394  83.3658378  16.0711778 129.3899992  81.2264990   4.2429997
 129.6699992  80.3194990   4.3669997 130.1489992  81.6604990   3.8539997
 129.5309258  81.1610935   4.2073691 130.0019992  81.8084990   9.6789997
 130.9349992  82.0204990   9.6439997 129.7669992  81.9094990  10.6009997
 130.0979517  81.8511844   9.7989113 130.0309992  82.5454990  12.4549997
 129.1879992  82.8134990  12.8199997 130.4739992  83.3674990  12.2439997
 129.9754035  82.6933351  12.4764770 114.3119992  80.9924990  15.9309997
 115.2319992  80.8704990  16.1679997 113.8629992  80.2424990  16.3209997
 114.3770500  80.8744576  16.0161016 132.3139992  76.5254990  17.8079997
 132.6639992  75.8714990  17.2019997 132.4609992  77.3624990  17.3679997
 132.3817192  76.5492545  17.6656712 130.0039992  78.4894990   4.2909997
 130.1859992  78.0404990   5.1159997 129.4039992  77.9054990   3.8269997
 129.9478187  78.3490563   4.3412721 115.5339992  79.3054990   8.8229997
 115.9789992  78.5134990   9.1249997 115.9999992  80.0214990   9.2529997
 115.6579718  79.2939546   8.9225247 113.8379992  82.3044990   9.8919997
 114.3299992  82.0834990   9.1009997 114.1999992  83.1444990  10.1729997
 113.9542923  82.3878480   9.8217389 131.8339992  78.6344990  16.1569997
 130.9169992  78.9054990  16.1209997 131.9569992  78.0994990  15.3729997
 131.7250828  78.5992711  16.0460767 132.6979992  23.1074990  83.2789997
 133.3289992  23.0784990  83.9989997 133.1479992  22.6824990  82.5489997
 132.8450905  23.0460839  83.2787479 131.8699992  78.5574990   0.8189997
 132.2829992  77.8364990   0.3439997 132.5519992  79.2264990   0.8769997
 132.0186060  78.5493741   0.7619233 114.1509992  78.5624990   3.9459997
 113.2259992  78.7704990   3.8169997 114.6049992  79.0464990   3.2559997
 114.0856298  78.6564311   3.8350433 128.9219992  93.5464990   5.8919997
 129.5739992  93.1984990   5.2839997 129.4329992  94.0344990   6.5379997
 129.0802872  93.5648248   5.8960964 114.1149992  77.3004990  12.2899997
 113.4499992  77.0544990  12.9329997 113.6719992  77.9224990  11.7129997
 113.9641168  77.3509225  12.2999830 116.3069992  90.4754990  16.4349997
 115.4859992  90.6504990  15.9739997 116.0549992  90.4024990  17.3549997
 116.1605594  90.4895728  16.4963593 119.2609992  91.4494990  12.6929997
 118.8359992  92.2594990  12.4109997 120.1649992  91.5354990  12.3909997
 119.3250706  91.5719557  12.6135836 123.5719992  92.8484990  15.6529997
 123.7569992  92.5154990  16.5309997 124.4189992  93.1584990  15.3309997
 123.7117291  92.8448214  15.7296140 125.9169992  94.1344990  14.8969997
 126.5939992  93.5014990  14.6569997 126.2389992  94.5354990  15.7039997
 126.0531618  94.1021147  14.9732802 130.8349992  76.7244990  13.9759997
 130.0219992  77.0494990  13.5889997 131.0679992  75.9634990  13.4429997
 130.7551347  76.6661891  13.8509824 116.6629992  94.7064990  12.7409997
 115.9419992  95.1464990  12.2899997 116.2969992  94.4554990  13.5889997
 116.5149632  94.7327235  12.7939649 133.9719992  23.8534990  78.7029997
 134.4469992  24.4444990  78.1179997 133.2549992  24.3834990  79.0499997
 133.9400406  24.0061011  78.6698495 119.1299992  94.3064990  11.7699997
 118.2649992  94.3784990  12.1739997 119.0749992  94.8534990  10.9869997
 119.0042289  94.3903242  11.7193749 123.8409992  94.1944990  10.9459997
 123.3839992  94.7234990  10.2919997 124.0029992  94.7974990  11.6709997
 123.8003919  94.3483990  10.9545740 126.1679992  93.0724990  11.8909997
 125.2639992  93.2374990  11.6249997 126.5969992  93.9254990  11.8249997
 126.1022017  93.2104184  11.8456495 128.7719992  94.6424990  12.1859997
 128.5909992  95.5584990  11.9749997 128.9489992  94.2314990  11.3389997
 128.7711377  94.7123365  12.0427178 116.0779992  93.3294990   9.6509997
 116.0589992  92.9034990  10.5079997 116.8819992  93.0104990   9.2419997
 116.1841393  93.2280297   9.7130155 118.2189992  92.0394990   8.3059997
 117.9999992  91.1224990   8.4759997 119.0429992  92.1794990   8.7719997
 118.3004702  91.9330523   8.3922510 120.7559992  92.5094990   9.1549997
 120.9689992  91.6214990   8.8679997 120.8209992  92.4744990  10.1089997
 120.7939149  92.3833338   9.2447351 124.2649992  78.1734990   8.2989997
 123.5899992  77.5434990   8.5549997 124.8289992  77.6894990   7.6959997
 124.2489363  78.0218886   8.2524810 129.4069992  76.2804990   8.4119997
 130.0109992  76.8284990   7.9099997 128.5379992  76.5994990   8.1709997
 129.3720419  76.3985628   8.3107741 131.1339992  77.4194990   6.7449997
 131.7459992  76.9054990   6.2179997 131.5169992  78.2964990   6.7679997
 131.2693867  77.4677613   6.6760888 135.7469992  24.9484990  82.3869997
 134.8579992  25.0474990  82.0469997 136.0429992  24.1064990  82.0409997
 135.6654001  24.8482473  82.2937318 116.5909992  76.8074990   6.1209997
 115.8139992  76.5724990   5.6139997 117.1219992  76.0104990   6.1299997
 116.5563735  76.6676462   6.0528090 115.4279992  76.6054990   1.9249997
 115.8669992  77.2164990   1.3329997 114.7939992  77.1434990   2.3989997
 115.4023859  76.7619076   1.9080287 121.1709992  76.7334990   5.9339997
 122.0449992  77.1224990   5.9049997 121.0349992  76.5184990   6.8569997
 121.2721953  76.7576654   6.0547599 126.7269992  76.7634990   7.5839997
 126.8039992  76.8594990   6.6339997 126.4519992  75.8564990   7.7119997
 126.7003233  76.6539093   7.4713665 128.0809992  76.7894990   3.2759997
 127.3779992  77.4044990   3.0659997 127.6359992  75.9524990   3.4069997
 127.9246550  76.7604679   3.2649819 115.3289992  92.5534990   2.8219997
 114.6439992  92.5154990   2.1549997 115.3319992  93.4654990   3.1099997
 115.2356806  92.6716669   2.7696961 117.2889992  78.5214990   0.3669997
 117.7799992  77.8914990  -0.1600003 117.9119992  78.8174990   1.0299997
 117.4405304  78.4752387   0.3844922 122.3149992  78.8144990   2.8239997
 122.4929992  78.1674990   3.5069997 122.2609992  79.6484990   3.2909997
 122.3320678  78.8386615   2.9806283 124.1929992  93.7624990   1.2199997
 125.0589992  94.1294990   1.0419997 123.9459992  93.3234990   0.4059997
 124.2781853  93.7534021   1.0855813 130.9019992  93.3254990   3.8989997
 130.7079992  92.5774990   3.3339997 130.8629992  94.0834990   3.3159997
 130.8701645  93.3255797   3.7428131 139.3999992  24.9484990  80.0429997
 140.3319992  25.0774990  80.2209997 139.1849992  25.6174990  79.3939997
 139.4984245  25.0566452  79.9795602 116.5489992  77.3214990  15.6389997
 116.1829992  76.5554990  16.0809997 117.4619992  77.3504990  15.9249997
 116.6223172  77.2205335  15.7381872 118.5219992  76.6714990  17.1739997
 119.4209992  76.3974990  16.9899997 118.1359992  75.9294990  17.6389997
 118.5927307  76.5337207  17.2117080 117.1469992  93.4734990  -0.1530003
 116.8789992  93.7594990   0.7209997 117.9179992  92.9274990  -0.0000003
 117.2145926  93.4387790  -0.0128812 126.9429992  76.0044990  17.3569997
 127.0199992  75.5784990  18.2099997 127.8369992  76.0174990  17.0139997
 127.0743263  75.9479345  17.4274366 130.1199992  92.0764990  16.0489997
 129.3379992  91.8904990  15.5289997 130.0479992  93.0064990  16.2659997
 130.0032975  92.1766973  16.0071822 135.8269992  84.8324990  11.0919997
 135.8679992  84.2074990  11.8149997 136.5299992  85.4564990  11.2739997
 135.9276223  84.8312318  11.2156164 136.7509992  89.2824990   9.6269997
 136.3809992  88.4804990   9.2569997 137.6919992  89.1144990   9.6729997
 136.8275984  89.1499649   9.5825586 133.3609992  82.9424990   5.0189997
 132.9129992  83.7884990   5.0009997 132.7999992  82.3634990   4.5039997
 133.2238546  82.9799004   4.9468874 134.0709992  85.1044990   7.1449997
 134.2849992  84.3344990   7.6719997 134.8089992  85.1944990   6.5419997
 134.2000073  85.0113546   7.1355786 138.1439992  80.1464990   7.5049997
 138.1869992  81.0064990   7.0859997 137.6859992  79.5934990   6.8709997
 138.0880163  80.1894174   7.3620604 136.2089992  30.6994990  92.7089997
 136.9409992  30.9544990  93.2699997 135.4289992  30.9044990  93.2239997
 136.2037684  30.7621457  92.8554774 134.7639992  82.5434990   8.2669997
 135.4179992  81.9934990   8.6989997 134.7879992  82.2694990   7.3499997
 134.8567199  82.4312178   8.2021650 136.9539992  79.0644990  11.5789997
 136.7349992  79.5944990  10.8119997 136.2859992  79.2904990  12.2259997
 136.8336975  79.1675979  11.5615123 139.5229992  86.7394990  11.8659997
 138.7829992  87.3384990  11.9699997 140.2369992  87.2934990  11.5499997
 139.5183146  86.8962611  11.8375150 136.5479992  80.9564990   9.5309997
 137.1609992  81.5894990   9.9039997 137.0599992  80.4844990   8.8749997
 136.7011933  80.9793380   9.4933477 137.9299992  88.7044990  12.6529997
 137.9249992  89.5834990  12.2749997 137.0769992  88.6204990  13.0779997
 137.8139199  88.8135901  12.6586942 134.0519992  88.3754990   3.4349997
 133.7799992  88.6044990   2.5459997 134.0969992  89.2124990   3.8959997
 134.0208360  88.5201034   3.3756186 138.2979992  86.0474990   6.3659997
 137.9679992  85.6764990   5.5479997 138.8859992  85.3764990   6.7129997
 138.3323182  85.9060648   6.3009898 138.6649992  84.8154990   9.9989997
 139.2299992  84.9374990   9.2369997 138.9829992  85.4534990  10.6379997
 138.7853619  84.9184388   9.9810019 139.5449992  89.2154990  14.7169997
 139.2329992  89.9974990  15.1719997 138.8949992  89.0624990  14.0309997
 139.4144858  89.3017882  14.6865344 136.4649992  85.4134990  13.9449997
 136.5349992  86.0644990  14.6439997 135.5739992  85.5164990  13.6099997
 136.3541690  85.5164261  13.9953026 137.2409992  22.2434990  81.8649997
 136.9229992  21.3404990  81.8299997 138.0219992  22.2454990  81.3129997
 137.3031560  22.1201148  81.7854975 137.7839992  91.2864990  15.4799997
 137.7919992  91.1504990  14.5329997 136.8679992  91.1694990  15.7319997
 137.6612528  91.2520475  15.3843226 137.2879992  85.1164990   3.9549997
 136.9959992  85.8844990   3.4639997 136.6139992  84.4574990   3.7919997
 137.1568843  85.1324537   3.8657695 133.3809992  87.4794990  12.7699997
 132.8799992  87.4514990  11.9549997 133.3869992  86.5744990  13.0799997
 133.3131690  87.3532234  12.7002770 133.1319992  90.2604990   9.6539997
 134.0779992  90.1154990   9.6349997 133.0189992  91.0444990  10.1909997
 133.2463578  90.3466708   9.7240300 136.3759992  93.0614990   5.7999997
 136.5279992  92.7134990   6.6779997 135.5249992  92.7044990   5.5439997
 136.2818344  92.9655891   5.8856851 135.6299992  88.8034990  13.8129997
 135.8459992  88.4414990  14.6729997 134.7749992  88.4284990  13.6039997
 135.5439082  88.7033377  13.9022396 138.2489992  77.2734990   9.8089997
 137.3869992  77.1864990   9.4009997 138.2269992  78.1294990  10.2369997
 138.1280557  77.3773078   9.8110202 138.3399992  82.2384990  10.9039997
 137.6979992  82.1984990  11.6129997 138.3769992  83.1654990  10.6659997
 138.2571659  82.3582540  10.9688463 138.3369992  82.4594990   5.8159997
 137.4439992  82.1194990   5.7569997 138.7879992  82.0824990   5.0599997
 138.2757185  82.3620220   5.7057698 136.0899992  82.5594990  12.7709997
 136.0519992  82.9594990  13.6399997 135.5989992  81.7424990  12.8609997
 136.0184374  82.5038228  12.9020980 136.5339992  30.0034990  85.3149997
 137.2789992  30.0004990  84.7139997 136.6119992  29.1794990  85.7969997
 136.6464158  29.8917928  85.2979136 139.4559992  79.9334990  -0.4300003
 139.0249992  79.4884990   0.2989997 138.7379992  80.3044990  -0.9430003
 139.2999176  79.9227063  -0.3995087 132.6979992  79.6754990   6.6219997
 133.3289992  79.6464990   7.3409997 133.1479992  79.2504990   5.8909997
 132.8451082  79.6141269   6.6216307 133.9719992  80.4214990   2.0459997
 134.4469992  81.0124990   1.4609997 133.2549992  80.9514990   2.3929997
 133.9400406  80.5741011   2.0128495 135.7469992  81.5164990   5.7289997
 134.8579992  81.6154990   5.3889997 136.0429992  80.6744990   5.3829997
 135.6654001  81.4162473   5.6357318 139.3999992  81.5164990   3.3859997
 140.3319992  81.6454990   3.5639997 139.1849992  82.1854990   2.7359997
 139.4984472  81.6245817   3.3224873 138.0739992  82.7104990   0.9519997
 137.5319992  82.3314990   0.2609997 138.9079992  82.9054990   0.5239997
 138.1124390  82.6849091   0.7994374 136.2089992  87.2674990  16.0509997
 136.9409992  87.5224990  16.6129997 135.4289992  87.4724990  16.5669997
 136.2036526  87.3300438  16.1975168 137.2409992  78.8114990   5.2079997
 136.9229992  77.9084990   5.1719997 138.0219992  78.8134990   4.6549997
 137.3031079  78.6882240   5.1282908 136.5339992  86.5714990   8.6579997
 137.2789992  86.5684990   8.0559997 136.6119992  85.7474990   9.1389997
 136.6463365  86.4597395   8.6407412 133.5419992  85.0314990  13.9729997
 133.7649992  84.6134990  14.8039997 132.9399992  84.4194990  13.5499997
 133.4911513  84.8914617  14.0296722 133.5419992  28.4634990  90.6299997
 133.7649992  28.0454990  91.4619997 132.9399992  27.8514990  90.2079997
 133.4910802  28.3235216  90.6867561 138.9089992  90.0894990   6.0619997
 139.4359992  90.8624990   5.8619997 138.0289992  90.3134990   5.7599997
 138.8622121  90.2257344   5.9937460 134.6639992  84.9514990   0.6489997
 135.2799992  85.5784990   1.0289997 133.8019992  85.2674990   0.9209997
 134.6317678  85.0799423   0.7377192 139.0189992  92.7734990   5.1839997
 138.0699992  92.8794990   5.2349997 139.3709992  93.5944990   5.5279997
 138.9365647  92.8990029   5.2374882 135.1759992  79.7854990  13.5309997
 134.2829992  80.1234990  13.4629997 135.0769992  78.9294990  13.9489997
 135.0404752  79.7160986  13.5781644 134.8269992  91.5894990  11.9659997
 135.0439992  90.6574990  11.9349997 135.0739992  91.8644990  12.8489997
 134.8900948  91.4990976  12.0811268 136.0789992  86.8634990   2.1419997
 135.3929992  87.2164990   2.7089997 136.6019992  87.6264990   1.8949997
 136.0558402  87.0148912   2.1861783 138.4359992  79.0504990   1.9779997
 138.3529992  79.9384990   2.3249997 139.3259992  78.7854990   2.2099997
 138.5449331  79.1361177   2.0568067 136.6949992  89.4774990   1.0379997
 137.2869992  90.1774990   1.3149997 137.1539992  89.0444990   0.3189997
 136.8381652  89.5147686   0.9786515 135.0109992  82.1424990   0.1539997
 134.9659992  83.0814990   0.3329997 134.1229992  81.9064990  -0.1150003
 134.8848166  82.2391698   0.1421507 135.8189992  76.9234990   8.8269997
 135.5899992  76.9824990   7.8999997 135.3759992  76.1324990   9.1339997
 135.7277387  76.8246412   8.7415223 138.9089992  33.5214990  82.7199997
 139.4359992  34.2944990  82.5189997 138.0289992  33.7454990  82.4179997
 138.8621793  33.6576652  82.6516304 134.7489992  90.8644990   4.9879997
 133.9169992  91.3364990   5.0149997 135.2949992  91.3744990   4.3889997
 134.7088710  90.9980317   4.9107570 134.0379992  93.4764990  16.3179997
 134.5779992  93.2604990  17.0779997 133.5559992  92.6714990  16.1279997
 134.0468485  93.3380463  16.3964870 138.6349992  92.3964990  17.9379997
 139.4029992  91.9374990  18.2789997 138.6139992  92.1704990  17.0079997
 138.7372135  92.3031680  17.8589473 133.9449992  87.2874990  17.2719997
 134.0889992  86.3854990  16.9859997 133.1719992  87.5734990  16.7849997
 133.8602266  87.2026548  17.1670102 138.2859992  87.6304990  -0.5950003
 138.3499992  86.8364990  -0.0650003 138.9389992  87.5124990  -1.2850003
 138.3830483  87.5057496  -0.6156593 134.7769992  84.4874990  16.6919997
 135.1849992  83.6304990  16.5709997 134.5169992  84.5014990  17.6129997
 134.7977082  84.3720596  16.7999469 139.4349992  85.6034990   1.7109997
 138.9759992  85.1194990   2.3959997 139.6899992  84.9344990   1.0749997
 139.4065997  85.4468491   1.7188734 138.7239992  83.4964990  14.0669997
 138.1059992  84.1704990  14.3469997 139.0679992  83.8174990  13.2329997
 138.6858078  83.6322298  13.9926609 139.0639992  80.8514990  15.1489997
 139.2139992  80.1224990  14.5469997 139.0659992  81.6284990  14.5899997
 139.0847967  80.8567720  14.9910523 139.4759992  79.2204990  12.6419997
 140.0119992  79.6724990  11.9899997 138.6239992  79.1124990  12.2189997
 139.4341795  79.2677444  12.4956211 139.0189992  36.2054990  81.8409997
 138.0699992  36.3114990  81.8929997 139.3709992  37.0264990  82.1859997
 138.9366214  36.3309361  81.8947317 137.5419992  82.0494990  17.0599997
 136.7749992  81.5164990  16.8499997 138.2209992  81.7394990  16.4609997
 137.5288292  81.9346360  16.9502693 135.7229992  79.9694990  16.7649997
 135.9339992  79.2634990  16.1549997 135.6109992  79.5324990  17.6089997
 135.7367668  79.8136619  16.7955445 133.9719992  89.1734990   0.4569997
 134.8859992  89.2524990   0.7299997 133.9789992  88.4864990  -0.2090003
 134.0980624  89.0914074   0.4043045 132.6209992  94.5664990   5.5339997
 131.9739992  94.1044990   5.0019997 132.9759992  93.8944990   6.1169997
 132.5803741  94.4124785   5.5399157 133.4909992  92.6464990   7.3389997
 133.1569992  91.7664990   7.5109997 133.7129992  92.9924990   8.2039997
 133.4752565  92.5727410   7.4794263 133.5709992  85.7224990   9.7909997
 133.7549992  85.6404990   8.8549997 134.4199992  85.5984990  10.2139997
 133.7110132  85.6945066   9.7201460 133.1679992  80.9924990  15.9309997
 134.0879992  80.8704990  16.1679997 132.7189992  80.2424990  16.3209997
 133.2330500  80.8744576  16.0161016 134.3899992  79.3054990   8.8229997
 134.8349992  78.5134990   9.1249997 134.8559992  80.0214990   9.2529997
 134.5139718  79.2939546   8.9225247 132.6939992  82.3044990   9.8919997
 133.1859992  82.0834990   9.1009997 133.0559992  83.1444990  10.1729997
 132.8102923  82.3878480   9.8217389 133.0069992  78.5624990   3.9459997
 132.0819992  78.7704990   3.8169997 133.4609992  79.0464990   3.2559997
 132.9416298  78.6564311   3.8350433 135.1759992  23.2174990  90.1879997
 134.2829992  23.5554990  90.1209997 135.0769992  22.3614990  90.6059997
 135.0405241  23.1480941  90.2352982 132.9709992  77.3004990  12.2899997
 132.3059992  77.0544990  12.9329997 132.5279992  77.9224990  11.7129997
 132.8201168  77.3509225  12.2999830 135.1629992  90.4754990  16.4349997
 134.3419992  90.6504990  15.9739997 134.9109992  90.4024990  17.3549997
 135.0165594  90.4895728  16.4963593 138.1169992  91.4494990  12.6929997
 137.6919992  92.2594990  12.4109997 139.0209992  91.5354990  12.3909997
 138.1810706  91.5719557  12.6135836 135.5189992  94.7064990  12.7409997
 134.7979992  95.1464990  12.2899997 135.1529992  94.4554990  13.5889997
 135.3709632  94.7327235  12.7939649 137.9859992  94.3064990  11.7699997
 137.1209992  94.3784990  12.1739997 137.9309992  94.8534990  10.9869997
 137.8602289  94.3903242  11.7193749 134.9339992  93.3294990   9.6509997
 134.9149992  92.9034990  10.5079997 135.7379992  93.0104990   9.2419997
 135.0401393  93.2280297   9.7130155 137.0749992  92.0394990   8.3059997
 136.8559992  91.1224990   8.4759997 137.8989992  92.1794990   8.7719997
 137.1564702  91.9330523   8.3922510 135.4469992  76.8074990   6.1209997
 134.6699992  76.5724990   5.6139997 135.9779992  76.0104990   6.1299997
 135.4123735  76.6676462   6.0528090 134.2839992  76.6054990   1.9249997
 134.7229992  77.2164990   1.3329997 133.6499992  77.1434990   2.3989997
 134.2583859  76.7619076   1.9080287 134.1849992  92.5534990   2.8219997
 133.4999992  92.5154990   2.1549997 134.1879992  93.4654990   3.1099997
 134.0916806  92.6716669   2.7696961 134.8269992  35.0214990  88.6229997
 135.0439992  34.0894990  88.5919997 135.0739992  35.2964990  89.5069997
 134.8900543  34.9310877  88.7381412 136.1449992  78.5214990   0.3669997
 136.6359992  77.8914990  -0.1600003 136.7679992  78.8174990   1.0299997
 136.2965304  78.4752387   0.3844922 135.4049992  77.3214990  15.6389997
 135.0389992  76.5554990  16.0809997 136.3179992  77.3504990  15.9249997
 135.4783172  77.2205335  15.7381872 137.3779992  76.6714990  17.1739997
 138.2769992  76.3974990  16.9899997 136.9919992  75.9294990  17.6389997
 137.4487307  76.5337207  17.2117080 136.0029992  93.4734990  -0.1530003
 135.7349992  93.7594990   0.7209997 136.7739992  92.9274990  -0.0000003
 136.0705926  93.4387790  -0.0128812  12.5339992 104.8194990   6.0799997
  12.6229992 105.7634990   5.9469997  11.8949992 104.5444990   5.4219997
  12.4598378 104.9113846   5.9729258  11.4669992 104.0744990   9.4989997
  11.4279992 103.4284990  10.2039997  11.1439992 103.6074990   8.7269997
  11.4180469 103.9230005   9.4912803   3.8349992 103.6884990  11.0919997
   3.8759992 103.0634990  11.8149997   4.5379992 104.3124990  11.2739997
   3.9356223 103.6872318  11.2156164  15.1729992 107.0134990   7.7999997
  14.7319992 106.2934990   8.2509997  15.1599992 107.7344990   8.4299997
  15.1109215 107.0124303   7.9468088   4.7589992 108.1384990   9.6269997
   4.3889992 107.3364990   9.2569997   5.6999992 107.9704990   9.6729997
   4.8355984 108.0059649   9.5825586   1.3689992 101.7984990   5.0189997
   0.9209992 102.6444990   5.0009997   0.8079992 101.2194990   4.5039997
   1.2318546 101.8359004   4.9468874 136.0789992  30.2954990  78.7989997
 135.3929992  30.6484990  79.3659997 136.6019992  31.0584990  78.5529997
 136.0559033  30.4468757  78.8432644   2.0789992 103.9604990   7.1449997
   2.2929992 103.1904990   7.6719997   2.8169992 104.0504990   6.5419997
   2.2080073 103.8673546   7.1355786  12.2839992 112.1174990   8.0119997
  12.9039992 111.4414990   7.7389997  12.0759992 111.8994990   8.9209997
  12.3407679 111.9955032   8.0974518   9.8559992 106.5064990   9.9049997
  10.1599992 105.8204990   9.3099997  10.5779992 106.6254990  10.5229997
   9.9951240 106.4287325   9.9070941  18.5189992  98.1084990  10.7649997
  18.5679992  98.7184990  11.5009997  18.9449992  98.5694990  10.0419997
  18.5832851  98.2543266  10.7680532  12.9969992 100.9004990  10.2319997
  13.1389992  99.9544990  10.2519997  12.8909992 101.1074990   9.3039997
  13.0021051 100.7989706  10.1092249   6.1519992  99.0024990   7.5049997
   6.1949992  99.8624990   7.0859997   5.6939992  98.4494990   6.8709997
   6.0960163  99.0454174   7.3620604  13.8739992  99.1334990   5.9049997
  14.5199992  98.8044990   6.5299997  14.3839992  99.6504990   5.2829997
  14.0314289  99.1584333   5.9063681   2.7719992 101.3994990   8.2669997
   3.4259992 100.8494990   8.6989997   2.7959992 101.1254990   7.3499997
   2.8647199 101.2872178   8.2021650   7.9279992 102.9494990   7.4819997
   8.5439992 102.4224990   7.9909997   7.3419992 102.3094990   7.0779997
   7.9330652 102.7908919   7.4970277  18.9109992  99.5864990  13.0009997
  18.2219992 100.2444990  12.9059997  18.9259992  99.3884990  13.9379997
  18.8187756  99.6497614  13.1145795 138.4359992  22.4824990  78.6359997
 138.3529992  23.3704990  78.9819997 139.3259992  22.2174990  78.8669997
 138.5449751  22.5682482  78.7146066   4.9619992  97.9204990  11.5789997
   4.7429992  98.4504990  10.8119997   4.2939992  98.1464990  12.2259997
   4.8416975  98.0235979  11.5615123  12.3309992 107.4204990   5.1229997
  12.0349992 107.0974990   4.2709997  12.0069992 108.3204990   5.1639997
  12.2467458 107.4979678   5.0120598   7.5309992 105.5954990  11.8659997
   6.7909992 106.1944990  11.9699997   8.2449992 106.1494990  11.5499997
   7.5263146 105.7522611  11.8375150  15.6379992  98.4244990   7.8859997
  15.4229992  97.6584990   8.4189997  16.2939992  98.8964990   8.3989997
  15.6972673  98.3835739   8.0281972   4.5559992  99.8124990   9.5309997
   5.1689992 100.4454990   9.9039997   5.0679992  99.3404990   8.8749997
   4.7091933  99.8353380   9.4933477   5.9379992 107.5604990  12.6529997
   5.9329992 108.4394990  12.2749997   5.0849992 107.4764990  13.0779997
   5.8219199 107.6695901  12.6586942   2.0599992 107.2314990   3.4349997
   1.7879992 107.4604990   2.5459997   2.1049992 108.0684990   3.8959997
   2.0288360 107.3761034   3.3756186  15.6849992 108.8524990  10.1479997
  14.7429992 108.9114990  10.3099997  15.9609992 109.7584990  10.0109997
  15.5935865 108.9830299  10.1516174  15.9849992  97.1394990  11.5649997
  15.2489992  97.7494990  11.5279997  16.6689992  97.5544990  11.0389997
  15.9765367  97.2792562  11.4888156   8.9879992  95.2254990   9.0309997
   8.8709992  94.2774990   8.9769997   8.1329992  95.5584990   9.3039997
   8.8563691  95.1405842   9.0605072 135.8189992  20.3554990  85.4849997
 135.5899992  20.4144990  84.5579997 135.3759992  19.5644990  85.7919997
 135.7277387  20.2566412  85.3995223  13.9369992 110.6334990   6.7729997
  14.3619992 109.9264990   6.2879997  14.2539992 111.4354990   6.3559997
  14.0380266 110.6450201   6.6502461  15.0959992 108.5344990   5.2819997
  14.8389992 107.8444990   4.6699997  15.1669992 108.0914990   6.1269997
  15.0704322 108.3801568   5.3125372  16.7819992 107.1014990  13.7589997
  16.9219992 106.5094990  13.0199997  16.9499992 107.9744990  13.4029997
  16.8238734 107.1384041  13.6096937  11.2549992 104.0634990   3.5319997
  10.5429992 104.5984990   3.1799997  11.9459992 104.1184990   2.8719997
  11.2509704 104.1441663   3.3945797  11.3089992 102.5204990   0.5699997
  12.0099992 102.5434990   1.2219997  11.6109992 101.8924990  -0.0860003
  11.4458202 102.4387223   0.5705591  18.6239992 103.4414990  11.8249997
  17.9719992 104.1354990  11.9139997  19.0889992 103.6514990  11.0149997
  18.5975357 103.5649544  11.7277056  14.6609992 104.2724990   4.4829997
  13.9289992 104.5014990   5.0559997  15.1079992 103.5594990   4.9379997
  14.6212753 104.2073984   4.6229698  14.5579992 102.4474990  13.5509997
  14.6379992 103.2104990  14.1229997  13.9569992 102.7264990  12.8609997
  14.4876547 102.5897468  13.5360029   6.3059992 104.9034990   6.3659997
   5.9759992 104.5324990   5.5479997   6.8939992 104.2324990   6.7129997
   6.3403182 104.7620648   6.3009898   7.6729992 108.3314990   9.0469997
   7.5779992 107.7524990   8.2909997   8.4019992 107.9604990   9.5429997
   7.7586011 108.2020572   9.0106011 134.7489992  34.2964990  81.6459997
 133.9169992  34.7684990  81.6729997 135.2949992  34.8064990  81.0469997
 134.7088710  34.4300317  81.5687570   6.6729992 103.6714990   9.9989997
   7.2379992 103.7934990   9.2369997   6.9909992 104.3094990  10.6379997
   6.7933619 103.7744388   9.9810019  12.9819992 109.1754990  10.7329997
  12.7409992 109.8374990  11.3809997  12.7839992 108.3404990  11.1579997
  12.9222662 109.1532704  10.8791008   7.5529992 108.0714990  14.7169997
   7.2409992 108.8534990  15.1719997   6.9029992 107.9184990  14.0309997
   7.4224858 108.1577882  14.6865344  13.5319992 103.4354990   2.1689997
  14.1109992 103.5854990   2.9149997  13.9459992 103.9054990   1.4449997
  13.6673358 103.5195966   2.1733935   4.4729992 104.2694990  13.9449997
   4.5429992 104.9204990  14.6439997   3.5819992 104.3724990  13.6099997
   4.3621690 104.3724261  13.9953026  11.2579992 110.1714990   5.6039997
  11.7319992 110.4674990   6.3809997  10.6949992 110.9104990   5.3709997
  11.2467890 110.3118047   5.6788084   5.7919992 110.1424990  15.4799997
   5.7999992 110.0064990  14.5329997   4.8759992 110.0254990  15.7319997
   5.6692528 110.1080475  15.3843226  17.2299992  95.1854990   1.9809997
  16.3299992  95.3234990   2.2769997  17.4819992  96.0164990   1.5799997
  17.1407727  95.3168705   1.9672935   5.2959992 103.9724990   3.9549997
   5.0039992 104.7404990   3.4639997   4.6219992 103.3134990   3.7919997
   5.1648843 103.9884537   3.8657695  18.4199992 109.5514990   0.3579997
  18.4929992 110.4904990   0.5279997  19.3249992 109.2464990   0.3019997
  18.5524170 109.6388294   0.3737045 134.0379992  36.9084990  92.9759997
 134.5779992  36.6924990  93.7349997 133.5559992  36.1034990  92.7859997
 134.0469101  36.7700216  93.0544364   1.3889992 106.3354990  12.7699997
   0.8879992 106.3074990  11.9549997   1.3949992 105.4304990  13.0799997
   1.3211690 106.2092234  12.7002770   1.1399992 109.1164990   9.6539997
   2.0859992 108.9714990   9.6349997   1.0269992 109.9004990  10.1909997
   1.2543578 109.2026708   9.7240300  19.3369992 109.7824990  15.3369997
  19.2879992 108.8264990  15.2989997  18.5109992 110.0494990  15.7379997
  19.2185096 109.6878416  15.3860698  10.3159992 109.3564990  14.2129997
  10.4029992 110.1824990  14.6879997   9.4519992 109.0264990  14.4619997
  10.2111944 109.4249871  14.3116558  10.7299992 113.1284990   4.0189997
  10.6549992 113.0074990   3.0719997  10.7629992 114.0774990   4.1369997
  10.7242083 113.2402639   3.9054973   4.3839992 111.9174990   5.7999997
   4.5359992 111.5694990   6.6779997   3.5329992 111.5604990   5.5439997
   4.2898344 111.8215891   5.8856851  13.8319992 112.2824990   1.0209997
  14.2069992 111.5384990   0.5499997  13.8359992 112.0124990   1.9389997
  13.8838969 112.1440920   1.0806475  13.5009992 112.2084990   3.7699997
  12.5659992 112.3084990   3.9489997  13.7809992 111.4984990   4.3489997
  13.4109471 112.1262944   3.8726678  16.4889992 101.2754990  15.8169997
  16.0819992 101.7554990  15.0959997  16.5299992 100.3694990  15.5089997
  16.4388403 101.2187989  15.6767253   3.6379992 107.6594990  13.8129997
   3.8539992 107.2974990  14.6729997   2.7829992 107.2844990  13.6039997
   3.5519082 107.5593377  13.9022396 138.6349992  35.8284990  94.5959997
 139.4029992  35.3694990  94.9369997 138.6139992  35.6024990  93.6659997
 138.7372135  35.7351680  94.5169473   6.2569992  96.1294990   9.8089997
   5.3949992  96.0424990   9.4009997   6.2349992  96.9854990  10.2369997
   6.1360557  96.2333078   9.8110202  10.9199992  95.8514990  13.1839997
  11.3399992  95.4364990  13.9369997   9.9869992  95.6724990  13.3009997
  10.8513736  95.7704921  13.3028950  14.2459992  99.6064990  14.0369997
  13.7319992  99.4814990  14.8349997  14.0909992 100.5194990  13.7929997
  14.1547802  99.7127433  14.1131504  15.0089992 104.4674990  -0.2020003
  15.0509992 104.2454990  -1.1320003  15.8579992 104.8664990  -0.0120003
  15.1295253 104.4910510  -0.3036196  10.5819992  98.3434990   0.4689997
  10.3279992  98.3624990   1.3909997  10.3249992  97.4724990   0.1669997
  10.5124508  98.2283292   0.5544786   6.3479992 101.0944990  10.9039997
   5.7059992 101.0544990  11.6129997   6.3849992 102.0214990  10.6659997
   6.2651659 101.2142540  10.9688463   6.3449992 101.3154990   5.8159997
   5.4519992 100.9754990   5.7569997   6.7959992 100.9384990   5.0599997
   6.2837185 101.2180220   5.7057698  11.8809992 101.7314990   4.6329997
  11.4719992 102.5464990   4.3409997  12.6009992 101.5914990   4.0189997
  11.9224439 101.8240383   4.5100098  10.9829992 101.9074990  16.1209997
  10.4199992 101.2024990  16.4419997  11.8089992 101.7864990  16.5889997
  11.0176674 101.7947176  16.2281734  12.8849992 101.1774990   7.4469997
  12.6899992 101.7834990   6.7319997  13.0669992 100.3444990   7.0129997
  12.8829195 101.1477936   7.2904079 133.9449992  30.7194990  93.9299997
 134.0889992  29.8174990  93.6439997 133.1719992  31.0054990  93.4419997
 133.8602854  30.6346876  93.8249363   4.0979992 101.4154990  12.7709997
   4.0599992 101.8154990  13.6399997   3.6069992 100.5984990  12.8609997
   4.0264374 101.3598228  12.9020980   7.4639992  98.7894990  -0.4300003
   7.0329992  98.3444990   0.2989997   6.7459992  99.1604990  -0.9430003
   7.3079176  98.7787063  -0.3995087   0.7059992  98.5314990   6.6219997
   1.3369992  98.5024990   7.3409997   1.1559992  98.1064990   5.8909997
   0.8531082  98.4701269   6.6216307   1.9799992  99.2774990   2.0459997
   2.4549992  99.8684990   1.4609997   1.2629992  99.8074990   2.3929997
   1.9480406  99.4301011   2.0128495  12.1489992 102.8154990  12.1179997
  12.4729992 102.1844990  11.4749997  11.7089992 102.2814990  12.7789997
  12.1338707 102.6568261  12.1193195   8.9269992  98.7434990   6.9019997
   8.0159992  98.8004990   7.1909997   9.4319992  98.6834990   7.7129997
   8.8706873  98.7431838   7.0511190   3.7549992 100.3724990   5.7289997
   2.8659992 100.4714990   5.3889997   4.0509992  99.5304990   5.3829997
   3.6734001 100.2722473   5.6357318   7.4079992 100.3724990   3.3859997
   8.3399992 100.5014990   3.5639997   7.1929992 101.0414990   2.7359997
   7.5064472 100.4805817   3.3224873  13.3319992  97.9784990  10.1659997
  12.6549992  98.1094990  10.8299997  12.8459992  97.8234990   9.3559997
  13.1737265  97.9754665  10.1473380   6.0819992 101.5664990   0.9519997
   5.5399992 101.1874990   0.2609997   6.9159992 101.7614990   0.5239997
   6.1204390 101.5409091   0.7994374 138.2859992  31.0624990  76.0619997
 138.3499992  30.2684990  76.5929997 138.9389992  30.9444990  75.3729997
 138.3831168  30.9377748  76.0415119  16.6189992 113.6494990  16.4429997
  16.8189992 114.0734990  15.6089997  17.2749992 113.9934990  17.0499997
  16.7349937 113.7539993  16.4108645   4.2169992 106.1234990  16.0509997
   4.9489992 106.3784990  16.6129997   3.4369992 106.3284990  16.5669997
   4.2116526 106.1860438  16.1975168  10.2469992 101.5304990   8.7889997
  10.8109992 100.9844990   8.2419997  10.0989992 101.0094990   9.5779997
  10.3043037 101.3851798   8.8207212   5.2489992  97.6674990   5.2079997
   4.9309992  96.7644990   5.1719997   6.0299992  97.6694990   4.6549997
   5.3111079  97.5442240   5.1282908   8.8729992  99.9194990  11.2029997
   8.0379992 100.3734990  11.3139997   9.3969992 100.1954990  11.9549997
   8.8296072 100.0188960  11.3198118   9.4169992 106.1324990   2.8879997
   8.6719992 105.6244990   2.5659997   9.2829992 106.1814990   3.8339997
   9.2969334 106.0696144   2.9718892  16.5669992 105.2654990  11.6749997
  17.2089992 105.7214990  11.1309997  15.7369992 105.3784990  11.2119997
  16.5426536 105.3431813  11.5379579  13.3149992  98.9464990   1.0869997
  12.3759992  99.0574990   0.9359997  13.6119992  99.8024990   1.3939997
  13.2266136  99.0774977   1.1078568  10.9369992 106.3164990  14.1249997
  10.5909992 105.9344990  14.9319997  10.7369992 107.2494990  14.1959997
  10.8625987 106.3904013  14.2450443  14.0329992 100.8134990   2.7479997
  14.9249992 100.6754990   3.0669997  14.0899992 101.6044990   2.2109997
  14.1627380 100.9014777   2.7190981 134.7769992  27.9194990  93.3499997
 135.1849992  27.0624990  93.2289997 134.5169992  27.9334990  94.2709997
 134.7977082  27.8040596  93.4579469   4.5419992 105.4274990   8.6579997
   5.2869992 105.4244990   8.0559997   4.6199992 104.6034990   9.1389997
   4.6543365 105.3157395   8.6407412  11.5429992 107.5904990   1.9129997
  11.2479992 108.4174990   2.2949997  10.8399992 106.9714990   2.1099997
  11.4076379 107.6199182   1.9918636   1.5499992 103.8874990  13.9729997
   1.7729992 103.4694990  14.8039997   0.9479992 103.2754990  13.5499997
   1.4991513 103.7474617  14.0296722   8.5669992 103.4044990  16.1859997
   8.2709992 103.2394990  15.2899997   9.4979992 103.1844990  16.1749997
   8.6524401 103.3521891  16.0620189  13.1869992 108.7784990  14.0749997
  12.2859992 108.9614990  13.8079997  13.2209992 109.0374990  14.9959997
  13.0683861 108.8385245  14.1629517  18.9179992 101.0224990   2.4429997
  18.3639992 100.6264990   1.7699997  19.0189992 101.9334990   2.1649997
  18.8558589 101.0913904   2.3133839  18.8809992 106.8234990  15.2799997
  18.0299992 107.0614990  14.9119997  19.4719992 106.8064990  14.5259997
  18.8443831 106.8537623  15.1278448  17.2129992 109.8084990   2.9079997
  16.8409992 108.9834990   3.2169997  17.4909992 109.6254990   2.0099997
  17.1995807 109.6707031   2.8290063  14.3739992 104.6164990   9.9289997
  13.4459992 104.3854990   9.9019997  14.8249992 103.8394990   9.5989997
  14.3078165 104.4797785   9.8806772   6.9169992 108.9454990   6.0619997
   7.4439992 109.7184990   5.8619997   6.0369992 109.1694990   5.7599997
   6.8702121 109.0817344   5.9937460 139.4349992  29.0354990  78.3679997
 138.9759992  28.5514990  79.0539997 139.6899992  28.3664990  77.7319997
 139.4066178  28.8788511  78.3759785   2.6719992 103.8074990   0.6489997
   3.2879992 104.4344990   1.0289997   1.8099992 104.1234990   0.9209997
   2.6397678 103.9359423   0.7377192   8.3439992 106.6084990   5.6379997
   8.1029992 107.5334990   5.6799997   7.6039992 106.1494990   6.0349997
   8.2109463 106.6730969   5.6974279   8.8589992 110.7574990  11.9529997
   9.2219992 111.6114990  11.7199997   9.3909992 110.4654990  12.6939997
   8.9805141 110.8348907  12.0212079   7.0269992 111.6294990   5.1839997
   6.0779992 111.7354990   5.2349997   7.3789992 112.4504990   5.5279997
   6.9445647 111.7550029   5.2374882  12.4029992 106.8564990  11.6539997
  11.9769992 106.6284990  12.4799997  12.9839992 106.1174990  11.4719997
  12.4232088 106.7254393  11.7424454  14.6059992 107.7854990   0.7279997
  14.9589992 107.4054990   1.5319997  13.6569992 107.6914990   0.8149997
  14.5260956 107.7207867   0.8498005  15.0619992 111.4084990  14.1229997
  14.4599992 110.8524990  13.6279997  15.3429992 112.0754990  13.4969997
  15.0175757 111.4225755  13.9705657  19.1089992 112.2644990   0.9289997
  19.8529992 112.8504990   0.7889997  18.4149992 112.8334990   1.2619997
  19.1169809 112.4215830   0.9548572   3.1839992  98.6414990  13.5309997
   2.2909992  98.9794990  13.4629997   3.0849992  97.7854990  13.9489997
   3.0484752  98.5720986  13.5781644  15.4719992 106.4574990   2.9549997
  15.1949992 105.7294990   3.5109997  16.3989992 106.5764990   3.1599997
  15.5594419 106.3739436   3.0588264 138.7239992  26.9284990  90.7239997
 138.1059992  27.6024990  91.0049997 139.0679992  27.2494990  89.8909997
 138.6858181  27.0643233  90.6498266   2.8349992 110.4454990  11.9659997
   3.0519992 109.5134990  11.9349997   3.0819992 110.7204990  12.8489997
   2.8980948 110.3550976  12.0811268   7.6339992 108.4674990   1.6309997
   7.7809992 107.9474990   2.4209997   7.6309992 109.3744990   1.9379997
   7.6537102 108.5188964   1.7805907   4.0869992 105.7194990   2.1419997
   3.4009992 106.0724990   2.7089997   4.6099992 106.4824990   1.8949997
   4.0638402 105.8708912   2.1861784  11.9179992  98.3824990  12.4209997
  12.6169992  98.4564990  13.0709997  11.5379992  97.5174990  12.5749997
  11.9622662  98.2757050  12.5307412  12.7029992  98.0344990   3.5179997
  12.9229992  98.5054990   2.7139997  13.2609992  98.4284990   4.1879997
  12.8086044  98.1522946   3.4985207  10.3719992 110.1644990   2.3809997
   9.5549992 110.6614990   2.4329997  10.9009992 110.6404990   1.7399997
  10.3318125 110.2967000   2.3015289   9.9029992  99.7624990   4.3529997
  10.7149992 100.2664990   4.3989997   9.6579992  99.6174990   5.2669997
   9.9811091  99.8119366   4.4828552  10.4389992 100.7484990  13.5369997
  10.5579992 101.3224990  14.2939997  11.0939992 100.0604990  13.6519997
  10.5438684 100.7340205  13.6561656  10.7869992  96.8434990   5.2909997
  10.4399992  97.4604990   5.9349997  11.4449992  97.3444990   4.8089997
  10.8284430  96.9956860   5.3140046   7.7099992 111.2084990   2.3619997
   7.8709992 112.0084990   1.8619997   7.5129992 111.5154990   3.2469997
   7.7053906 111.3593690   2.4132316 139.0639992  24.2834990  91.8069997
 139.2139992  23.5544990  91.2039997 139.0659992  25.0604990  91.2479997
 139.0847664  24.2888971  91.6490525   6.4439992  97.9064990   1.9779997
   6.3609992  98.7944990   2.3249997   7.3339992  97.6414990   2.2099997
   6.5529331  97.9921177   2.0568067  16.6429992  98.6554990  14.3719997
  15.7269992  98.9174990  14.2849997  16.9789992  98.6524990  13.4759997
  16.5628499  98.6910174  14.2388748  15.2449992 102.4054990   8.4679997
  14.4479992 101.9904990   8.1399997  15.6899992 101.7154990   8.9589997
  15.1960367 102.2553372   8.4894897   4.7029992 108.3334990   1.0379997
   5.2949992 109.0334990   1.3149997   5.1619992 107.9004990   0.3189997
   4.8461652 108.3707686   0.9786515   3.0189992 100.9984990   0.1539997
   2.9739992 101.9374990   0.3329997   2.1309992 100.7624990  -0.1150003
   2.8928166 101.0951698   0.1421507  16.3319992 111.6614990  10.0899997
  16.1759992 112.3404990   9.4329997  17.2639992 111.7334990  10.2929997
  16.4367328 111.7641586  10.0275529   3.8269992  95.7794990   8.8269997
   3.5979992  95.8384990   7.8999997   3.3839992  94.9884990   9.1339997
   3.7357387  95.6806412   8.7415223   2.7569992 109.7204990   4.9879997
   1.9249992 110.1924990   5.0149997   3.3029992 110.2304990   4.3889997
   2.7168710 109.8540317   4.9107570   2.0459992 112.3324990  16.3179997
   2.5859992 112.1164990  17.0779997   1.5639992 111.5274990  16.1279997
   2.0548485 112.1940463  16.3964870   6.6429992 111.2524990  17.9379997
   7.4109992 110.7934990  18.2789997   6.6219992 111.0264990  17.0079997
   6.7452135 111.1591680  17.8589473 139.4759992  22.6524990  89.2989997
 140.0119992  23.1044990  88.6469997 138.6239992  22.5444990  88.8769997
 139.4341648  22.6997883  89.1526395  10.7349992 110.7604990  -0.6870003
  10.0909992 110.1294990  -0.3650003  11.4969992 110.2294990  -0.9180003
  10.7498708 110.6023171  -0.6741539  13.2199992 109.6324990  16.6669997
  12.8689992 108.7754990  16.9099997  13.9459992 109.7744990  17.2739997
  13.2701590 109.5345189  16.7822889  15.3389992 110.5774990  -0.4530003
  15.6219992 109.7824990  -0.0000003  16.0789992 110.8104990  -1.0140003
  15.4777295 110.5002349  -0.4668531   1.9529992 106.1434990  17.2719997
   2.0969992 105.2414990  16.9859997   1.1799992 106.4294990  16.7849997
   1.8682266 106.0586548  17.1670102   6.2939992 106.4864990  -0.5950003
   6.3579992 105.6924990  -0.0650003   6.9469992 106.3684990  -1.2850003
   6.3910483 106.3617496  -0.6156593   8.6079992 106.1124990  16.7049997
   8.2799992 106.3834990  15.8479997   8.7599992 105.1714990  16.6169997
   8.5836412 106.0224058  16.5757804  14.3429992 106.0284990  14.0879997
  15.0879992 106.6174990  13.9689997  13.5849992 106.6104990  14.1509997
  14.3425289 106.1877067  14.0802292   2.7849992 103.3434990  16.6919997
   3.1929992 102.4864990  16.5709997   2.5249992 103.3574990  17.6129997
   2.8057082 103.2280596  16.7999469   7.4429992 104.4594990   1.7109997
   6.9839992 103.9754990   2.3959997   7.6979992 103.7904990   1.0749997
   7.4145997 104.3028491   1.7188734   6.7319992 102.3524990  14.0669997
   6.1139992 103.0264990  14.3469997   7.0759992 102.6734990  13.2329997
   6.6938078 102.4882298  13.9926609 137.5419992  25.4814990  93.7179997
 136.7749992  24.9484990  93.5079997 138.2209992  25.1714990  93.1189997
 137.5288292  25.3666360  93.6082693   8.5139992 102.7024990  -0.0270003
   8.3339992 102.5474990  -0.9540003   9.4639992 102.8104990   0.0179997
   8.6177804 102.6958821  -0.1478034  11.7519992 104.8234990  17.3439997
  12.7049992 104.9074990  17.3169997  11.5919992 104.1114990  17.9629997
  11.8607320 104.7387292  17.4239933  17.9039992 105.0564990  -0.5810003
  17.6309992 104.6324990  -1.3940003  17.9439992 105.9884990  -0.7980003
  17.8720201 105.1243523  -0.7216452   7.0719992  99.7074990  15.1489997
   7.2219992  98.9784990  14.5469997   7.0739992 100.4844990  14.5899997
   7.0927967  99.7127720  14.9910523   7.4839992  98.0764990  12.6419997
   8.0199992  98.5284990  11.9899997   6.6319992  97.9684990  12.2189997
   7.4421795  98.1237444  12.4956211   9.0659992 103.5164990  12.8809997
   9.8169992 103.3604990  12.3079997   8.7269992 104.3684990  12.6059997
   9.1229587 103.6103149  12.7654060  13.4819992 101.3314990  17.9099997
  13.6739992 100.4004990  17.7979997  14.3389992 101.7564990  17.8989997
  13.6242176 101.2615090  17.8931757  14.7979992 104.1204990  15.9869997
  14.5169992 104.8294990  15.4089997  15.7409992 104.0474990  15.8359997
  14.8869272 104.2076704  15.8874976   5.5499992 100.9054990  17.0599997
   4.7829992 100.3724990  16.8499997   6.2289992 100.5954990  16.4609997
   5.5368292 100.7906360  16.9502693   8.2899992  95.5334990  13.0729997
   8.1919992  96.4794990  12.9679997   7.5469992  95.1604990  12.5969997
   8.1762123  95.6126811  12.9943204 135.7229992  23.4014990  93.4229997
 135.9339992  22.6954990  92.8119997 135.6109992  22.9644990  94.2669997
 135.7367674  23.2456376  93.4534199   9.5539992  99.8544990  16.6369997
   9.3179992  99.6354990  17.5379997   8.7709992  99.6474990  16.1269997
   9.4158382  99.7965340  16.6913991  12.2699992  98.9824990  15.7119997
  11.3219992  99.0144990  15.8439997  12.5819992  98.3564990  16.3659997
  12.1825293  98.9022934  15.8184130  13.9039992  97.6164990  17.7169997
  13.8069992  96.6644990  17.7119997  13.5819992  97.8844990  18.5779997
  13.8472468  97.5225896  17.8326192   3.7309992  98.8254990  16.7649997
   3.9419992  98.1194990  16.1549997   3.6189992  98.3884990  17.6089997
   3.7447668  98.6696619  16.7955445   8.5119992  94.8274990  15.7439997
   9.2229992  94.1874990  15.7299997   8.4109992  95.0934990  14.8309997
   8.5956858  94.7758591  15.6185501   8.8649992  96.5094990  17.7979997
   8.7339992  96.0344990  16.9779997   8.2659992  97.2544990  17.7429997
   8.7660829  96.5450949  17.6781823   8.4119992 113.3924990   0.9739997
   9.3449992 113.5504990   1.1179997   8.1469992 114.0684990   0.3489997
   8.5039846 113.5054567   0.9092930   1.9799992 108.0294990   0.4569997
   2.8939992 108.1084990   0.7299997   1.9869992 107.3424990  -0.2090003
   2.1060624 107.9474074   0.4043045   0.6289992 113.4224990   5.5339997
  -0.0180008 112.9604990   5.0019997   0.9839992 112.7504990   6.1169997
   0.5883741 113.2684785   5.5399157   1.4989992 111.5024990   7.3389997
   1.1649992 110.6224990   7.5109997   1.7209992 111.8484990   8.2039997
   1.4832565 111.4287410   7.4794263 132.6209992  37.9984990  82.1919997
 131.9739992  37.5364990  81.6589997 132.9759992  37.3264990  82.7749997
 132.5803861  37.8444707  82.1977939  19.0479992 112.3124990  10.3199997
  19.0259992 112.4974990  11.2579997  19.7379992 112.8804990   9.9789997
  19.1383383 112.4147104  10.4024580  18.6109992 111.8794990  13.2409997
  18.1239992 111.1434990  12.8699997  19.1599992 111.4854990  13.9189997
  18.6186101 111.7256267  13.2819034  17.0619992 107.6694990  17.8789997
  16.1959992 107.5644990  18.2739997  17.4379992 108.4274990  18.3259997
  16.9944940 107.7576141  17.9933958  18.3629992 105.9254990   3.3939997
  19.2129992 106.3464990   3.5209997  18.3679992 105.1854990   4.0009997
  18.4801143 105.8831106   3.4934732  18.7569992 103.9794990   5.2169997
  18.0309992 103.4994990   5.6149997  19.3379992 104.1844990   5.9489997
  18.7362504 103.9415592   5.3704199  18.5159992 106.7644990  10.1649997
  19.3499992 106.3864990   9.8839997  18.6279992 107.7074990  10.0459997
  18.6451917 106.8402954  10.1104844  17.0019992 109.6424990  12.4719997
  16.3549992 109.9674990  13.0969997  16.4849992 109.2014990  11.7979997
  16.8434112 109.6274133  12.4665272  19.0249992 103.8804990   1.6079997
  18.5039992 104.2364990   0.8899997  18.9919992 104.5554990   2.2869997
  18.9490955 104.0205023   1.6012634  17.3739992 101.1194990   0.1589997
  17.4709992 101.7864990  -0.5210003  17.2339992 100.3044990  -0.3220003
  17.3683407 101.1005670   0.0008312  16.5439992 102.5004990   5.7799997
  16.3939992 101.5554990   5.7599997  16.1899992 102.7814990   6.6239997
  16.4756351 102.4091656   5.8913202 133.4909992  36.0784990  83.9969997
 133.1569992  35.1984990  84.1689997 133.7129992  36.4244990  84.8609997
 133.4752677  36.0047366  84.1374252   1.5789992 104.5784990   9.7909997
   1.7629992 104.4964990   8.8549997   2.4279992 104.4544990  10.2139997
   1.7190132 104.5505066   9.7201460  17.3999992 104.4704990  15.4189997
  17.9829992 103.7354990  15.6109997  17.9639992 105.2424990  15.4659997
  17.5559781 104.4743156  15.4516146  18.8969992 102.3734990  16.1039997
  18.0329992 101.9944990  15.9379997  19.5009992 101.6344990  16.0289997
  18.8605394 102.2218378  16.0711778  16.2539992 100.0824990   4.2429997
  16.5339992  99.1754990   4.3669997  17.0129992 100.5164990   3.8539997
  16.3949258 100.0170935   4.2073691  16.8659992 100.6644990   9.6789997
  17.7989992 100.8764990   9.6439997  16.6309992 100.7654990  10.6009997
  16.9619517 100.7071844   9.7989113  16.8949992 101.4014990  12.4549997
  16.0519992 101.6694990  12.8199997  17.3379992 102.2234990  12.2439997
  16.8394035 101.5493351  12.4764770   1.1759992  99.8484990  15.9309997
   2.0959992  99.7264990  16.1679997   0.7269992  99.0984990  16.3209997
   1.2410500  99.7304576  16.0161016  19.1779992  95.3814990  17.8079997
  19.5279992  94.7274990  17.2019997  19.3249992  96.2184990  17.3679997
  19.2457192  95.4052545  17.6656712  16.8679992  97.3454990   4.2909997
  17.0499992  96.8964990   5.1159997  16.2679992  96.7614990   3.8269997
  16.8118187  97.2050563   4.3412721   2.3979992  98.1614990   8.8229997
   2.8429992  97.3694990   9.1249997   2.8639992  98.8774990   9.2529997
   2.5219718  98.1499546   8.9225247 133.5709992  29.1544990  86.4479997
 133.7549992  29.0724990  85.5129997 134.4199992  29.0304990  86.8719997
 133.7110259  29.1264915  86.3771771   0.7019992 101.1604990   9.8919997
   1.1939992 100.9394990   9.1009997   1.0639992 102.0004990  10.1729997
   0.8182923 101.2438480   9.8217389  18.6979992  97.4904990  16.1569997
  17.7809992  97.7614990  16.1209997  18.8209992  96.9554990  15.3729997
  18.5890828  97.4552711  16.0460767  18.7339992  97.4134990   0.8189997
  19.1469992  96.6924990   0.3439997  19.4159992  98.0824990   0.8769997
  18.8826060  97.4053741   0.7619233   1.0149992  97.4184990   3.9459997
   0.0899992  97.6264990   3.8169997   1.4689992  97.9024990   3.2559997
   0.9496298  97.5124311   3.8350433  15.7859992 112.4024990   5.8919997
  16.4379992 112.0544990   5.2839997  16.2969992 112.8904990   6.5379997
  15.9442872 112.4208248   5.8960964   0.9789992  96.1564990  12.2899997
   0.3139992  95.9104990  12.9329997   0.5359992  96.7784990  11.7129997
   0.8281168  96.2069225  12.2999830   3.1709992 109.3314990  16.4349997
   2.3499992 109.5064990  15.9739997   2.9189992 109.2584990  17.3549997
   3.0245594 109.3455728  16.4963593   6.1249992 110.3054990  12.6929997
   5.6999992 111.1154990  12.4109997   7.0289992 110.3914990  12.3909997
   6.1890706 110.4279557  12.6135836  10.4359992 111.7044990  15.6529997
  10.6209992 111.3714990  16.5309997  11.2829992 112.0144990  15.3309997
  10.5757291 111.7008214  15.7296140  12.7809992 112.9904990  14.8969997
  13.4579992 112.3574990  14.6569997  13.1029992 113.3914990  15.7039997
  12.9171618 112.9581147  14.9732802 133.1679992  24.4244990  92.5889997
 134.0879992  24.3024990  92.8249997 132.7189992  23.6744990  92.9779997
 133.2331561  24.3063720  92.6739015  17.6989992  95.5804990  13.9759997
  16.8859992  95.9054990  13.5889997  17.9319992  94.8194990  13.4429997
  17.6191347  95.5221891  13.8509824   3.5269992 113.5624990  12.7409997
   2.8059992 114.0024990  12.2899997   3.1609992 113.3114990  13.5889997
   3.3789632 113.5887235  12.7939649   5.9939992 113.1624990  11.7699997
   5.1289992 113.2344990  12.1739997   5.9389992 113.7094990  10.9869997
   5.8682289 113.2463242  11.7193749  10.7049992 113.0504990  10.9459997
  10.2479992 113.5794990  10.2919997  10.8669992 113.6534990  11.6709997
  10.6643919 113.2043990  10.9545740  13.0319992 111.9284990  11.8909997
  12.1279992 112.0934990  11.6249997  13.4609992 112.7814990  11.8249997
  12.9662017 112.0664184  11.8456495  15.6359992 113.4984990  12.1859997
  15.4549992 114.4144990  11.9749997  15.8129992 113.0874990  11.3389997
  15.6351377 113.5683365  12.0427178   2.9419992 112.1854990   9.6509997
   2.9229992 111.7594990  10.5079997   3.7459992 111.8664990   9.2419997
   3.0481393 112.0840297   9.7130155   5.0829992 110.8954990   8.3059997
   4.8639992 109.9784990   8.4759997   5.9069992 111.0354990   8.7719997
   5.1644702 110.7890523   8.3922510   7.6199992 111.3654990   9.1549997
   7.8329992 110.4774990   8.8679997   7.6849992 111.3304990  10.1089997
   7.6579149 111.2393338   9.2447351  11.1289992  97.0294990   8.2989997
  10.4539992  96.3994990   8.5549997  11.6929992  96.5454990   7.6959997
  11.1129363  96.8778886   8.2524810 134.3899992  22.7374990  85.4799997
 134.8349992  21.9454990  85.7819997 134.8559992  23.4534990  85.9109997
 134.5139059  22.7259485  85.5796061  16.2709992  95.1364990   8.4119997
  16.8749992  95.6844990   7.9099997  15.4019992  95.4554990   8.1709997
  16.2360419  95.2545628   8.3107741  17.9979992  96.2754990   6.7449997
  18.6099992  95.7614990   6.2179997  18.3809992  97.1524990   6.7679997
  18.1333867  96.3237613   6.6760888   3.4549992  95.6634990   6.1209997
   2.6779992  95.4284990   5.6139997   3.9859992  94.8664990   6.1299997
   3.4203735  95.5236462   6.0528090   2.2919992  95.4614990   1.9249997
   2.7309992  96.0724990   1.3329997   1.6579992  95.9994990   2.3989997
   2.2663859  95.6179076   1.9080287   8.0349992  95.5894990   5.9339997
   8.9089992  95.9784990   5.9049997   7.8989992  95.3744990   6.8569997
   8.1361953  95.6136654   6.0547599  13.5909992  95.6194990   7.5839997
  13.6679992  95.7154990   6.6339997  13.3159992  94.7124990   7.7119997
  13.5643233  95.5099093   7.4713665  14.9449992  95.6454990   3.2759997
  14.2419992  96.2604990   3.0659997  14.4999992  94.8084990   3.4069997
  14.7886550  95.6164679   3.2649819   2.1929992 111.4094990   2.8219997
   1.5079992 111.3714990   2.1549997   2.1959992 112.3214990   3.1099997
   2.0996806 111.5276669   2.7696961   4.1529992  97.3774990   0.3669997
   4.6439992  96.7474990  -0.1600003   4.7759992  97.6734990   1.0299997
   4.3045304  97.3312387   0.3844922   9.1789992  97.6704990   2.8239997
   9.3569992  97.0234990   3.5069997   9.1249992  98.5044990   3.2909997
   9.1960678  97.6946615   2.9806283 132.6939992  25.7364990  86.5489997
 133.1859992  25.5154990  85.7589997 133.0559992  26.5764990  86.8299997
 132.8103429  25.8198220  86.4787918  11.0569992 112.6184990   1.2199997
  11.9229992 112.9854990   1.0419997  10.8099992 112.1794990   0.4059997
  11.1421853 112.6094021   1.0855813  17.7659992 112.1814990   3.8989997
  17.5719992 111.4334990   3.3339997  17.7269992 112.9394990   3.3159997
  17.7341645 112.1815797   3.7428131   3.4129992  96.1774990  15.6389997
   3.0469992  95.4114990  16.0809997   4.3259992  96.2064990  15.9249997
   3.4863172  96.0765335  15.7381872   5.3859992  95.5274990  17.1739997
   6.2849992  95.2534990  16.9899997   4.9999992  94.7854990  17.6389997
   5.4567307  95.3897207  17.2117080   4.0109992 112.3294990  -0.1530003
   3.7429992 112.6154990   0.7209997   4.7819992 111.7834990  -0.0000003
   4.0785926 112.2947790  -0.0128812  13.8069992  94.8604990  17.3569997
  13.8839992  94.4344990  18.2099997  14.7009992  94.8734990  17.0139997
  13.9383263  94.8039345  17.4274366  16.9839992 110.9324990  16.0489997
  16.2019992 110.7464990  15.5289997  16.9119992 111.8624990  16.2659997
  16.8672975 111.0326973  16.0071822  31.3899992 104.8194990   6.0799997
  31.4789992 105.7634990   5.9469997  30.7509992 104.5444990   5.4219997
  31.3158378 104.9113846   5.9729258  30.3229992 104.0744990   9.4989997
  30.2839992 103.4284990  10.2039997  29.9999992 103.6074990   8.7269997
  30.2740469 103.9230005   9.4912803  22.6909992 103.6884990  11.0919997
  22.7319992 103.0634990  11.8149997  23.3939992 104.3124990  11.2739997
  22.7916223 103.6872318  11.2156164 133.0069992  21.9944990  80.6039997
 132.0819992  22.2024990  80.4739997 133.4609992  22.4784990  79.9139997
 132.9417401  22.0883895  80.4929433  34.0289992 107.0134990   7.7999997
  33.5879992 106.2934990   8.2509997  34.0159992 107.7344990   8.4299997
  33.9669215 107.0124303   7.9468088  23.6149992 108.1384990   9.6269997
  23.2449992 107.3364990   9.2569997  24.5559992 107.9704990   9.6729997
  23.6915984 108.0059649   9.5825586  20.2249992 101.7984990   5.0189997
  19.7769992 102.6444990   5.0009997  19.6639992 101.2194990   4.5039997
  20.0878546 101.8359004   4.9468874  20.9349992 103.9604990   7.1449997
  21.1489992 103.1904990   7.6719997  21.6729992 104.0504990   6.5419997
  21.0640073 103.8673546   7.1355786  31.1399992 112.1174990   8.0119997
  31.7599992 111.4414990   7.7389997  30.9319992 111.8994990   8.9209997
  31.1967679 111.9955032   8.0974518  28.7119992 106.5064990   9.9049997
  29.0159992 105.8204990   9.3099997  29.4339992 106.6254990  10.5229997
  28.8511240 106.4287325   9.9070941  37.3749992  98.1084990  10.7649997
  37.4239992  98.7184990  11.5009997  37.8009992  98.5694990  10.0419997
  37.4392851  98.2543266  10.7680532  31.8529992 100.9004990  10.2319997
  31.9949992  99.9544990  10.2519997  31.7469992 101.1074990   9.3039997
  31.8581051 100.7989706  10.1092249  25.0079992  99.0024990   7.5049997
  25.0509992  99.8624990   7.0859997  24.5499992  98.4494990   6.8709997
  24.9520163  99.0454174   7.3620604  32.7299992  99.1334990   5.9049997
  33.3759992  98.8044990   6.5299997  33.2399992  99.6504990   5.2829997
  32.8874289  99.1584333   5.9063681 132.9709992  20.7324990  88.9479997
 132.3059992  20.4864990  89.5909997 132.5279992  21.3544990  88.3709997
 132.8201168  20.7829225  88.9579830  21.6279992 101.3994990   8.2669997
  22.2819992 100.8494990   8.6989997  21.6519992 101.1254990   7.3499997
  21.7207199 101.2872179   8.2021650  26.7839992 102.9494990   7.4819997
  27.3999992 102.4224990   7.9909997  26.1979992 102.3094990   7.0779997
  26.7890652 102.7908919   7.4970277  37.7669992  99.5864990  13.0009997
  37.0779992 100.2444990  12.9059997  37.7819992  99.3884990  13.9379997
  37.6747756  99.6497614  13.1145795  23.8179992  97.9204990  11.5789997
  23.5989992  98.4504990  10.8119997  23.1499992  98.1464990  12.2259997
  23.6976975  98.0235979  11.5615123  31.1869992 107.4204990   5.1229997
  30.8909992 107.0974990   4.2709997  30.8629992 108.3204990   5.1639997
  31.1027458 107.4979678   5.0120598  26.3869992 105.5954990  11.8659997
  25.6469992 106.1944990  11.9699997  27.1009992 106.1494990  11.5499997
  26.3823146 105.7522611  11.8375150  34.4939992  98.4244990   7.8859997
  34.2789992  97.6584990   8.4189997  35.1499992  98.8964990   8.3989997
  34.5532673  98.3835739   8.0281972  23.4119992  99.8124990   9.5309997
  24.0249992 100.4454990   9.9039997  23.9239992  99.3404990   8.8749997
  23.5651933  99.8353380   9.4933477  24.7939992 107.5604990  12.6529997
  24.7889992 108.4394990  12.2749997  23.9409992 107.4764990  13.0779997
  24.6779199 107.6695901  12.6586942  20.9159992 107.2314990   3.4349997
  20.6439992 107.4604990   2.5459997  20.9609992 108.0684990   3.8959997
  20.8848360 107.3761034   3.3756186 135.1629992  33.9074990  93.0919997
 134.3419992  34.0824990  92.6319997 134.9109992  33.8344990  94.0129997
 135.0166173  33.9215806  93.1534954  34.5409992 108.8524990  10.1479997
  33.5989992 108.9114990  10.3099997  34.8169992 109.7584990  10.0109997
  34.4495865 108.9830299  10.1516174  34.8409992  97.1394990  11.5649997
  34.1049992  97.7494990  11.5279997  35.5249992  97.5544990  11.0389997
  34.8325367  97.2792562  11.4888156  27.8439992  95.2254990   9.0309997
  27.7269992  94.2774990   8.9769997  26.9889992  95.5584990   9.3039997
  27.7123691  95.1405842   9.0605072  32.7929992 110.6334990   6.7729997
  33.2179992 109.9264990   6.2879997  33.1099992 111.4354990   6.3559997
  32.8940266 110.6450201   6.6502461  33.9519992 108.5344990   5.2819997
  33.6949992 107.8444990   4.6699997  34.0229992 108.0914990   6.1269997
  33.9264322 108.3801568   5.3125372  35.6379992 107.1014990  13.7589997
  35.7779992 106.5094990  13.0199997  35.8059992 107.9744990  13.4029997
  35.6798734 107.1384041  13.6096937  30.1109992 104.0634990   3.5319997
  29.3989992 104.5984990   3.1799997  30.8019992 104.1184990   2.8719997
  30.1069704 104.1441663   3.3945797  30.1649992 102.5204990   0.5699997
  30.8659992 102.5434990   1.2219997  30.4669992 101.8924990  -0.0860003
  30.3018202 102.4387223   0.5705591  37.4799992 103.4414990  11.8249997
  36.8279992 104.1354990  11.9139997  37.9449992 103.6514990  11.0149997
  37.4535357 103.5649544  11.7277056  33.5169992 104.2724990   4.4829997
  32.7849992 104.5014990   5.0559997  33.9639992 103.5594990   4.9379997
  33.4772753 104.2073984   4.6229698 138.1169992  34.8814990  89.3509997
 137.6919992  35.6914990  89.0679997 139.0209992  34.9674990  89.0489997
 138.1811002  35.0038728  89.2714798  33.4139992 102.4474990  13.5509997
  33.4939992 103.2104990  14.1229997  32.8129992 102.7264990  12.8609997
  33.3436547 102.5897468  13.5360029  25.1619992 104.9034990   6.3659997
  24.8319992 104.5324990   5.5479997  25.7499992 104.2324990   6.7129997
  25.1963182 104.7620648   6.3009898  26.5289992 108.3314990   9.0469997
  26.4339992 107.7524990   8.2909997  27.2579992 107.9604990   9.5429997
  26.6146011 108.2020572   9.0106011  25.5289992 103.6714990   9.9989997
  26.0939992 103.7934990   9.2369997  25.8469992 104.3094990  10.6379997
  25.6493619 103.7744388   9.9810019  31.8379992 109.1754990  10.7329997
  31.5969992 109.8374990  11.3809997  31.6399992 108.3404990  11.1579997
  31.7782662 109.1532704  10.8791008  26.4089992 108.0714990  14.7169997
  26.0969992 108.8534990  15.1719997  25.7589992 107.9184990  14.0309997
  26.2784858 108.1577882  14.6865344  32.3879992 103.4354990   2.1689997
  32.9669992 103.5854990   2.9149997  32.8019992 103.9054990   1.4449997
  32.5233358 103.5195966   2.1733935  23.3289992 104.2694990  13.9449997
  23.3989992 104.9204990  14.6439997  22.4379992 104.3724990  13.6099997
  23.2181690 104.3724261  13.9953026  30.1139992 110.1714990   5.6039997
  30.5879992 110.4674990   6.3809997  29.5509992 110.9104990   5.3709997
  30.1027890 110.3118047   5.6788084  24.6479992 110.1424990  15.4799997
  24.6559992 110.0064990  14.5329997  23.7319992 110.0254990  15.7319997
  24.5252528 110.1080475  15.3843226 135.5189992  38.1384990  89.3979997
 134.7979992  38.5784990  88.9469997 135.1529992  37.8874990  90.2469997
 135.3709785  38.1647691  89.4509849  36.0859992  95.1854990   1.9809997
  35.1859992  95.3234990   2.2769997  36.3379992  96.0164990   1.5799997
  35.9967727  95.3168705   1.9672935  24.1519992 103.9724990   3.9549997
  23.8599992 104.7404990   3.4639997  23.4779992 103.3134990   3.7919997
  24.0208843 103.9884537   3.8657695  37.2759992 109.5514990   0.3579997
  37.3489992 110.4904990   0.5279997  38.1809992 109.2464990   0.3019997
  37.4084170 109.6388294   0.3737045  20.2449992 106.3354990  12.7699997
  19.7439992 106.3074990  11.9549997  20.2509992 105.4304990  13.0799997
  20.1771690 106.2092234  12.7002770  19.9959992 109.1164990   9.6539997
  20.9419992 108.9714990   9.6349997  19.8829992 109.9004990  10.1909997
  20.1103578 109.2026708   9.7240300  38.1929992 109.7824990  15.3369997
  38.1439992 108.8264990  15.2989997  37.3669992 110.0494990  15.7379997
  38.0745096 109.6878416  15.3860698  29.1719992 109.3564990  14.2129997
  29.2589992 110.1824990  14.6879997  28.3079992 109.0264990  14.4619997
  29.0671944 109.4249871  14.3116558  29.5859992 113.1284990   4.0189997
  29.5109992 113.0074990   3.0719997  29.6189992 114.0774990   4.1369997
  29.5802083 113.2402639   3.9054973  23.2399992 111.9174990   5.7999997
  23.3919992 111.5694990   6.6779997  22.3889992 111.5604990   5.5439997
  23.1458344 111.8215891   5.8856851  32.6879992 112.2824990   1.0209997
  33.0629992 111.5384990   0.5499997  32.6919992 112.0124990   1.9389997
  32.7398969 112.1440920   1.0806475 137.9859992  37.7384990  88.4279997
 137.1209992  37.8104990  88.8319997 137.9309992  38.2854990  87.6439997
 137.8602066  37.8222678  88.3773371  32.3569992 112.2084990   3.7699997
  31.4219992 112.3084990   3.9489997  32.6369992 111.4984990   4.3489997
  32.2669471 112.1262944   3.8726678  35.3449992 101.2754990  15.8169997
  34.9379992 101.7554990  15.0959997  35.3859992 100.3694990  15.5089997
  35.2948403 101.2187989  15.6767253  22.4939992 107.6594990  13.8129997
  22.7099992 107.2974990  14.6729997  21.6389992 107.2844990  13.6039997
  22.4079082 107.5593377  13.9022396  25.1129992  96.1294990   9.8089997
  24.2509992  96.0424990   9.4009997  25.0909992  96.9854990  10.2369997
  24.9920557  96.2333078   9.8110202  29.7759992  95.8514990  13.1839997
  30.1959992  95.4364990  13.9369997  28.8429992  95.6724990  13.3009997
  29.7073736  95.7704921  13.3028950  33.1019992  99.6064990  14.0369997
  32.5879992  99.4814990  14.8349997  32.9469992 100.5194990  13.7929997
  33.0107802  99.7127433  14.1131504  33.8649992 104.4674990  -0.2020003
  33.9069992 104.2454990  -1.1320003  34.7139992 104.8664990  -0.0120003
  33.9855253 104.4910510  -0.3036196  29.4379992  98.3434990   0.4689997
  29.1839992  98.3624990   1.3909997  29.1809992  97.4724990   0.1669997
  29.3684508  98.2283292   0.5544786  25.2039992 101.0944990  10.9039997
  24.5619992 101.0544990  11.6129997  25.2409992 102.0214990  10.6659997
  25.1211659 101.2142540  10.9688463  25.2009992 101.3154990   5.8159997
  24.3079992 100.9754990   5.7569997  25.6519992 100.9384990   5.0599997
  25.1397185 101.2180220   5.7057698 134.9339992  36.7614990  86.3089997
 134.9149992  36.3354990  87.1659997 135.7379992  36.4424990  85.8999997
 135.0401393  36.6600297  86.3710155  30.7369992 101.7314990   4.6329997
  30.3279992 102.5464990   4.3409997  31.4569992 101.5914990   4.0189997
  30.7784439 101.8240383   4.5100098  29.8389992 101.9074990  16.1209997
  29.2759992 101.2024990  16.4419997  30.6649992 101.7864990  16.5889997
  29.8736674 101.7947176  16.2281734  31.7409992 101.1774990   7.4469997
  31.5459992 101.7834990   6.7319997  31.9229992 100.3444990   7.0129997
  31.7389195 101.1477936   7.2904079  22.9539992 101.4154990  12.7709997
  22.9159992 101.8154990  13.6399997  22.4629992 100.5984990  12.8609997
  22.8824374 101.3598228  12.9020980  26.3199992  98.7894990  -0.4300003
  25.8889992  98.3444990   0.2989997  25.6019992  99.1604990  -0.9430003
  26.1639176  98.7787063  -0.3995087  19.5619992  98.5314990   6.6219997
  20.1929992  98.5024990   7.3409997  20.0119992  98.1064990   5.8909997
  19.7091082  98.4701269   6.6216307  20.8359992  99.2774990   2.0459997
  21.3109992  99.8684990   1.4609997  20.1189992  99.8074990   2.3929997
  20.8040406  99.4301011   2.0128495  31.0049992 102.8154990  12.1179997
  31.3289992 102.1844990  11.4749997  30.5649992 102.2814990  12.7789997
  30.9898707 102.6568261  12.1193195  27.7829992  98.7434990   6.9019997
  26.8719992  98.8004990   7.1909997  28.2879992  98.6834990   7.7129997
  27.7266873  98.7431838   7.0511190  22.6109992 100.3724990   5.7289997
  21.7219992 100.4714990   5.3889997  22.9069992  99.5304990   5.3829997
  22.5294001 100.2722473   5.6357318 137.0749992  35.4714990  84.9639997
 136.8559992  34.5544990  85.1329997 137.8989992  35.6114990  85.4299997
 137.1564637  35.3649586  85.0501414  26.2639992 100.3724990   3.3859997
  27.1959992 100.5014990   3.5639997  26.0489992 101.0414990   2.7359997
  26.3624472 100.4805817   3.3224873  32.1879992  97.9784990  10.1659997
  31.5109992  98.1094990  10.8299997  31.7019992  97.8234990   9.3559997
  32.0297265  97.9754665  10.1473380  24.9379992 101.5664990   0.9519997
  24.3959992 101.1874990   0.2609997  25.7719992 101.7614990   0.5239997
  24.9764390 101.5409091   0.7994374  35.4749992 113.6494990  16.4429997
  35.6749992 114.0734990  15.6089997  36.1309992 113.9934990  17.0499997
  35.5909937 113.7539993  16.4108645  23.0729992 106.1234990  16.0509997
  23.8049992 106.3784990  16.6129997  22.2929992 106.3284990  16.5669997
  23.0676526 106.1860438  16.1975168  29.1029992 101.5304990   8.7889997
  29.6669992 100.9844990   8.2419997  28.9549992 101.0094990   9.5779997
  29.1603037 101.3851798   8.8207212  24.1049992  97.6674990   5.2079997
  23.7869992  96.7644990   5.1719997  24.8859992  97.6694990   4.6549997
  24.1671079  97.5442240   5.1282908  27.7289992  99.9194990  11.2029997
  26.8939992 100.3734990  11.3139997  28.2529992 100.1954990  11.9549997
  27.6856072 100.0188960  11.3198118  28.2729992 106.1324990   2.8879997
  27.5279992 105.6244990   2.5659997  28.1389992 106.1814990   3.8339997
  28.1529334 106.0696144   2.9718892  35.4229992 105.2654990  11.6749997
  36.0649992 105.7214990  11.1309997  34.5929992 105.3784990  11.2119997
  35.3986536 105.3431813  11.5379579 135.4469992  20.2394990  82.7789997
 134.6699992  20.0044990  82.2709997 135.9779992  19.4424990  82.7879997
 135.4124443  20.0996721  82.7107200  32.1709992  98.9464990   1.0869997
  31.2319992  99.0574990   0.9359997  32.4679992  99.8024990   1.3939997
  32.0826136  99.0774977   1.1078568  29.7929992 106.3164990  14.1249997
  29.4469992 105.9344990  14.9319997  29.5929992 107.2494990  14.1959997
  29.7185987 106.3904013  14.2450443  32.8889992 100.8134990   2.7479997
  33.7809992 100.6754990   3.0669997  32.9459992 101.6044990   2.2109997
  33.0187380 100.9014777   2.7190981  23.3979992 105.4274990   8.6579997
  24.1429992 105.4244990   8.0559997  23.4759992 104.6034990   9.1389997
  23.5103365 105.3157395   8.6407412  30.3989992 107.5904990   1.9129997
  30.1039992 108.4174990   2.2949997  29.6959992 106.9714990   2.1099997
  30.2636379 107.6199182   1.9918636  20.4059992 103.8874990  13.9729997
  20.6289992 103.4694990  14.8039997  19.8039992 103.2754990  13.5499997
  20.3551513 103.7474617  14.0296722  27.4229992 103.4044990  16.1859997
  27.1269992 103.2394990  15.2899997  28.3539992 103.1844990  16.1749997
  27.5084401 103.3521891  16.0620189  32.0429992 108.7784990  14.0749997
  31.1419992 108.9614990  13.8079997  32.0769992 109.0374990  14.9959997
  31.9243861 108.8385245  14.1629517  37.7739992 101.0224990   2.4429997
  37.2199992 100.6264990   1.7699997  37.8749992 101.9334990   2.1649997
  37.7118589 101.0913904   2.3133839  37.7369992 106.8234990  15.2799997
  36.8859992 107.0614990  14.9119997  38.3279992 106.8064990  14.5259997
  37.7003831 106.8537623  15.1278448 134.1849992  35.9854990  79.4799997
 133.4999992  35.9474990  78.8119997 134.1879992  36.8974990  79.7679997
 134.0917358  36.1036744  79.4276145  36.0689992 109.8084990   2.9079997
  35.6969992 108.9834990   3.2169997  36.3469992 109.6254990   2.0099997
  36.0555807 109.6707031   2.8290063  33.2299992 104.6164990   9.9289997
  32.3019992 104.3854990   9.9019997  33.6809992 103.8394990   9.5989997
  33.1638165 104.4797785   9.8806772  25.7729992 108.9454990   6.0619997
  26.2999992 109.7184990   5.8619997  24.8929992 109.1694990   5.7599997
  25.7262121 109.0817344   5.9937460  21.5279992 103.8074990   0.6489997
  22.1439992 104.4344990   1.0289997  20.6659992 104.1234990   0.9209997
  21.4957678 103.9359423   0.7377192  27.1999992 106.6084990   5.6379997
  26.9589992 107.5334990   5.6799997  26.4599992 106.1494990   6.0349997
  27.0669463 106.6730969   5.6974279  27.7149992 110.7574990  11.9529997
  28.0779992 111.6114990  11.7199997  28.2469992 110.4654990  12.6939997
  27.8365141 110.8348907  12.0212079  25.8829992 111.6294990   5.1839997
  24.9339992 111.7354990   5.2349997  26.2349992 112.4504990   5.5279997
  25.8005647 111.7550029   5.2374882  31.2589992 106.8564990  11.6539997
  30.8329992 106.6284990  12.4799997  31.8399992 106.1174990  11.4719997
  31.2792088 106.7254393  11.7424454  33.4619992 107.7854990   0.7279997
  33.8149992 107.4054990   1.5319997  32.5129992 107.6914990   0.8149997
  33.3820956 107.7207867   0.8498005  33.9179992 111.4084990  14.1229997
  33.3159992 110.8524990  13.6279997  34.1989992 112.0754990  13.4969997
  33.8735757 111.4225755  13.9705657 136.1449992  21.9534990  77.0249997
 136.6359992  21.3234990  76.4969997 136.7679992  22.2494990  77.6879997
 136.2965459  21.9072419  77.0423667  37.9649992 112.2644990   0.9289997
  38.7089992 112.8504990   0.7889997  37.2709992 112.8334990   1.2619997
  37.9729809 112.4215830   0.9548572  22.0399992  98.6414990  13.5309997
  21.1469992  98.9794990  13.4629997  21.9409992  97.7854990  13.9489997
  21.9044752  98.5720986  13.5781644  34.3279992 106.4574990   2.9549997
  34.0509992 105.7294990   3.5109997  35.2549992 106.5764990   3.1599997
  34.4154419 106.3739436   3.0588264  21.6909992 110.4454990  11.9659997
  21.9079992 109.5134990  11.9349997  21.9379992 110.7204990  12.8489997
  21.7540948 110.3550976  12.0811268  26.4899992 108.4674990   1.6309997
  26.6369992 107.9474990   2.4209997  26.4869992 109.3744990   1.9379997
  26.5097102 108.5188964   1.7805907  22.9429992 105.7194990   2.1419997
  22.2569992 106.0724990   2.7089997  23.4659992 106.4824990   1.8949997
  22.9198402 105.8708912   2.1861783  30.7739992  98.3824990  12.4209997
  31.4729992  98.4564990  13.0709997  30.3939992  97.5174990  12.5749997
  30.8182662  98.2757050  12.5307412  31.5589992  98.0344990   3.5179997
  31.7789992  98.5054990   2.7139997  32.1169992  98.4284990   4.1879997
  31.6646044  98.1522946   3.4985207  29.2279992 110.1644990   2.3809997
  28.4109992 110.6614990   2.4329997  29.7569992 110.6404990   1.7399997
  29.1878125 110.2967000   2.3015289  28.7589992  99.7624990   4.3529997
  29.5709992 100.2664990   4.3989997  28.5139992  99.6174990   5.2669997
  28.8371091  99.8119366   4.4828552 135.4049992  20.7534990  92.2959997
 135.0389992  19.9874990  92.7389997 136.3179992  20.7824990  92.5829997
 135.4783225  20.6526917  92.3953441  29.2949992 100.7484990  13.5369997
  29.4139992 101.3224990  14.2939997  29.9499992 100.0604990  13.6519997
  29.3998684 100.7340205  13.6561656  29.6429992  96.8434990   5.2909997
  29.2959992  97.4604990   5.9349997  30.3009992  97.3444990   4.8089997
  29.6844430  96.9956860   5.3140045  26.5659992 111.2084990   2.3619997
  26.7269992 112.0084990   1.8619997  26.3689992 111.5154990   3.2469997
  26.5613906 111.3593690   2.4132316  25.2999992  97.9064990   1.9779997
  25.2169992  98.7944990   2.3249997  26.1899992  97.6414990   2.2099997
  25.4089331  97.9921177   2.0568067  35.4989992  98.6554990  14.3719997
  34.5829992  98.9174990  14.2849997  35.8349992  98.6524990  13.4759997
  35.4188499  98.6910174  14.2388748  34.1009992 102.4054990   8.4679997
  33.3039992 101.9904990   8.1399997  34.5459992 101.7154990   8.9589997
  34.0520367 102.2553372   8.4894897  23.5589992 108.3334990   1.0379997
  24.1509992 109.0334990   1.3149997  24.0179992 107.9004990   0.3189997
  23.7021652 108.3707686   0.9786515  21.8749992 100.9984990   0.1539997
  21.8299992 101.9374990   0.3329997  20.9869992 100.7624990  -0.1150003
  21.7488166 101.0951698   0.1421507  35.1879992 111.6614990  10.0899997
  35.0319992 112.3404990   9.4329997  36.1199992 111.7334990  10.2929997
  35.2927328 111.7641586  10.0275529  22.6829992  95.7794990   8.8269997
  22.4539992  95.8384990   7.8999997  22.2399992  94.9884990   9.1339997
  22.5917387  95.6806412   8.7415223 137.3779992  20.1034990  93.8319997
 138.2769992  19.8294990  93.6469997 136.9919992  19.3614990  94.2959997
 137.4487237  19.9656520  93.8694693  21.6129992 109.7204990   4.9879997
  20.7809992 110.1924990   5.0149997  22.1589992 110.2304990   4.3889997
  21.5728710 109.8540317   4.9107570  20.9019992 112.3324990  16.3179997
  21.4419992 112.1164990  17.0779997  20.4199992 111.5274990  16.1279997
  20.9108485 112.1940463  16.3964870  25.4989992 111.2524990  17.9379997
  26.2669992 110.7934990  18.2789997  25.4779992 111.0264990  17.0079997
  25.6012135 111.1591680  17.8589473  29.5909992 110.7604990  -0.6870003
  28.9469992 110.1294990  -0.3650003  30.3529992 110.2294990  -0.9180003
  29.6058708 110.6023171  -0.6741539  32.0759992 109.6324990  16.6669997
  31.7249992 108.7754990  16.9099997  32.8019992 109.7744990  17.2739997
  32.1261590 109.5345189  16.7822889  34.1949992 110.5774990  -0.4530003
  34.4779992 109.7824990  -0.0000003  34.9349992 110.8104990  -1.0140003
  34.3337295 110.5002349  -0.4668531  20.8089992 106.1434990  17.2719997
  20.9529992 105.2414990  16.9859997  20.0359992 106.4294990  16.7849997
  20.7242266 106.0586548  17.1670102  25.1499992 106.4864990  -0.5950003
  25.2139992 105.6924990  -0.0650003  25.8029992 106.3684990  -1.2850003
  25.2470483 106.3617496  -0.6156593  27.4639992 106.1124990  16.7049997
  27.1359992 106.3834990  15.8479997  27.6159992 105.1714990  16.6169997
  27.4396412 106.0224058  16.5757804  33.1989992 106.0284990  14.0879997
  33.9439992 106.6174990  13.9689997  32.4409992 106.6104990  14.1509997
  33.1985289 106.1877067  14.0802292  12.5339992  48.2514990  82.7369997
  12.6229992  49.1954990  82.6049997  11.8949992  47.9764990  82.0789997
  12.4598319  48.3434984  82.6300276  21.6409992 103.3434990  16.6919997
  22.0489992 102.4864990  16.5709997  21.3809992 103.3574990  17.6129997
  21.6617082 103.2280596  16.7999469  26.2989992 104.4594990   1.7109997
  25.8399992 103.9754990   2.3959997  26.5539992 103.7904990   1.0749997
  26.2705997 104.3028491   1.7188734  25.5879992 102.3524990  14.0669997
  24.9699992 103.0264990  14.3469997  25.9319992 102.6734990  13.2329997
  25.5498078 102.4882298  13.9926609  27.3699992 102.7024990  -0.0270003
  27.1899992 102.5474990  -0.9540003  28.3199992 102.8104990   0.0179997
  27.4737804 102.6958821  -0.1478034  30.6079992 104.8234990  17.3439997
  31.5609992 104.9074990  17.3169997  30.4479992 104.1114990  17.9629997
  30.7167320 104.7387292  17.4239933  36.7599992 105.0564990  -0.5810003
  36.4869992 104.6324990  -1.3940003  36.7999992 105.9884990  -0.7980003
  36.7280201 105.1243523  -0.7216452  25.9279992  99.7074990  15.1489997
  26.0779992  98.9784990  14.5469997  25.9299992 100.4844990  14.5899997
  25.9487967  99.7127720  14.9910523  26.3399992  98.0764990  12.6419997
  26.8759992  98.5284990  11.9899997  25.4879992  97.9684990  12.2189997
  26.2981795  98.1237444  12.4956211  27.9219992 103.5164990  12.8809997
  28.6729992 103.3604990  12.3079997  27.5829992 104.3684990  12.6059997
  27.9789587 103.6103149  12.7654060  32.3379992 101.3314990  17.9099997
  32.5299992 100.4004990  17.7979997  33.1949992 101.7564990  17.8989997
  32.4802176 101.2615090  17.8931757  11.4669992  47.5064990  86.1559997
  11.4279992  46.8604990  86.8609997  11.1439992  47.0394990  85.3849997
  11.4180199  47.3550089  86.1482865  33.6539992 104.1204990  15.9869997
  33.3729992 104.8294990  15.4089997  34.5969992 104.0474990  15.8359997
  33.7429272 104.2076704  15.8874976  24.4059992 100.9054990  17.0599997
  23.6389992 100.3724990  16.8499997  25.0849992 100.5954990  16.4609997
  24.3928292 100.7906360  16.9502693  27.1459992  95.5334990  13.0729997
  27.0479992  96.4794990  12.9679997  26.4029992  95.1604990  12.5969997
  27.0322123  95.6126811  12.9943204  28.4099992  99.8544990  16.6369997
  28.1739992  99.6354990  17.5379997  27.6269992  99.6474990  16.1269997
  28.2718382  99.7965340  16.6913991  31.1259992  98.9824990  15.7119997
  30.1779992  99.0144990  15.8439997  31.4379992  98.3564990  16.3659997
  31.0385293  98.9022934  15.8184130  32.7599992  97.6164990  17.7169997
  32.6629992  96.6644990  17.7119997  32.4379992  97.8844990  18.5779997
  32.7032468  97.5225896  17.8326192  22.5869992  98.8254990  16.7649997
  22.7979992  98.1194990  16.1549997  22.4749992  98.3884990  17.6089997
  22.6007668  98.6696619  16.7955445  27.3679992  94.8274990  15.7439997
  28.0789992  94.1874990  15.7299997  27.2669992  95.0934990  14.8309997
  27.4516858  94.7758591  15.6185501  27.7209992  96.5094990  17.7979997
  27.5899992  96.0344990  16.9779997  27.1219992  97.2544990  17.7429997
  27.6220829  96.5450949  17.6781823  27.2679992 113.3924990   0.9739997
  28.2009992 113.5504990   1.1179997  27.0029992 114.0684990   0.3489997
  27.3599846 113.5054567   0.9092930   3.8349992  47.1204990  87.7489997
   3.8759992  46.4954990  88.4729997   4.5379992  47.7444990  87.9309997
   3.9356054  47.1193262  87.8726311  20.8359992 108.0294990   0.4569997
  21.7499992 108.1084990   0.7299997  20.8429992 107.3424990  -0.2090003
  20.9620624 107.9474074   0.4043045  19.4849992 113.4224990   5.5339997
  18.8379992 112.9604990   5.0019997  19.8399992 112.7504990   6.1169997
  19.4443741 113.2684785   5.5399157  20.3549992 111.5024990   7.3389997
  20.0209992 110.6224990   7.5109997  20.5769992 111.8484990   8.2039997
  20.3392565 111.4287410   7.4794263  37.9039992 112.3124990  10.3199997
  37.8819992 112.4974990  11.2579997  38.5939992 112.8804990   9.9789997
  37.9943383 112.4147104  10.4024580  37.4669992 111.8794990  13.2409997
  36.9799992 111.1434990  12.8699997  38.0159992 111.4854990  13.9189997
  37.4746101 111.7256267  13.2819034  35.9179992 107.6694990  17.8789997
  35.0519992 107.5644990  18.2739997  36.2939992 108.4274990  18.3259997
  35.8504940 107.7576141  17.9933958  37.2189992 105.9254990   3.3939997
  38.0689992 106.3464990   3.5209997  37.2239992 105.1854990   4.0009997
  37.3361143 105.8831106   3.4934732  37.6129992 103.9794990   5.2169997
  36.8869992 103.4994990   5.6149997  38.1939992 104.1844990   5.9489997
  37.5922504 103.9415592   5.3704199  37.3719992 106.7644990  10.1649997
  38.2059992 106.3864990   9.8839997  37.4839992 107.7074990  10.0459997
  37.5011917 106.8402954  10.1104844  35.8579992 109.6424990  12.4719997
  35.2109992 109.9674990  13.0969997  35.3409992 109.2014990  11.7979997
  35.6994112 109.6274133  12.4665272  15.1729992  50.4454990  84.4579997
  14.7319992  49.7254990  84.9079997  15.1599992  51.1664990  85.0879997
  15.1108398  50.4443187  84.6047734  37.8809992 103.8804990   1.6079997
  37.3599992 104.2364990   0.8899997  37.8479992 104.5554990   2.2869997
  37.8050955 104.0205023   1.6012634  36.2299992 101.1194990   0.1589997
  36.3269992 101.7864990  -0.5210003  36.0899992 100.3044990  -0.3220003
  36.2243407 101.1005670   0.0008312  35.3999992 102.5004990   5.7799997
  35.2499992 101.5554990   5.7599997  35.0459992 102.7814990   6.6239997
  35.3316351 102.4091656   5.8913202  20.4349992 104.5784990   9.7909997
  20.6189992 104.4964990   8.8549997  21.2839992 104.4544990  10.2139997
  20.5750132 104.5505066   9.7201460  36.2559992 104.4704990  15.4189997
  36.8389992 103.7354990  15.6109997  36.8199992 105.2424990  15.4659997
  36.4119781 104.4743156  15.4516146  37.7529992 102.3734990  16.1039997
  36.8889992 101.9944990  15.9379997  38.3569992 101.6344990  16.0289997
  37.7165394 102.2218378  16.0711778  35.1099992 100.0824990   4.2429997
  35.3899992  99.1754990   4.3669997  35.8689992 100.5164990   3.8539997
  35.2509258 100.0170935   4.2073691  35.7219992 100.6644990   9.6789997
  36.6549992 100.8764990   9.6439997  35.4869992 100.7654990  10.6009997
  35.8179517 100.7071844   9.7989113  35.7509992 101.4014990  12.4549997
  34.9079992 101.6694990  12.8199997  36.1939992 102.2234990  12.2439997
  35.6954035 101.5493351  12.4764770  20.0319992  99.8484990  15.9309997
  20.9519992  99.7264990  16.1679997  19.5829992  99.0984990  16.3209997
  20.0970500  99.7304576  16.0161016   4.7589992  51.5704990  86.2839997
   4.3889992  50.7684990  85.9149997   5.6999992  51.4024990  86.3309997
   4.8355630  51.4378680  86.2397873  38.0339992  95.3814990  17.8079997
  38.3839992  94.7274990  17.2019997  38.1809992  96.2184990  17.3679997
  38.1017192  95.4052545  17.6656712  35.7239992  97.3454990   4.2909997
  35.9059992  96.8964990   5.1159997  35.1239992  96.7614990   3.8269997
  35.6678187  97.2050563   4.3412721  21.2539992  98.1614990   8.8229997
  21.6989992  97.3694990   9.1249997  21.7199992  98.8774990   9.2529997
  21.3779718  98.1499546   8.9225247  19.5579992 101.1604990   9.8919997
  20.0499992 100.9394990   9.1009997  19.9199992 102.0004990  10.1729997
  19.6742923 101.2438480   9.8217389  37.5539992  97.4904990  16.1569997
  36.6369992  97.7614990  16.1209997  37.6769992  96.9554990  15.3729997
  37.4450828  97.4552711  16.0460767  37.5899992  97.4134990   0.8189997
  38.0029992  96.6924990   0.3439997  38.2719992  98.0824990   0.8769997
  37.7386060  97.4053741   0.7619233  19.8709992  97.4184990   3.9459997
  18.9459992  97.6264990   3.8169997  20.3249992  97.9024990   3.2559997
  19.8056298  97.5124311   3.8350433  34.6419992 112.4024990   5.8919997
  35.2939992 112.0544990   5.2839997  35.1529992 112.8904990   6.5379997
  34.8002872 112.4208248   5.8960964  19.8349992  96.1564990  12.2899997
  19.1699992  95.9104990  12.9329997  19.3919992  96.7784990  11.7129997
  19.6841168  96.2069225  12.2999830  22.0269992 109.3314990  16.4349997
  21.2059992 109.5064990  15.9739997  21.7749992 109.2584990  17.3549997
  21.8805594 109.3455728  16.4963593   1.3689992  45.2304990  81.6769997
   0.9209992  46.0764990  81.6589997   0.8079992  44.6514990  81.1619997
   1.2318546  45.2679004  81.6048874  24.9809992 110.3054990  12.6929997
  24.5559992 111.1154990  12.4109997  25.8849992 110.3914990  12.3909997
  25.0450706 110.4279557  12.6135836  29.2919992 111.7044990  15.6529997
  29.4769992 111.3714990  16.5309997  30.1389992 112.0144990  15.3309997
  29.4317291 111.7008214  15.7296140  31.6369992 112.9904990  14.8969997
  32.3139992 112.3574990  14.6569997  31.9589992 113.3914990  15.7039997
  31.7731618 112.9581147  14.9732802  36.5549992  95.5804990  13.9759997
  35.7419992  95.9054990  13.5889997  36.7879992  94.8194990  13.4429997
  36.4751347  95.5221891  13.8509824  22.3829992 113.5624990  12.7409997
  21.6619992 114.0024990  12.2899997  22.0169992 113.3114990  13.5889997
  22.2349632 113.5887235  12.7939649  24.8499992 113.1624990  11.7699997
  23.9849992 113.2344990  12.1739997  24.7949992 113.7094990  10.9869997
  24.7242290 113.2463242  11.7193749  29.5609992 113.0504990  10.9459997
  29.1039992 113.5794990  10.2919997  29.7229992 113.6534990  11.6709997
  29.5203919 113.2043990  10.9545740  31.8879992 111.9284990  11.8909997
  30.9839992 112.0934990  11.6249997  32.3169992 112.7814990  11.8249997
  31.8222017 112.0664184  11.8456495  34.4919992 113.4984990  12.1859997
  34.3109992 114.4144990  11.9749997  34.6689992 113.0874990  11.3389997
  34.4911377 113.5683365  12.0427178  21.7979992 112.1854990   9.6509997
  21.7789992 111.7594990  10.5079997  22.6019992 111.8664990   9.2419997
  21.9041393 112.0840297   9.7130155   2.0789992  47.3924990  83.8029997
   2.2929992  46.6224990  84.3299997   2.8169992  47.4824990  83.1999997
   2.2080073  47.2993546  83.7935786  23.9389992 110.8954990   8.3059997
  23.7199992 109.9784990   8.4759997  24.7629992 111.0354990   8.7719997
  24.0204702 110.7890523   8.3922510  26.4759992 111.3654990   9.1549997
  26.6889992 110.4774990   8.8679997  26.5409992 111.3304990  10.1089997
  26.5139149 111.2393338   9.2447351  29.9849992  97.0294990   8.2989997
  29.3099992  96.3994990   8.5549997  30.5489992  96.5454990   7.6959997
  29.9689363  96.8778886   8.2524810  35.1269992  95.1364990   8.4119997
  35.7309992  95.6844990   7.9099997  34.2579992  95.4554990   8.1709997
  35.0920419  95.2545628   8.3107741  36.8539992  96.2754990   6.7449997
  37.4659992  95.7614990   6.2179997  37.2369992  97.1524990   6.7679997
  36.9893867  96.3237613   6.6760888  22.3109992  95.6634990   6.1209997
  21.5339992  95.4284990   5.6139997  22.8419992  94.8664990   6.1299997
  22.2763735  95.5236462   6.0528090  21.1479992  95.4614990   1.9249997
  21.5869992  96.0724990   1.3329997  20.5139992  95.9994990   2.3989997
  21.1223859  95.6179076   1.9080287  26.8909992  95.5894990   5.9339997
  27.7649992  95.9784990   5.9049997  26.7549992  95.3744990   6.8569997
  26.9921953  95.6136654   6.0547599  32.4469992  95.6194990   7.5839997
  32.5239992  95.7154990   6.6339997  32.1719992  94.7124990   7.7119997
  32.4203233  95.5099093   7.4713665  33.8009992  95.6454990   3.2759997
  33.0979992  96.2604990   3.0659997  33.3559992  94.8084990   3.4069997
  33.6446550  95.6164679   3.2649819  12.2839992  55.5494990  84.6699997
  12.9039992  54.8734990  84.3969997  12.0759992  55.3314990  85.5779997
  12.3407360  55.4274792  84.7554387  21.0489992 111.4094990   2.8219997
  20.3639992 111.3714990   2.1549997  21.0519992 112.3214990   3.1099997
  20.9556806 111.5276669   2.7696961  23.0089992  97.3774990   0.3669997
  23.4999992  96.7474990  -0.1600003  23.6319992  97.6734990   1.0299997
  23.1605304  97.3312387   0.3844922  28.0349992  97.6704990   2.8239997
  28.2129992  97.0234990   3.5069997  27.9809992  98.5044990   3.2909997
  28.0520678  97.6946615   2.9806283  29.9129992 112.6184990   1.2199997
  30.7789992 112.9854990   1.0419997  29.6659992 112.1794990   0.4059997
  29.9981853 112.6094021   1.0855813  36.6219992 112.1814990   3.8989997
  36.4279992 111.4334990   3.3339997  36.5829992 112.9394990   3.3159997
  36.5901645 112.1815797   3.7428131  22.2689992  96.1774990  15.6389997
  21.9029992  95.4114990  16.0809997  23.1819992  96.2064990  15.9249997
  22.3423172  96.0765335  15.7381872  24.2419992  95.5274990  17.1739997
  25.1409992  95.2534990  16.9899997  23.8559992  94.7854990  17.6389997
  24.3127307  95.3897207  17.2117080  22.8669992 112.3294990  -0.1530003
  22.5989992 112.6154990   0.7209997  23.6379992 111.7834990  -0.0000003
  22.9345926 112.2947790  -0.0128812  32.6629992  94.8604990  17.3569997
  32.7399992  94.4344990  18.2099997  33.5569992  94.8734990  17.0139997
  32.7943263  94.8039345  17.4274366  35.8399992 110.9324990  16.0489997
  35.0579992 110.7464990  15.5289997  35.7679992 111.8624990  16.2659997
  35.7232975 111.0326973  16.0071822   9.8559992  49.9384990  86.5619997
  10.1599992  49.2524990  85.9679997  10.5779992  50.0574990  87.1799997
   9.9951152  49.8607201  86.5642106  50.2459992 104.8194990   6.0799997
  50.3349992 105.7634990   5.9469997  49.6069992 104.5444990   5.4219997
  50.1718378 104.9113846   5.9729258  49.1789992 104.0744990   9.4989997
  49.1399992 103.4284990  10.2039997  48.8559992 103.6074990   8.7269997
  49.1300469 103.9230005   9.4912803  41.5469992 103.6884990  11.0919997
  41.5879992 103.0634990  11.8149997  42.2499992 104.3124990  11.2739997
  41.6476223 103.6872318  11.2156164  52.8849992 107.0134990   7.7999997
  52.4439992 106.2934990   8.2509997  52.8719992 107.7344990   8.4299997
  52.8229215 107.0124303   7.9468088  42.4709992 108.1384990   9.6269997
  42.1009992 107.3364990   9.2569997  43.4119992 107.9704990   9.6729997
  42.5475984 108.0059649   9.5825586  39.0809992 101.7984990   5.0189997
  38.6329992 102.6444990   5.0009997  38.5199992 101.2194990   4.5039997
  38.9438546 101.8359004   4.9468874  39.7909992 103.9604990   7.1449997
  40.0049992 103.1904990   7.6719997  40.5289992 104.0504990   6.5419997
  39.9200073 103.8673546   7.1355786  49.9959992 112.1174990   8.0119997
  50.6159992 111.4414990   7.7389997  49.7879992 111.8994990   8.9209997
  50.0527679 111.9955032   8.0974518  47.5679992 106.5064990   9.9049997
  47.8719992 105.8204990   9.3099997  48.2899992 106.6254990  10.5229997
  47.7071240 106.4287325   9.9070941  56.2309992  98.1084990  10.7649997
  56.2799992  98.7184990  11.5009997  56.6569992  98.5694990  10.0419997
  56.2952851  98.2543266  10.7680532  18.5189992  41.5404990  87.4229997
  18.5679992  42.1504990  88.1589997  18.9449992  42.0014990  86.6999997
  18.5832851  41.6863266  87.4260532  50.7089992 100.9004990  10.2319997
  50.8509992  99.9544990  10.2519997  50.6029992 101.1074990   9.3039997
  50.7141051 100.7989706  10.1092249  43.8639992  99.0024990   7.5049997
  43.9069992  99.8624990   7.0859997  43.4059992  98.4494990   6.8709997
  43.8080163  99.0454174   7.3620604  51.5859992  99.1334990   5.9049997
  52.2319992  98.8044990   6.5299997  52.0959992  99.6504990   5.2829997
  51.7434289  99.1584333   5.9063681  40.4839992 101.3994990   8.2669997
  41.1379992 100.8494990   8.6989997  40.5079992 101.1254990   7.3499997
  40.5767199 101.2872178   8.2021650  45.6399992 102.9494990   7.4819997
  46.2559992 102.4224990   7.9909997  45.0539992 102.3094990   7.0779997
  45.6450652 102.7908919   7.4970277  56.6229992  99.5864990  13.0009997
  55.9339992 100.2444990  12.9059997  56.6379992  99.3884990  13.9379997
  56.5307756  99.6497614  13.1145795  42.6739992  97.9204990  11.5789997
  42.4549992  98.4504990  10.8119997  42.0059992  98.1464990  12.2259997
  42.5536975  98.0235979  11.5615123  50.0429992 107.4204990   5.1229997
  49.7469992 107.0974990   4.2709997  49.7189992 108.3204990   5.1639997
  49.9587458 107.4979678   5.0120598  45.2429992 105.5954990  11.8659997
  44.5029992 106.1944990  11.9699997  45.9569992 106.1494990  11.5499997
  45.2383146 105.7522611  11.8375150  53.3499992  98.4244990   7.8859997
  53.1349992  97.6584990   8.4189997  54.0059992  98.8964990   8.3989997
  53.4092673  98.3835739   8.0281972  12.9969992  44.3324990  86.8899997
  13.1389992  43.3864990  86.9099997  12.8909992  44.5394990  85.9609997
  13.0021158  44.2309722  86.7672241  42.2679992  99.8124990   9.5309997
  42.8809992 100.4454990   9.9039997  42.7799992  99.3404990   8.8749997
  42.4211933  99.8353380   9.4933477  43.6499992 107.5604990  12.6529997
  43.6449992 108.4394990  12.2749997  42.7969992 107.4764990  13.0779997
  43.5339199 107.6695901  12.6586942  39.7719992 107.2314990   3.4349997
  39.4999992 107.4604990   2.5459997  39.8169992 108.0684990   3.8959997
  39.7408360 107.3761034   3.3756186  53.3969992 108.8524990  10.1479997
  52.4549992 108.9114990  10.3099997  53.6729992 109.7584990  10.0109997
  53.3055865 108.9830299  10.1516174  53.6969992  97.1394990  11.5649997
  52.9609992  97.7494990  11.5279997  54.3809992  97.5544990  11.0389997
  53.6885367  97.2792562  11.4888156  46.6999992  95.2254990   9.0309997
  46.5829992  94.2774990   8.9769997  45.8449992  95.5584990   9.3039997
  46.5683691  95.1405842   9.0605072  51.6489992 110.6334990   6.7729997
  52.0739992 109.9264990   6.2879997  51.9659992 111.4354990   6.3559997
  51.7500266 110.6450201   6.6502461  52.8079992 108.5344990   5.2819997
  52.5509992 107.8444990   4.6699997  52.8789992 108.0914990   6.1269997
  52.7824322 108.3801568   5.3125372  54.4939992 107.1014990  13.7589997
  54.6339992 106.5094990  13.0199997  54.6619992 107.9744990  13.4029997
  54.5358734 107.1384041  13.6096937  48.9669992 104.0634990   3.5319997
  48.2549992 104.5984990   3.1799997  49.6579992 104.1184990   2.8719997
  48.9629704 104.1441663   3.3945797   6.1519992  42.4344990  84.1619997
   6.1949992  43.2944990  83.7439997   5.6939992  41.8814990  83.5289997
   6.0959613  42.4775689  84.0191276  49.0209992 102.5204990   0.5699997
  49.7219992 102.5434990   1.2219997  49.3229992 101.8924990  -0.0860003
  49.1578202 102.4387223   0.5705591  56.3359992 103.4414990  11.8249997
  55.6839992 104.1354990  11.9139997  56.8009992 103.6514990  11.0149997
  56.3095357 103.5649544  11.7277056  52.3729992 104.2724990   4.4829997
  51.6409992 104.5014990   5.0559997  52.8199992 103.5594990   4.9379997
  52.3332753 104.2073984   4.6229698  52.2699992 102.4474990  13.5509997
  52.3499992 103.2104990  14.1229997  51.6689992 102.7264990  12.8609997
  52.1996547 102.5897468  13.5360029  44.0179992 104.9034990   6.3659997
  43.6879992 104.5324990   5.5479997  44.6059992 104.2324990   6.7129997
  44.0523182 104.7620648   6.3009898  45.3849992 108.3314990   9.0469997
  45.2899992 107.7524990   8.2909997  46.1139992 107.9604990   9.5429997
  45.4706011 108.2020572   9.0106011  44.3849992 103.6714990   9.9989997
  44.9499992 103.7934990   9.2369997  44.7029992 104.3094990  10.6379997
  44.5053619 103.7744388   9.9810019  50.6939992 109.1754990  10.7329997
  50.4529992 109.8374990  11.3809997  50.4959992 108.3404990  11.1579997
  50.6342662 109.1532704  10.8791008  45.2649992 108.0714990  14.7169997
  44.9529992 108.8534990  15.1719997  44.6149992 107.9184990  14.0309997
  45.1344858 108.1577882  14.6865344  51.2439992 103.4354990   2.1689997
  51.8229992 103.5854990   2.9149997  51.6579992 103.9054990   1.4449997
  51.3793358 103.5195966   2.1733935  13.8739992  42.5654990  82.5629997
  14.5199992  42.2364990  83.1879997  14.3839992  43.0824990  81.9399997
  14.0314392  42.5903710  82.5643248  42.1849992 104.2694990  13.9449997
  42.2549992 104.9204990  14.6439997  41.2939992 104.3724990  13.6099997
  42.0741690 104.3724261  13.9953026  48.9699992 110.1714990   5.6039997
  49.4439992 110.4674990   6.3809997  48.4069992 110.9104990   5.3709997
  48.9587890 110.3118047   5.6788084  43.5039992 110.1424990  15.4799997
  43.5119992 110.0064990  14.5329997  42.5879992 110.0254990  15.7319997
  43.3812528 110.1080475  15.3843226  54.9419992  95.1854990   1.9809997
  54.0419992  95.3234990   2.2769997  55.1939992  96.0164990   1.5799997
  54.8527727  95.3168705   1.9672935  43.0079992 103.9724990   3.9549997
  42.7159992 104.7404990   3.4639997  42.3339992 103.3134990   3.7919997
  42.8768843 103.9884537   3.8657695  56.1319992 109.5514990   0.3579997
  56.2049992 110.4904990   0.5279997  57.0369992 109.2464990   0.3019997
  56.2644170 109.6388294   0.3737045  39.1009992 106.3354990  12.7699997
  38.5999992 106.3074990  11.9549997  39.1069992 105.4304990  13.0799997
  39.0331690 106.2092234  12.7002770  38.8519992 109.1164990   9.6539997
  39.7979992 108.9714990   9.6349997  38.7389992 109.9004990  10.1909997
  38.9663578 109.2026708   9.7240300  57.0489992 109.7824990  15.3369997
  56.9999992 108.8264990  15.2989997  56.2229992 110.0494990  15.7379997
  56.9305096 109.6878416  15.3860698  48.0279992 109.3564990  14.2129997
  48.1149992 110.1824990  14.6879997  47.1639992 109.0264990  14.4619997
  47.9231944 109.4249871  14.3116558   2.7719992  44.8314990  84.9239997
   3.4259992  44.2814990  85.3559997   2.7959992  44.5574990  84.0079997
   2.8647022  44.7192005  84.8591698  48.4419992 113.1284990   4.0189997
  48.3669992 113.0074990   3.0719997  48.4749992 114.0774990   4.1369997
  48.4362083 113.2402639   3.9054973  42.0959992 111.9174990   5.7999997
  42.2479992 111.5694990   6.6779997  41.2449992 111.5604990   5.5439997
  42.0018344 111.8215891   5.8856851  51.5439992 112.2824990   1.0209997
  51.9189992 111.5384990   0.5499997  51.5479992 112.0124990   1.9389997
  51.5958969 112.1440920   1.0806475  51.2129992 112.2084990   3.7699997
  50.2779992 112.3084990   3.9489997  51.4929992 111.4984990   4.3489997
  51.1229471 112.1262944   3.8726678  54.2009992 101.2754990  15.8169997
  53.7939992 101.7554990  15.0959997  54.2419992 100.3694990  15.5089997
  54.1508403 101.2187989  15.6767253  41.3499992 107.6594990  13.8129997
  41.5659992 107.2974990  14.6729997  40.4949992 107.2844990  13.6039997
  41.2639082 107.5593377  13.9022396  43.9689992  96.1294990   9.8089997
  43.1069992  96.0424990   9.4009997  43.9469992  96.9854990  10.2369997
  43.8480557  96.2333078   9.8110202  48.6319992  95.8514990  13.1839997
  49.0519992  95.4364990  13.9369997  47.6989992  95.6724990  13.3009997
  48.5633736  95.7704921  13.3028950  51.9579992  99.6064990  14.0369997
  51.4439992  99.4814990  14.8349997  51.8029992 100.5194990  13.7929997
  51.8667802  99.7127433  14.1131504  52.7209992 104.4674990  -0.2020003
  52.7629992 104.2454990  -1.1320003  53.5699992 104.8664990  -0.0120003
  52.8415253 104.4910510  -0.3036196   7.9279992  46.3814990  84.1399997
   8.5439992  45.8544990  84.6489997   7.3419992  45.7414990  83.7359997
   7.9330652  46.2228919  84.1550277  48.2939992  98.3434990   0.4689997
  48.0399992  98.3624990   1.3909997  48.0369992  97.4724990   0.1669997
  48.2244508  98.2283292   0.5544786  44.0599992 101.0944990  10.9039997
  43.4179992 101.0544990  11.6129997  44.0969992 102.0214990  10.6659997
  43.9771659 101.2142540  10.9688463  44.0569992 101.3154990   5.8159997
  43.1639992 100.9754990   5.7569997  44.5079992 100.9384990   5.0599997
  43.9957185 101.2180220   5.7057698  49.5929992 101.7314990   4.6329997
  49.1839992 102.5464990   4.3409997  50.3129992 101.5914990   4.0189997
  49.6344439 101.8240383   4.5100098  48.6949992 101.9074990  16.1209997
  48.1319992 101.2024990  16.4419997  49.5209992 101.7864990  16.5889997
  48.7296674 101.7947176  16.2281734  50.5969992 101.1774990   7.4469997
  50.4019992 101.7834990   6.7319997  50.7789992 100.3444990   7.0129997
  50.5949195 101.1477936   7.2904079  41.8099992 101.4154990  12.7709997
  41.7719992 101.8154990  13.6399997  41.3189992 100.5984990  12.8609997
  41.7384374 101.3598228  12.9020980  45.1759992  98.7894990  -0.4300003
  44.7449992  98.3444990   0.2989997  44.4579992  99.1604990  -0.9430003
  45.0199176  98.7787063  -0.3995087  38.4179992  98.5314990   6.6219997
  39.0489992  98.5024990   7.3409997  38.8679992  98.1064990   5.8909997
  38.5651082  98.4701269   6.6216307  39.6919992  99.2774990   2.0459997
  40.1669992  99.8684990   1.4609997  38.9749992  99.8074990   2.3929997
  39.6600406  99.4301011   2.0128495  18.9109992  43.0184990  89.6589997
  18.2219992  43.6764990  89.5639997  18.9259992  42.8204990  90.5959997
  18.8187756  43.0817614  89.7725795  49.8609992 102.8154990  12.1179997
  50.1849992 102.1844990  11.4749997  49.4209992 102.2814990  12.7789997
  49.8458707 102.6568261  12.1193195  46.6389992  98.7434990   6.9019997
  45.7279992  98.8004990   7.1909997  47.1439992  98.6834990   7.7129997
  46.5826873  98.7431838   7.0511190  41.4669992 100.3724990   5.7289997
  40.5779992 100.4714990   5.3889997  41.7629992  99.5304990   5.3829997
  41.3854001 100.2722473   5.6357318  45.1199992 100.3724990   3.3859997
  46.0519992 100.5014990   3.5639997  44.9049992 101.0414990   2.7359997
  45.2184472 100.4805817   3.3224873  51.0439992  97.9784990  10.1659997
  50.3669992  98.1094990  10.8299997  50.5579992  97.8234990   9.3559997
  50.8857265  97.9754665  10.1473380  43.7939992 101.5664990   0.9519997
  43.2519992 101.1874990   0.2609997  44.6279992 101.7614990   0.5239997
  43.8324390 101.5409091   0.7994374  54.3309992 113.6494990  16.4429997
  54.5309992 114.0734990  15.6089997  54.9869992 113.9934990  17.0499997
  54.4469937 113.7539993  16.4108645  41.9289992 106.1234990  16.0509997
  42.6609992 106.3784990  16.6129997  41.1489992 106.3284990  16.5669997
  41.9236526 106.1860438  16.1975168  47.9589992 101.5304990   8.7889997
  48.5229992 100.9844990   8.2419997  47.8109992 101.0094990   9.5779997
  48.0163037 101.3851798   8.8207212  42.9609992  97.6674990   5.2079997
  42.6429992  96.7644990   5.1719997  43.7419992  97.6694990   4.6549997
  43.0231079  97.5442240   5.1282908   4.9619992  41.3524990  88.2359997
   4.7429992  41.8824990  87.4699997   4.2939992  41.5784990  88.8839997
   4.8417271  41.4556508  88.2186206  46.5849992  99.9194990  11.2029997
  45.7499992 100.3734990  11.3139997  47.1089992 100.1954990  11.9549997
  46.5416072 100.0188960  11.3198118  47.1289992 106.1324990   2.8879997
  46.3839992 105.6244990   2.5659997  46.9949992 106.1814990   3.8339997
  47.0089334 106.0696144   2.9718892  54.2789992 105.2654990  11.6749997
  54.9209992 105.7214990  11.1309997  53.4489992 105.3784990  11.2119997
  54.2546536 105.3431813  11.5379579  51.0269992  98.9464990   1.0869997
  50.0879992  99.0574990   0.9359997  51.3239992  99.8024990   1.3939997
  50.9386136  99.0774977   1.1078568  48.6489992 106.3164990  14.1249997
  48.3029992 105.9344990  14.9319997  48.4489992 107.2494990  14.1959997
  48.5745987 106.3904013  14.2450443  51.7449992 100.8134990   2.7479997
  52.6369992 100.6754990   3.0669997  51.8019992 101.6044990   2.2109997
  51.8747380 100.9014777   2.7190981  42.2539992 105.4274990   8.6579997
  42.9989992 105.4244990   8.0559997  42.3319992 104.6034990   9.1389997
  42.3663366 105.3157395   8.6407412  49.2549992 107.5904990   1.9129997
  48.9599992 108.4174990   2.2949997  48.5519992 106.9714990   2.1099997
  49.1196379 107.6199182   1.9918636  39.2619992 103.8874990  13.9729997
  39.4849992 103.4694990  14.8039997  38.6599992 103.2754990  13.5499997
  39.2111513 103.7474617  14.0296722  46.2789992 103.4044990  16.1859997
  45.9829992 103.2394990  15.2899997  47.2099992 103.1844990  16.1749997
  46.3644401 103.3521891  16.0620189  12.3309992  50.8524990  81.7799997
  12.0349992  50.5294990  80.9289997  12.0069992  51.7524990  81.8219997
  12.2466501  50.9299058  81.6690893  50.8989992 108.7784990  14.0749997
  49.9979992 108.9614990  13.8079997  50.9329992 109.0374990  14.9959997
  50.7803861 108.8385245  14.1629517  56.6299992 101.0224990   2.4429997
  56.0759992 100.6264990   1.7699997  56.7309992 101.9334990   2.1649997
  56.5678589 101.0913904   2.3133839  56.5929992 106.8234990  15.2799997
  55.7419992 107.0614990  14.9119997  57.1839992 106.8064990  14.5259997
  56.5563831 106.8537623  15.1278448  54.9249992 109.8084990   2.9079997
  54.5529992 108.9834990   3.2169997  55.2029992 109.6254990   2.0099997
  54.9115807 109.6707031   2.8290063  52.0859992 104.6164990   9.9289997
  51.1579992 104.3854990   9.9019997  52.5369992 103.8394990   9.5989997
  52.0198165 104.4797785   9.8806772  44.6289992 108.9454990   6.0619997
  45.1559992 109.7184990   5.8619997  43.7489992 109.1694990   5.7599997
  44.5822121 109.0817344   5.9937460  40.3839992 103.8074990   0.6489997
  40.9999992 104.4344990   1.0289997  39.5219992 104.1234990   0.9209997
  40.3517678 103.9359423   0.7377192  46.0559992 106.6084990   5.6379997
  45.8149992 107.5334990   5.6799997  45.3159992 106.1494990   6.0349997
  45.9229463 106.6730969   5.6974279  46.5709992 110.7574990  11.9529997
  46.9339992 111.6114990  11.7199997  47.1029992 110.4654990  12.6939997
  46.6925141 110.8348907  12.0212079  44.7389992 111.6294990   5.1839997
  43.7899992 111.7354990   5.2349997  45.0909992 112.4504990   5.5279997
  44.6565647 111.7550029   5.2374882   7.5309992  49.0274990  88.5239997
   6.7909992  49.6264990  88.6269997   8.2449992  49.5814990  88.2079997
   7.5263288  49.1842368  88.4953787  50.1149992 106.8564990  11.6539997
  49.6889992 106.6284990  12.4799997  50.6959992 106.1174990  11.4719997
  50.1352088 106.7254393  11.7424454  52.3179992 107.7854990   0.7279997
  52.6709992 107.4054990   1.5319997  51.3689992 107.6914990   0.8149997
  52.2380956 107.7207867   0.8498005  52.7739992 111.4084990  14.1229997
  52.1719992 110.8524990  13.6279997  53.0549992 112.0754990  13.4969997
  52.7295757 111.4225755  13.9705657  56.8209992 112.2644990   0.9289997
  57.5649992 112.8504990   0.7889997  56.1269992 112.8334990   1.2619997
  56.8289809 112.4215830   0.9548572  40.8959992  98.6414990  13.5309997
  40.0029992  98.9794990  13.4629997  40.7969992  97.7854990  13.9489997
  40.7604752  98.5720986  13.5781644  53.1839992 106.4574990   2.9549997
  52.9069992 105.7294990   3.5109997  54.1109992 106.5764990   3.1599997
  53.2714419 106.3739436   3.0588264  40.5469992 110.4454990  11.9659997
  40.7639992 109.5134990  11.9349997  40.7939992 110.7204990  12.8489997
  40.6100948 110.3550976  12.0811268  45.3459992 108.4674990   1.6309997
  45.4929992 107.9474990   2.4209997  45.3429992 109.3744990   1.9379997
  45.3657102 108.5188964   1.7805907  41.7989992 105.7194990   2.1419997
  41.1129992 106.0724990   2.7089997  42.3219992 106.4824990   1.8949997
  41.7758402 105.8708912   2.1861783  49.6299992  98.3824990  12.4209997
  50.3289992  98.4564990  13.0709997  49.2499992  97.5174990  12.5749997
  49.6742662  98.2757050  12.5307412  15.6379992  41.8564990  84.5439997
  15.4229992  41.0904990  85.0759997  16.2939992  42.3284990  85.0569997
  15.6972451  41.8154472  84.6861699  50.4149992  98.0344990   3.5179997
  50.6349992  98.5054990   2.7139997  50.9729992  98.4284990   4.1879997
  50.5206044  98.1522946   3.4985207  48.0839992 110.1644990   2.3809997
  47.2669992 110.6614990   2.4329997  48.6129992 110.6404990   1.7399997
  48.0438125 110.2967000   2.3015289  47.6149992  99.7624990   4.3529997
  48.4269992 100.2664990   4.3989997  47.3699992  99.6174990   5.2669997
  47.6931091  99.8119366   4.4828552  48.1509992 100.7484990  13.5369997
  48.2699992 101.3224990  14.2939997  48.8059992 100.0604990  13.6519997
  48.2558684 100.7340205  13.6561656  48.4989992  96.8434990   5.2909997
  48.1519992  97.4604990   5.9349997  49.1569992  97.3444990   4.8089997
  48.5404430  96.9956860   5.3140046  45.4219992 111.2084990   2.3619997
  45.5829992 112.0084990   1.8619997  45.2249992 111.5154990   3.2469997
  45.4173906 111.3593690   2.4132316  44.1559992  97.9064990   1.9779997
  44.0729992  98.7944990   2.3249997  45.0459992  97.6414990   2.2099997
  44.2649331  97.9921177   2.0568067  54.3549992  98.6554990  14.3719997
  53.4389992  98.9174990  14.2849997  54.6909992  98.6524990  13.4759997
  54.2748499  98.6910174  14.2388748  52.9569992 102.4054990   8.4679997
  52.1599992 101.9904990   8.1399997  53.4019992 101.7154990   8.9589997
  52.9080367 102.2553372   8.4894897  42.4149992 108.3334990   1.0379997
  43.0069992 109.0334990   1.3149997  42.8739992 107.9004990   0.3189997
  42.5581652 108.3707686   0.9786515   4.5559992  43.2444990  86.1889997
   5.1689992  43.8774990  86.5619997   5.0679992  42.7724990  85.5319997
   4.7091680  43.2674006  86.1512830  40.7309992 100.9984990   0.1539997
  40.6859992 101.9374990   0.3329997  39.8429992 100.7624990  -0.1150003
  40.6048166 101.0951698   0.1421507  54.0439992 111.6614990  10.0899997
  53.8879992 112.3404990   9.4329997  54.9759992 111.7334990  10.2929997
  54.1487328 111.7641586  10.0275529  41.5389992  95.7794990   8.8269997
  41.3099992  95.8384990   7.8999997  41.0959992  94.9884990   9.1339997
  41.4477387  95.6806412   8.7415223  40.4689992 109.7204990   4.9879997
  39.6369992 110.1924990   5.0149997  41.0149992 110.2304990   4.3889997
  40.4288710 109.8540317   4.9107570  39.7579992 112.3324990  16.3179997
  40.2979992 112.1164990  17.0779997  39.2759992 111.5274990  16.1279997
  39.7668485 112.1940463  16.3964870  44.3549992 111.2524990  17.9379997
  45.1229992 110.7934990  18.2789997  44.3339992 111.0264990  17.0079997
  44.4572135 111.1591680  17.8589473  48.4469992 110.7604990  -0.6870003
  47.8029992 110.1294990  -0.3650003  49.2089992 110.2294990  -0.9180003
  48.4618708 110.6023171  -0.6741539  50.9319992 109.6324990  16.6669997
  50.5809992 108.7754990  16.9099997  51.6579992 109.7744990  17.2739997
  50.9821590 109.5345189  16.7822889  53.0509992 110.5774990  -0.4530003
  53.3339992 109.7824990  -0.0000003  53.7909992 110.8104990  -1.0140003
  53.1897295 110.5002349  -0.4668531  39.6649992 106.1434990  17.2719997
  39.8089992 105.2414990  16.9859997  38.8919992 106.4294990  16.7849997
  39.5802266 106.0586548  17.1670102   5.9379992  50.9924990  89.3109997
   5.9329992  51.8714990  88.9329997   5.0849992  50.9084990  89.7359997
   5.8219199  51.1015901  89.3166942  44.0059992 106.4864990  -0.5950003
  44.0699992 105.6924990  -0.0650003  44.6589992 106.3684990  -1.2850003
  44.1030483 106.3617496  -0.6156593  46.3199992 106.1124990  16.7049997
  45.9919992 106.3834990  15.8479997  46.4719992 105.1714990  16.6169997
  46.2956412 106.0224058  16.5757804  52.0549992 106.0284990  14.0879997
  52.7999992 106.6174990  13.9689997  51.2969992 106.6104990  14.1509997
  52.0545289 106.1877067  14.0802292  40.4969992 103.3434990  16.6919997
  40.9049992 102.4864990  16.5709997  40.2369992 103.3574990  17.6129997
  40.5177082 103.2280596  16.7999469  45.1549992 104.4594990   1.7109997
  44.6959992 103.9754990   2.3959997  45.4099992 103.7904990   1.0749997
  45.1265997 104.3028491   1.7188734  44.4439992 102.3524990  14.0669997
  43.8259992 103.0264990  14.3469997  44.7879992 102.6734990  13.2329997
  44.4058078 102.4882298  13.9926609  46.2259992 102.7024990  -0.0270003
  46.0459992 102.5474990  -0.9540003  47.1759992 102.8104990   0.0179997
  46.3297804 102.6958821  -0.1478034  49.4639992 104.8234990  17.3439997
  50.4169992 104.9074990  17.3169997  49.3039992 104.1114990  17.9629997
  49.5727320 104.7387292  17.4239933  55.6159992 105.0564990  -0.5810003
  55.3429992 104.6324990  -1.3940003  55.6559992 105.9884990  -0.7980003
  55.5840201 105.1243523  -0.7216452  44.7839992  99.7074990  15.1489997
  44.9339992  98.9784990  14.5469997  44.7859992 100.4844990  14.5899997
  44.8047967  99.7127720  14.9910523  15.6849992  52.2844990  86.8059997
  14.7429992  52.3434990  86.9669997  15.9609992  53.1904990  86.6689997
  15.5935771  52.4150270  86.8094827  45.1959992  98.0764990  12.6419997
  45.7319992  98.5284990  11.9899997  44.3439992  97.9684990  12.2189997
  45.1541795  98.1237444  12.4956211  46.7779992 103.5164990  12.8809997
  47.5289992 103.3604990  12.3079997  46.4389992 104.3684990  12.6059997
  46.8349587 103.6103149  12.7654060  51.1939992 101.3314990  17.9099997
  51.3859992 100.4004990  17.7979997  52.0509992 101.7564990  17.8989997
  51.3362176 101.2615090  17.8931757  52.5099992 104.1204990  15.9869997
  52.2289992 104.8294990  15.4089997  53.4529992 104.0474990  15.8359997
  52.5989272 104.2076704  15.8874976  43.2619992 100.9054990  17.0599997
  42.4949992 100.3724990  16.8499997  43.9409992 100.5954990  16.4609997
  43.2488292 100.7906360  16.9502693  46.0019992  95.5334990  13.0729997
  45.9039992  96.4794990  12.9679997  45.2589992  95.1604990  12.5969997
  45.8882123  95.6126811  12.9943204  47.2659992  99.8544990  16.6369997
  47.0299992  99.6354990  17.5379997  46.4829992  99.6474990  16.1269997
  47.1278382  99.7965340  16.6913991  49.9819992  98.9824990  15.7119997
  49.0339992  99.0144990  15.8439997  50.2939992  98.3564990  16.3659997
  49.8945293  98.9022934  15.8184130  51.6159992  97.6164990  17.7169997
  51.5189992  96.6644990  17.7119997  51.2939992  97.8844990  18.5779997
  51.5592468  97.5225896  17.8326192  41.4429992  98.8254990  16.7649997
  41.6539992  98.1194990  16.1549997  41.3309992  98.3884990  17.6089997
  41.4567668  98.6696619  16.7955445  15.9849992  40.5714990  88.2229997
  15.2489992  41.1814990  88.1849997  16.6689992  40.9864990  87.6969997
  15.9765885  40.7111924  88.1466931  46.2239992  94.8274990  15.7439997
  46.9349992  94.1874990  15.7299997  46.1229992  95.0934990  14.8309997
  46.3076858  94.7758591  15.6185501  46.5769992  96.5094990  17.7979997
  46.4459992  96.0344990  16.9779997  45.9779992  97.2544990  17.7429997
  46.4780829  96.5450949  17.6781823  46.1239992 113.3924990   0.9739997
  47.0569992 113.5504990   1.1179997  45.8589992 114.0684990   0.3489997
  46.2159846 113.5054567   0.9092930  39.6919992 108.0294990   0.4569997
  40.6059992 108.1084990   0.7299997  39.6989992 107.3424990  -0.2090003
  39.8180624 107.9474074   0.4043045  38.3409992 113.4224990   5.5339997
  37.6939992 112.9604990   5.0019997  38.6959992 112.7504990   6.1169997
  38.3003741 113.2684785   5.5399157  39.2109992 111.5024990   7.3389997
  38.8769992 110.6224990   7.5109997  39.4329992 111.8484990   8.2039997
  39.1952565 111.4287410   7.4794263  56.7599992 112.3124990  10.3199997
  56.7379992 112.4974990  11.2579997  57.4499992 112.8804990   9.9789997
  56.8503383 112.4147104  10.4024580  56.3229992 111.8794990  13.2409997
  55.8359992 111.1434990  12.8699997  56.8719992 111.4854990  13.9189997
  56.3306101 111.7256267  13.2819034  54.7739992 107.6694990  17.8789997
  53.9079992 107.5644990  18.2739997  55.1499992 108.4274990  18.3259997
  54.7064940 107.7576141  17.9933958  56.0749992 105.9254990   3.3939997
  56.9249992 106.3464990   3.5209997  56.0799992 105.1854990   4.0009997
  56.1921143 105.8831106   3.4934732   8.9879992  38.6574990  85.6889997
   8.8709992  37.7094990  85.6349997   8.1329992  38.9904990  85.9619997
   8.8563691  38.5725842  85.7185072  56.4689992 103.9794990   5.2169997
  55.7429992 103.4994990   5.6149997  57.0499992 104.1844990   5.9489997
  56.4482504 103.9415592   5.3704199  56.2279992 106.7644990  10.1649997
  57.0619992 106.3864990   9.8839997  56.3399992 107.7074990  10.0459997
  56.3571917 106.8402954  10.1104844  54.7139992 109.6424990  12.4719997
  54.0669992 109.9674990  13.0969997  54.1969992 109.2014990  11.7979997
  54.5554112 109.6274133  12.4665272  56.7369992 103.8804990   1.6079997
  56.2159992 104.2364990   0.8899997  56.7039992 104.5554990   2.2869997
  56.6610955 104.0205023   1.6012634  55.0859992 101.1194990   0.1589997
  55.1829992 101.7864990  -0.5210003  54.9459992 100.3044990  -0.3220003
  55.0803407 101.1005670   0.0008312  54.2559992 102.5004990   5.7799997
  54.1059992 101.5554990   5.7599997  53.9019992 102.7814990   6.6239997
  54.1876351 102.4091656   5.8913202  39.2909992 104.5784990   9.7909997
  39.4749992 104.4964990   8.8549997  40.1399992 104.4544990  10.2139997
  39.4310132 104.5505066   9.7201460  55.1119992 104.4704990  15.4189997
  55.6949992 103.7354990  15.6109997  55.6759992 105.2424990  15.4659997
  55.2679781 104.4743156  15.4516146  56.6089992 102.3734990  16.1039997
  55.7449992 101.9944990  15.9379997  57.2129992 101.6344990  16.0289997
  56.5725394 102.2218378  16.0711778  53.9659992 100.0824990   4.2429997
  54.2459992  99.1754990   4.3669997  54.7249992 100.5164990   3.8539997
  54.1069258 100.0170935   4.2073691  13.9369992  54.0654990  83.4309997
  14.3619992  53.3584990  82.9459997  14.2539992  54.8674990  83.0139997
  14.0380266  54.0770201  83.3082461  54.5779992 100.6644990   9.6789997
  55.5109992 100.8764990   9.6439997  54.3429992 100.7654990  10.6009997
  54.6739517 100.7071844   9.7989113  54.6069992 101.4014990  12.4549997
  53.7639992 101.6694990  12.8199997  55.0499992 102.2234990  12.2439997
  54.5514035 101.5493351  12.4764770  38.8879992  99.8484990  15.9309997
  39.8079992  99.7264990  16.1679997  38.4389992  99.0984990  16.3209997
  38.9530500  99.7304576  16.0161016  56.8899992  95.3814990  17.8079997
  57.2399992  94.7274990  17.2019997  57.0369992  96.2184990  17.3679997
  56.9577192  95.4052545  17.6656712  54.5799992  97.3454990   4.2909997
  54.7619992  96.8964990   5.1159997  53.9799992  96.7614990   3.8269997
  54.5238187  97.2050563   4.3412721  40.1099992  98.1614990   8.8229997
  40.5549992  97.3694990   9.1249997  40.5759992  98.8774990   9.2529997
  40.2339718  98.1499546   8.9225247  38.4139992 101.1604990   9.8919997
  38.9059992 100.9394990   9.1009997  38.7759992 102.0004990  10.1729997
  38.5302923 101.2438480   9.8217389  56.4099992  97.4904990  16.1569997
  55.4929992  97.7614990  16.1209997  56.5329992  96.9554990  15.3729997
  56.3010828  97.4552711  16.0460767  56.4459992  97.4134990   0.8189997
  56.8589992  96.6924990   0.3439997  57.1279992  98.0824990   0.8769997
  56.5946060  97.4053741   0.7619233  38.7269992  97.4184990   3.9459997
  37.8019992  97.6264990   3.8169997  39.1809992  97.9024990   3.2559997
  38.6616298  97.5124311   3.8350433  15.0959992  51.9664990  81.9399997
  14.8389992  51.2764990  81.3279997  15.1669992  51.5234990  82.7849997
  15.0704322  51.8121568  81.9705372  53.4979992 112.4024990   5.8919997
  54.1499992 112.0544990   5.2839997  54.0089992 112.8904990   6.5379997
  53.6562872 112.4208248   5.8960964  38.6909992  96.1564990  12.2899997
  38.0259992  95.9104990  12.9329997  38.2479992  96.7784990  11.7129997
  38.5401168  96.2069225  12.2999830  40.8829992 109.3314990  16.4349997
  40.0619992 109.5064990  15.9739997  40.6309992 109.2584990  17.3549997
  40.7365594 109.3455728  16.4963593  43.8369992 110.3054990  12.6929997
  43.4119992 111.1154990  12.4109997  44.7409992 110.3914990  12.3909997
  43.9010706 110.4279557  12.6135836  48.1479992 111.7044990  15.6529997
  48.3329992 111.3714990  16.5309997  48.9949992 112.0144990  15.3309997
  48.2877291 111.7008214  15.7296140  50.4929992 112.9904990  14.8969997
  51.1699992 112.3574990  14.6569997  50.8149992 113.3914990  15.7039997
  50.6291618 112.9581147  14.9732802  55.4109992  95.5804990  13.9759997
  54.5979992  95.9054990  13.5889997  55.6439992  94.8194990  13.4429997
  55.3311347  95.5221891  13.8509824  41.2389992 113.5624990  12.7409997
  40.5179992 114.0024990  12.2899997  40.8729992 113.3114990  13.5889997
  41.0909632 113.5887235  12.7939649  43.7059992 113.1624990  11.7699997
  42.8409992 113.2344990  12.1739997  43.6509992 113.7094990  10.9869997
  43.5802289 113.2463242  11.7193749  48.4169992 113.0504990  10.9459997
  47.9599992 113.5794990  10.2919997  48.5789992 113.6534990  11.6709997
  48.3763919 113.2043990  10.9545740  16.7819992  50.5334990  90.4169997
  16.9219992  49.9414990  89.6779997  16.9499992  51.4064990  90.0609997
  16.8238734  50.5704041  90.2676937  50.7439992 111.9284990  11.8909997
  49.8399992 112.0934990  11.6249997  51.1729992 112.7814990  11.8249997
  50.6782017 112.0664184  11.8456495  53.3479992 113.4984990  12.1859997
  53.1669992 114.4144990  11.9749997  53.5249992 113.0874990  11.3389997
  53.3471377 113.5683365  12.0427178  40.6539992 112.1854990   9.6509997
  40.6349992 111.7594990  10.5079997  41.4579992 111.8664990   9.2419997
  40.7601393 112.0840297   9.7130155  42.7949992 110.8954990   8.3059997
  42.5759992 109.9784990   8.4759997  43.6189992 111.0354990   8.7719997
  42.8764702 110.7890523   8.3922510  45.3319992 111.3654990   9.1549997
  45.5449992 110.4774990   8.8679997  45.3969992 111.3304990  10.1089997
  45.3699149 111.2393338   9.2447351  48.8409992  97.0294990   8.2989997
  48.1659992  96.3994990   8.5549997  49.4049992  96.5454990   7.6959997
  48.8249363  96.8778886   8.2524810  53.9829992  95.1364990   8.4119997
  54.5869992  95.6844990   7.9099997  53.1139992  95.4554990   8.1709997
  53.9480419  95.2545628   8.3107741  55.7099992  96.2754990   6.7449997
  56.3219992  95.7614990   6.2179997  56.0929992  97.1524990   6.7679997
  55.8453867  96.3237613   6.6760888  41.1669992  95.6634990   6.1209997
  40.3899992  95.4284990   5.6139997  41.6979992  94.8664990   6.1299997
  41.1323735  95.5236462   6.0528090  40.0039992  95.4614990   1.9249997
  40.4429992  96.0724990   1.3329997  39.3699992  95.9994990   2.3989997
  39.9783859  95.6179076   1.9080287  11.2549992  47.4954990  80.1889997
  10.5429992  48.0304990  79.8379997  11.9459992  47.5504990  79.5289997
  11.2508696  47.5762591  80.0516372  45.7469992  95.5894990   5.9339997
  46.6209992  95.9784990   5.9049997  45.6109992  95.3744990   6.8569997
  45.8481953  95.6136654   6.0547599  51.3029992  95.6194990   7.5839997
  51.3799992  95.7154990   6.6339997  51.0279992  94.7124990   7.7119997
  51.2763233  95.5099093   7.4713665  52.6569992  95.6454990   3.2759997
  51.9539992  96.2604990   3.0659997  52.2119992  94.8084990   3.4069997
  52.5006550  95.6164679   3.2649819  39.9049992 111.4094990   2.8219997
  39.2199992 111.3714990   2.1549997  39.9079992 112.3214990   3.1099997
  39.8116806 111.5276669   2.7696961  41.8649992  97.3774990   0.3669997
  42.3559992  96.7474990  -0.1600003  42.4879992  97.6734990   1.0299997
  42.0165304  97.3312387   0.3844922  46.8909992  97.6704990   2.8239997
  47.0689992  97.0234990   3.5069997  46.8369992  98.5044990   3.2909997
  46.9080678  97.6946615   2.9806283  48.7689992 112.6184990   1.2199997
  49.6349992 112.9854990   1.0419997  48.5219992 112.1794990   0.4059997
  48.8541853 112.6094021   1.0855813  55.4779992 112.1814990   3.8989997
  55.2839992 111.4334990   3.3339997  55.4389992 112.9394990   3.3159997
  55.4461645 112.1815797   3.7428131  41.1249992  96.1774990  15.6389997
  40.7589992  95.4114990  16.0809997  42.0379992  96.2064990  15.9249997
  41.1983172  96.0765335  15.7381872  43.0979992  95.5274990  17.1739997
  43.9969992  95.2534990  16.9899997  42.7119992  94.7854990  17.6389997
  43.1687307  95.3897207  17.2117080  18.6239992  46.8734990  88.4829997
  17.9719992  47.5674990  88.5719997  19.0889992  47.0834990  87.6729997
  18.5975357  46.9969544  88.3857056  41.7229992 112.3294990  -0.1530003
  41.4549992 112.6154990   0.7209997  42.4939992 111.7834990  -0.0000003
  41.7905926 112.2947790  -0.0128812  51.5189992  94.8604990  17.3569997
  51.5959992  94.4344990  18.2099997  52.4129992  94.8734990  17.0139997
  51.6503263  94.8039345  17.4274366  54.6959992 110.9324990  16.0489997
  53.9139992 110.7464990  15.5289997  54.6239992 111.8624990  16.2659997
  54.5792975 111.0326973  16.0071823  69.1019992 104.8194990   6.0799997
  69.1909992 105.7634990   5.9469997  68.4629992 104.5444990   5.4219997
  69.0278378 104.9113846   5.9729258  68.0349992 104.0744990   9.4989997
  67.9959992 103.4284990  10.2039997  67.7119992 103.6074990   8.7269997
  67.9860469 103.9230005   9.4912803  60.4029992 103.6884990  11.0919997
  60.4439992 103.0634990  11.8149997  61.1059992 104.3124990  11.2739997
  60.5036223 103.6872318  11.2156164  71.7409992 107.0134990   7.7999997
  71.2999992 106.2934990   8.2509997  71.7279992 107.7344990   8.4299997
  71.6789215 107.0124303   7.9468088  61.3269992 108.1384990   9.6269997
  60.9569992 107.3364990   9.2569997  62.2679992 107.9704990   9.6729997
  61.4035984 108.0059649   9.5825586  57.9369992 101.7984990   5.0189997
  57.4889992 102.6444990   5.0009997  57.3759992 101.2194990   4.5039997
  57.7998546 101.8359004   4.9468874  58.6469992 103.9604990   7.1449997
  58.8609992 103.1904990   7.6719997  59.3849992 104.0504990   6.5419997
  58.7760073 103.8673546   7.1355786  14.6609992  47.7044990  81.1409997
  13.9289992  47.9334990  81.7139997  15.1079992  46.9914990  81.5959997
  14.6212753  47.6393984  81.2809698  68.8519992 112.1174990   8.0119997
  69.4719992 111.4414990   7.7389997  68.6439992 111.8994990   8.9209997
  68.9087679 111.9955032   8.0974518  66.4239992 106.5064990   9.9049997
  66.7279992 105.8204990   9.3099997  67.1459992 106.6254990  10.5229997
  66.5631240 106.4287325   9.9070941  75.0869992  98.1084990  10.7649997
  75.1359992  98.7184990  11.5009997  75.5129992  98.5694990  10.0419997
  75.1512851  98.2543266  10.7680532  69.5649992 100.9004990  10.2319997
  69.7069992  99.9544990  10.2519997  69.4589992 101.1074990   9.3039997
  69.5701051 100.7989706  10.1092249  62.7199992  99.0024990   7.5049997
  62.7629992  99.8624990   7.0859997  62.2619992  98.4494990   6.8709997
  62.6640163  99.0454174   7.3620604  70.4419992  99.1334990   5.9049997
  71.0879992  98.8044990   6.5299997  70.9519992  99.6504990   5.2829997
  70.5994289  99.1584333   5.9063681  59.3399992 101.3994990   8.2669997
  59.9939992 100.8494990   8.6989997  59.3639992 101.1254990   7.3499997
  59.4327199 101.2872178   8.2021650  64.4959992 102.9494990   7.4819997
  65.1119992 102.4224990   7.9909997  63.9099992 102.3094990   7.0779997
  64.5010652 102.7908919   7.4970277  75.4789992  99.5864990  13.0009997
  74.7899992 100.2444990  12.9059997  75.4939992  99.3884990  13.9379997
  75.3867756  99.6497614  13.1145795  61.5299992  97.9204990  11.5789997
  61.3109992  98.4504990  10.8119997  60.8619992  98.1464990  12.2259997
  61.4096975  98.0235979  11.5615123  14.5579992  45.8794990  90.2089997
  14.6379992  46.6424990  90.7809997  13.9569992  46.1584990  89.5179997
  14.4877115  46.0217707  90.1939631  68.8989992 107.4204990   5.1229997
  68.6029992 107.0974990   4.2709997  68.5749992 108.3204990   5.1639997
  68.8147458 107.4979678   5.0120598  64.0989992 105.5954990  11.8659997
  63.3589992 106.1944990  11.9699997  64.8129992 106.1494990  11.5499997
  64.0943146 105.7522611  11.8375150  72.2059992  98.4244990   7.8859997
  71.9909992  97.6584990   8.4189997  72.8619992  98.8964990   8.3989997
  72.2652673  98.3835739   8.0281972  61.1239992  99.8124990   9.5309997
  61.7369992 100.4454990   9.9039997  61.6359992  99.3404990   8.8749997
  61.2771933  99.8353380   9.4933477  62.5059992 107.5604990  12.6529997
  62.5009992 108.4394990  12.2749997  61.6529992 107.4764990  13.0779997
  62.3899199 107.6695901  12.6586942  58.6279992 107.2314990   3.4349997
  58.3559992 107.4604990   2.5459997  58.6729992 108.0684990   3.8959997
  58.5968360 107.3761034   3.3756186  72.2529992 108.8524990  10.1479997
  71.3109992 108.9114990  10.3099997  72.5289992 109.7584990  10.0109997
  72.1615865 108.9830299  10.1516174  72.5529992  97.1394990  11.5649997
  71.8169992  97.7494990  11.5279997  73.2369992  97.5544990  11.0389997
  72.5445367  97.2792562  11.4888156  65.5559992  95.2254990   9.0309997
  65.4389992  94.2774990   8.9769997  64.7009992  95.5584990   9.3039997
  65.4243691  95.1405842   9.0605072  70.5049992 110.6334990   6.7729997
  70.9299992 109.9264990   6.2879997  70.8219992 111.4354990   6.3559997
  70.6060266 110.6450201   6.6502461   6.3059992  48.3354990  83.0239997
   5.9759992  47.9644990  82.2049997   6.8939992  47.6644990  83.3699997
   6.3404056  48.1941257  82.9589035  71.6639992 108.5344990   5.2819997
  71.4069992 107.8444990   4.6699997  71.7349992 108.0914990   6.1269997
  71.6384322 108.3801568   5.3125372  73.3499992 107.1014990  13.7589997
  73.4899992 106.5094990  13.0199997  73.5179992 107.9744990  13.4029997
  73.3918734 107.1384041  13.6096937  67.8229992 104.0634990   3.5319997
  67.1109992 104.5984990   3.1799997  68.5139992 104.1184990   2.8719997
  67.8189704 104.1441663   3.3945797  67.8769992 102.5204990   0.5699997
  68.5779992 102.5434990   1.2219997  68.1789992 101.8924990  -0.0860003
  68.0138202 102.4387223   0.5705591  75.1919992 103.4414990  11.8249997
  74.5399992 104.1354990  11.9139997  75.6569992 103.6514990  11.0149997
  75.1655357 103.5649544  11.7277056  71.2289992 104.2724990   4.4829997
  70.4969992 104.5014990   5.0559997  71.6759992 103.5594990   4.9379997
  71.1892753 104.2073984   4.6229698  71.1259992 102.4474990  13.5509997
  71.2059992 103.2104990  14.1229997  70.5249992 102.7264990  12.8609997
  71.0556547 102.5897468  13.5360029  62.8739992 104.9034990   6.3659997
  62.5439992 104.5324990   5.5479997  63.4619992 104.2324990   6.7129997
  62.9083182 104.7620648   6.3009898  64.2409992 108.3314990   9.0469997
  64.1459992 107.7524990   8.2909997  64.9699992 107.9604990   9.5429997
  64.3266011 108.2020572   9.0106011  63.2409992 103.6714990   9.9989997
  63.8059992 103.7934990   9.2369997  63.5589992 104.3094990  10.6379997
  63.3613619 103.7744388   9.9810019   7.6729992  51.7634990  85.7049997
   7.5779992  51.1844990  84.9479997   8.4019992  51.3924990  86.2009997
   7.7586161  51.6340902  85.6685191  69.5499992 109.1754990  10.7329997
  69.3089992 109.8374990  11.3809997  69.3519992 108.3404990  11.1579997
  69.4902662 109.1532704  10.8791008  64.1209992 108.0714990  14.7169997
  63.8089992 108.8534990  15.1719997  63.4709992 107.9184990  14.0309997
  63.9904858 108.1577882  14.6865344  70.0999992 103.4354990   2.1689997
  70.6789992 103.5854990   2.9149997  70.5139992 103.9054990   1.4449997
  70.2353358 103.5195966   2.1733935  61.0409992 104.2694990  13.9449997
  61.1109992 104.9204990  14.6439997  60.1499992 104.3724990  13.6099997
  60.9301690 104.3724261  13.9953026  67.8259992 110.1714990   5.6039997
  68.2999992 110.4674990   6.3809997  67.2629992 110.9104990   5.3709997
  67.8147890 110.3118047   5.6788084  62.3599992 110.1424990  15.4799997
  62.3679992 110.0064990  14.5329997  61.4439992 110.0254990  15.7319997
  62.2372528 110.1080475  15.3843226  73.7979992  95.1854990   1.9809997
  72.8979992  95.3234990   2.2769997  74.0499992  96.0164990   1.5799997
  73.7087727  95.3168705   1.9672935  61.8639992 103.9724990   3.9549997
  61.5719992 104.7404990   3.4639997  61.1899992 103.3134990   3.7919997
  61.7328843 103.9884537   3.8657695  74.9879992 109.5514990   0.3579997
  75.0609992 110.4904990   0.5279997  75.8929992 109.2464990   0.3019997
  75.1204170 109.6388294   0.3737045  57.9569992 106.3354990  12.7699997
  57.4559992 106.3074990  11.9549997  57.9629992 105.4304990  13.0799997
  57.8891690 106.2092234  12.7002770   6.6729992  47.1034990  86.6569997
   7.2379992  47.2254990  85.8939997   6.9909992  47.7414990  87.2959997
   6.7933430  47.2064448  86.6389094  57.7079992 109.1164990   9.6539997
  58.6539992 108.9714990   9.6349997  57.5949992 109.9004990  10.1909997
  57.8223578 109.2026708   9.7240300  75.9049992 109.7824990  15.3369997
  75.8559992 108.8264990  15.2989997  75.0789992 110.0494990  15.7379997
  75.7865096 109.6878416  15.3860698  66.8839992 109.3564990  14.2129997
  66.9709992 110.1824990  14.6879997  66.0199992 109.0264990  14.4619997
  66.7791944 109.4249871  14.3116558  67.2979992 113.1284990   4.0189997
  67.2229992 113.0074990   3.0719997  67.3309992 114.0774990   4.1369997
  67.2922083 113.2402639   3.9054973  60.9519992 111.9174990   5.7999997
  61.1039992 111.5694990   6.6779997  60.1009992 111.5604990   5.5439997
  60.8578344 111.8215891   5.8856851  70.3999992 112.2824990   1.0209997
  70.7749992 111.5384990   0.5499997  70.4039992 112.0124990   1.9389997
  70.4518969 112.1440920   1.0806475  70.0689992 112.2084990   3.7699997
  69.1339992 112.3084990   3.9489997  70.3489992 111.4984990   4.3489997
  69.9789471 112.1262944   3.8726678  73.0569992 101.2754990  15.8169997
  72.6499992 101.7554990  15.0959997  73.0979992 100.3694990  15.5089997
  73.0068403 101.2187989  15.6767253  60.2059992 107.6594990  13.8129997
  60.4219992 107.2974990  14.6729997  59.3509992 107.2844990  13.6039997
  60.1199082 107.5593377  13.9022396  62.8249992  96.1294990   9.8089997
  61.9629992  96.0424990   9.4009997  62.8029992  96.9854990  10.2369997
  62.7040557  96.2333078   9.8110202  12.9819992  52.6074990  87.3909997
  12.7409992  53.2694990  88.0389997  12.7839992  51.7724990  87.8159997
  12.9222662  52.5852704  87.5371008  67.4879992  95.8514990  13.1839997
  67.9079992  95.4364990  13.9369997  66.5549992  95.6724990  13.3009997
  67.4193736  95.7704921  13.3028950  70.8139992  99.6064990  14.0369997
  70.2999992  99.4814990  14.8349997  70.6589992 100.5194990  13.7929997
  70.7227802  99.7127433  14.1131504  71.5769992 104.4674990  -0.2020003
  71.6189992 104.2454990  -1.1320003  72.4259992 104.8664990  -0.0120003
  71.6975253 104.4910510  -0.3036196  67.1499992  98.3434990   0.4689997
  66.8959992  98.3624990   1.3909997  66.8929992  97.4724990   0.1669997
  67.0804508  98.2283292   0.5544786  62.9159992 101.0944990  10.9039997
  62.2739992 101.0544990  11.6129997  62.9529992 102.0214990  10.6659997
  62.8331659 101.2142540  10.9688463  62.9129992 101.3154990   5.8159997
  62.0199992 100.9754990   5.7569997  63.3639992 100.9384990   5.0599997
  62.8517185 101.2180220   5.7057698  68.4489992 101.7314990   4.6329997
  68.0399992 102.5464990   4.3409997  69.1689992 101.5914990   4.0189997
  68.4904439 101.8240383   4.5100098  67.5509992 101.9074990  16.1209997
  66.9879992 101.2024990  16.4419997  68.3769992 101.7864990  16.5889997
  67.5856674 101.7947176  16.2281734  69.4529992 101.1774990   7.4469997
  69.2579992 101.7834990   6.7319997  69.6349992 100.3444990   7.0129997
  69.4509195 101.1477936   7.2904079  60.6659992 101.4154990  12.7709997
  60.6279992 101.8154990  13.6399997  60.1749992 100.5984990  12.8609997
  60.5944374 101.3598228  12.9020980   7.5529992  51.5034990  91.3739997
   7.2409992  52.2854990  91.8299997   6.9029992  51.3504990  90.6879997
   7.4224643  51.5898019  91.3436657  64.0319992  98.7894990  -0.4300003
  63.6009992  98.3444990   0.2989997  63.3139992  99.1604990  -0.9430003
  63.8759176  98.7787063  -0.3995087  57.2739992  98.5314990   6.6219997
  57.9049992  98.5024990   7.3409997  57.7239992  98.1064990   5.8909997
  57.4211082  98.4701269   6.6216307  58.5479992  99.2774990   2.0459997
  59.0229992  99.8684990   1.4609997  57.8309992  99.8074990   2.3929997
  58.5160406  99.4301011   2.0128495  68.7169992 102.8154990  12.1179997
  69.0409992 102.1844990  11.4749997  68.2769992 102.2814990  12.7789997
  68.7018707 102.6568261  12.1193195  65.4949992  98.7434990   6.9019997
  64.5839992  98.8004990   7.1909997  65.9999992  98.6834990   7.7129997
  65.4386873  98.7431838   7.0511190  60.3229992 100.3724990   5.7289997
  59.4339992 100.4714990   5.3889997  60.6189992  99.5304990   5.3829997
  60.2414001 100.2722473   5.6357318  63.9759992 100.3724990   3.3859997
  64.9079992 100.5014990   3.5639997  63.7609992 101.0414990   2.7359997
  64.0744472 100.4805817   3.3224873  69.8999992  97.9784990  10.1659997
  69.2229992  98.1094990  10.8299997  69.4139992  97.8234990   9.3559997
  69.7417265  97.9754665  10.1473380  62.6499992 101.5664990   0.9519997
  62.1079992 101.1874990   0.2609997  63.4839992 101.7614990   0.5239997
  62.6884390 101.5409091   0.7994374  73.1869992 113.6494990  16.4429997
  73.3869992 114.0734990  15.6089997  73.8429992 113.9934990  17.0499997
  73.3029937 113.7539993  16.4108645  13.5319992  46.8674990  78.8259997
  14.1109992  47.0174990  79.5729997  13.9459992  47.3374990  78.1029997
  13.6673122  46.9516288  78.8305024  60.7849992 106.1234990  16.0509997
  61.5169992 106.3784990  16.6129997  60.0049992 106.3284990  16.5669997
  60.7796526 106.1860438  16.1975168  66.8149992 101.5304990   8.7889997
  67.3789992 100.9844990   8.2419997  66.6669992 101.0094990   9.5779997
  66.8723037 101.3851798   8.8207212  61.8169992  97.6674990   5.2079997
  61.4989992  96.7644990   5.1719997  62.5979992  97.6694990   4.6549997
  61.8791079  97.5442240   5.1282908  65.4409992  99.9194990  11.2029997
  64.6059992 100.3734990  11.3139997  65.9649992 100.1954990  11.9549997
  65.3976072 100.0188960  11.3198118  65.9849992 106.1324990   2.8879997
  65.2399992 105.6244990   2.5659997  65.8509992 106.1814990   3.8339997
  65.8649334 106.0696144   2.9718892  73.1349992 105.2654990  11.6749997
  73.7769992 105.7214990  11.1309997  72.3049992 105.3784990  11.2119997
  73.1106536 105.3431813  11.5379579  69.8829992  98.9464990   1.0869997
  68.9439992  99.0574990   0.9359997  70.1799992  99.8024990   1.3939997
  69.7946136  99.0774977   1.1078568  67.5049992 106.3164990  14.1249997
  67.1589992 105.9344990  14.9319997  67.3049992 107.2494990  14.1959997
  67.4305987 106.3904013  14.2450443  70.6009992 100.8134990   2.7479997
  71.4929992 100.6754990   3.0669997  70.6579992 101.6044990   2.2109997
  70.7307380 100.9014777   2.7190981  61.1099992 105.4274990   8.6579997
  61.8549992 105.4244990   8.0559997  61.1879992 104.6034990   9.1389997
  61.2223365 105.3157395   8.6407412   4.4729992  47.7014990  90.6029997
   4.5429992  48.3524990  91.3009997   3.5819992  47.8044990  90.2679997
   4.3621802  47.8044769  90.6532231  68.1109992 107.5904990   1.9129997
  67.8159992 108.4174990   2.2949997  67.4079992 106.9714990   2.1099997
  67.9756379 107.6199182   1.9918636  58.1179992 103.8874990  13.9729997
  58.3409992 103.4694990  14.8039997  57.5159992 103.2754990  13.5499997
  58.0671513 103.7474617  14.0296722  65.1349992 103.4044990  16.1859997
  64.8389992 103.2394990  15.2899997  66.0659992 103.1844990  16.1749997
  65.2204401 103.3521891  16.0620189  69.7549992 108.7784990  14.0749997
  68.8539992 108.9614990  13.8079997  69.7889992 109.0374990  14.9959997
  69.6363861 108.8385245  14.1629517  75.4859992 101.0224990   2.4429997
  74.9319992 100.6264990   1.7699997  75.5869992 101.9334990   2.1649997
  75.4238589 101.0913904   2.3133839  75.4489992 106.8234990  15.2799997
  74.5979992 107.0614990  14.9119997  76.0399992 106.8064990  14.5259997
  75.4123831 106.8537623  15.1278448  73.7809992 109.8084990   2.9079997
  73.4089992 108.9834990   3.2169997  74.0589992 109.6254990   2.0099997
  73.7675807 109.6707031   2.8290063  70.9419992 104.6164990   9.9289997
  70.0139992 104.3854990   9.9019997  71.3929992 103.8394990   9.5989997
  70.8758165 104.4797785   9.8806772  63.4849992 108.9454990   6.0619997
  64.0119992 109.7184990   5.8619997  62.6049992 109.1694990   5.7599997
  63.4382121 109.0817344   5.9937460  59.2399992 103.8074990   0.6489997
  59.8559992 104.4344990   1.0289997  58.3779992 104.1234990   0.9209997
  59.2077678 103.9359423   0.7377192  11.2579992  53.6034990  82.2619997
  11.7319992  53.8994990  83.0389997  10.6949992  54.3424990  82.0279997
  11.2468460  53.7438336  82.3367626  64.9119992 106.6084990   5.6379997
  64.6709992 107.5334990   5.6799997  64.1719992 106.1494990   6.0349997
  64.7789463 106.6730969   5.6974279  65.4269992 110.7574990  11.9529997
  65.7899992 111.6114990  11.7199997  65.9589992 110.4654990  12.6939997
  65.5485141 110.8348907  12.0212079  63.5949992 111.6294990   5.1839997
  62.6459992 111.7354990   5.2349997  63.9469992 112.4504990   5.5279997
  63.5125647 111.7550029   5.2374882  68.9709992 106.8564990  11.6539997
  68.5449992 106.6284990  12.4799997  69.5519992 106.1174990  11.4719997
  68.9912088 106.7254393  11.7424454  71.1739992 107.7854990   0.7279997
  71.5269992 107.4054990   1.5319997  70.2249992 107.6914990   0.8149997
  71.0940956 107.7207867   0.8498005  71.6299992 111.4084990  14.1229997
  71.0279992 110.8524990  13.6279997  71.9109992 112.0754990  13.4969997
  71.5855757 111.4225755  13.9705657  75.6769992 112.2644990   0.9289997
  76.4209992 112.8504990   0.7889997  74.9829992 112.8334990   1.2619997
  75.6849809 112.4215830   0.9548572  59.7519992  98.6414990  13.5309997
  58.8589992  98.9794990  13.4629997  59.6529992  97.7854990  13.9489997
  59.6164752  98.5720986  13.5781644  72.0399992 106.4574990   2.9549997
  71.7629992 105.7294990   3.5109997  72.9669992 106.5764990   3.1599997
  72.1274419 106.3739436   3.0588264  59.4029992 110.4454990  11.9659997
  59.6199992 109.5134990  11.9349997  59.6499992 110.7204990  12.8489997
  59.4660948 110.3550976  12.0811268   5.7919992  53.5744990  92.1379997
   5.7999992  53.4384990  91.1899997   4.8759992  53.4574990  92.3899997
   5.6692512  53.5400663  92.0423179  64.2019992 108.4674990   1.6309997
  64.3489992 107.9474990   2.4209997  64.1989992 109.3744990   1.9379997
  64.2217102 108.5188964   1.7805907  60.6549992 105.7194990   2.1419997
  59.9689992 106.0724990   2.7089997  61.1779992 106.4824990   1.8949997
  60.6318402 105.8708912   2.1861783  68.4859992  98.3824990  12.4209997
  69.1849992  98.4564990  13.0709997  68.1059992  97.5174990  12.5749997
  68.5302662  98.2757050  12.5307412  69.2709992  98.0344990   3.5179997
  69.4909992  98.5054990   2.7139997  69.8289992  98.4284990   4.1879997
  69.3766044  98.1522946   3.4985207  66.9399992 110.1644990   2.3809997
  66.1229992 110.6614990   2.4329997  67.4689992 110.6404990   1.7399997
  66.8998125 110.2967000   2.3015289  66.4709992  99.7624990   4.3529997
  67.2829992 100.2664990   4.3989997  66.2259992  99.6174990   5.2669997
  66.5491091  99.8119366   4.4828552  67.0069992 100.7484990  13.5369997
  67.1259992 101.3224990  14.2939997  67.6619992 100.0604990  13.6519997
  67.1118684 100.7340205  13.6561656  67.3549992  96.8434990   5.2909997
  67.0079992  97.4604990   5.9349997  68.0129992  97.3444990   4.8089997
  67.3964430  96.9956860   5.3140046  64.2779992 111.2084990   2.3619997
  64.4389992 112.0084990   1.8619997  64.0809992 111.5154990   3.2469997
  64.2733906 111.3593690   2.4132316  63.0119992  97.9064990   1.9779997
  62.9289992  98.7944990   2.3249997  63.9019992  97.6414990   2.2099997
  63.1209331  97.9921177   2.0568067  17.2299992  38.6174990  78.6389997
  16.3299992  38.7554990  78.9339997  17.4819992  39.4484990  78.2369997
  17.1407355  38.7488200  78.6250539  73.2109992  98.6554990  14.3719997
  72.2949992  98.9174990  14.2849997  73.5469992  98.6524990  13.4759997
  73.1308499  98.6910174  14.2388748  71.8129992 102.4054990   8.4679997
  71.0159992 101.9904990   8.1399997  72.2579992 101.7154990   8.9589997
  71.7640367 102.2553372   8.4894897  61.2709992 108.3334990   1.0379997
  61.8629992 109.0334990   1.3149997  61.7299992 107.9004990   0.3189997
  61.4141652 108.3707686   0.9786515  59.5869992 100.9984990   0.1539997
  59.5419992 101.9374990   0.3329997  58.6989992 100.7624990  -0.1150003
  59.4608166 101.0951698   0.1421507  72.8999992 111.6614990  10.0899997
  72.7439992 112.3404990   9.4329997  73.8319992 111.7334990  10.2929997
  73.0047328 111.7641586  10.0275529  60.3949992  95.7794990   8.8269997
  60.1659992  95.8384990   7.8999997  59.9519992  94.9884990   9.1339997
  60.3037387  95.6806412   8.7415223  59.3249992 109.7204990   4.9879997
  58.4929992 110.1924990   5.0149997  59.8709992 110.2304990   4.3889997
  59.2848710 109.8540317   4.9107570  58.6139992 112.3324990  16.3179997
  59.1539992 112.1164990  17.0779997  58.1319992 111.5274990  16.1279997
  58.6228485 112.1940463  16.3964870  63.2109992 111.2524990  17.9379997
  63.9789992 110.7934990  18.2789997  63.1899992 111.0264990  17.0079997
  63.3132135 111.1591680  17.8589473  67.3029992 110.7604990  -0.6870003
  66.6589992 110.1294990  -0.3650003  68.0649992 110.2294990  -0.9180003
  67.3178708 110.6023171  -0.6741539   5.2959992  47.4044990  80.6129997
   5.0039992  48.1724990  80.1219997   4.6219992  46.7454990  80.4499997
   5.1648843  47.4204537  80.5237695  69.7879992 109.6324990  16.6669997
  69.4369992 108.7754990  16.9099997  70.5139992 109.7744990  17.2739997
  69.8381590 109.5345189  16.7822889  71.9069992 110.5774990  -0.4530003
  72.1899992 109.7824990  -0.0000003  72.6469992 110.8104990  -1.0140003
  72.0457295 110.5002349  -0.4668531  58.5209992 106.1434990  17.2719997
  58.6649992 105.2414990  16.9859997  57.7479992 106.4294990  16.7849997
  58.4362266 106.0586548  17.1670102  62.8619992 106.4864990  -0.5950003
  62.9259992 105.6924990  -0.0650003  63.5149992 106.3684990  -1.2850003
  62.9590483 106.3617496  -0.6156593  65.1759992 106.1124990  16.7049997
  64.8479992 106.3834990  15.8479997  65.3279992 105.1714990  16.6169997
  65.1516412 106.0224058  16.5757804  70.9109992 106.0284990  14.0879997
  71.6559992 106.6174990  13.9689997  70.1529992 106.6104990  14.1509997
  70.9105289 106.1877067  14.0802292  59.3529992 103.3434990  16.6919997
  59.7609992 102.4864990  16.5709997  59.0929992 103.3574990  17.6129997
  59.3737082 103.2280596  16.7999469  64.0109992 104.4594990   1.7109997
  63.5519992 103.9754990   2.3959997  64.2659992 103.7904990   1.0749997
  63.9825997 104.3028491   1.7188734  63.2999992 102.3524990  14.0669997
  62.6819992 103.0264990  14.3469997  63.6439992 102.6734990  13.2329997
  63.2618078 102.4882298  13.9926609  65.0819992 102.7024990  -0.0270003
  64.9019992 102.5474990  -0.9540003  66.0319992 102.8104990   0.0179997
  65.1857804 102.6958821  -0.1478034  18.4199992  52.9834990  77.0159997
  18.4929992  53.9224990  77.1859997  19.3249992  52.6784990  76.9589997
  18.5524168  53.0708531  77.0315736  68.3199992 104.8234990  17.3439997
  69.2729992 104.9074990  17.3169997  68.1599992 104.1114990  17.9629997
  68.4287320 104.7387292  17.4239933  74.4719992 105.0564990  -0.5810003
  74.1989992 104.6324990  -1.3940003  74.5119992 105.9884990  -0.7980003
  74.4400201 105.1243523  -0.7216452  63.6399992  99.7074990  15.1489997
  63.7899992  98.9784990  14.5469997  63.6419992 100.4844990  14.5899997
  63.6607967  99.7127720  14.9910523  64.0519992  98.0764990  12.6419997
  64.5879992  98.5284990  11.9899997  63.1999992  97.9684990  12.2189997
  64.0101795  98.1237444  12.4956211  65.6339992 103.5164990  12.8809997
  66.3849992 103.3604990  12.3079997  65.2949992 104.3684990  12.6059997
  65.6909587 103.6103149  12.7654060  70.0499992 101.3314990  17.9099997
  70.2419992 100.4004990  17.7979997  70.9069992 101.7564990  17.8989997
  70.1922176 101.2615090  17.8931757  71.3659992 104.1204990  15.9869997
  71.0849992 104.8294990  15.4089997  72.3089992 104.0474990  15.8359997
  71.4549272 104.2076704  15.8874976  62.1179992 100.9054990  17.0599997
  61.3509992 100.3724990  16.8499997  62.7969992 100.5954990  16.4609997
  62.1048292 100.7906360  16.9502693  64.8579992  95.5334990  13.0729997
  64.7599992  96.4794990  12.9679997  64.1149992  95.1604990  12.5969997
  64.7442123  95.6126811  12.9943204  66.1219992  99.8544990  16.6369997
  65.8859992  99.6354990  17.5379997  65.3389992  99.6474990  16.1269997
  65.9838382  99.7965340  16.6913991   1.3889992  49.7674990  89.4279997
   0.8879992  49.7394990  88.6129997   1.3949992  48.8624990  89.7379997
   1.3211690  49.6412234  89.3582770  68.8379992  98.9824990  15.7119997
  67.8899992  99.0144990  15.8439997  69.1499992  98.3564990  16.3659997
  68.7505293  98.9022934  15.8184130  70.4719992  97.6164990  17.7169997
  70.3749992  96.6644990  17.7119997  70.1499992  97.8844990  18.5779997
  70.4152468  97.5225896  17.8326192  60.2989992  98.8254990  16.7649997
  60.5099992  98.1194990  16.1549997  60.1869992  98.3884990  17.6089997
  60.3127668  98.6696619  16.7955445  65.0799992  94.8274990  15.7439997
  65.7909992  94.1874990  15.7299997  64.9789992  95.0934990  14.8309997
  65.1636858  94.7758591  15.6185501  65.4329992  96.5094990  17.7979997
  65.3019992  96.0344990  16.9779997  64.8339992  97.2544990  17.7429997
  65.3340829  96.5450949  17.6781823  64.9799992 113.3924990   0.9739997
  65.9129992 113.5504990   1.1179997  64.7149992 114.0684990   0.3489997
  65.0719846 113.5054567   0.9092930  58.5479992 108.0294990   0.4569997
  59.4619992 108.1084990   0.7299997  58.5549992 107.3424990  -0.2090003
  58.6740624 107.9474074   0.4043045  57.1969992 113.4224990   5.5339997
  56.5499992 112.9604990   5.0019997  57.5519992 112.7504990   6.1169997
  57.1563741 113.2684785   5.5399157  58.0669992 111.5024990   7.3389997
  57.7329992 110.6224990   7.5109997  58.2889992 111.8484990   8.2039997
  58.0512565 111.4287410   7.4794263  75.6159992 112.3124990  10.3199997
  75.5939992 112.4974990  11.2579997  76.3059992 112.8804990   9.9789997
  75.7063383 112.4147104  10.4024580   1.1399992  52.5484990  86.3119997
   2.0859992  52.4034990  86.2929997   1.0269992  53.3324990  86.8489997
   1.2543578  52.6346708  86.3820300  75.1789992 111.8794990  13.2409997
  74.6919992 111.1434990  12.8699997  75.7279992 111.4854990  13.9189997
  75.1866101 111.7256267  13.2819034  73.6299992 107.6694990  17.8789997
  72.7639992 107.5644990  18.2739997  74.0059992 108.4274990  18.3259997
  73.5624940 107.7576141  17.9933958  74.9309992 105.9254990   3.3939997
  75.7809992 106.3464990   3.5209997  74.9359992 105.1854990   4.0009997
  75.0481143 105.8831106   3.4934732  75.3249992 103.9794990   5.2169997
  74.5989992 103.4994990   5.6149997  75.9059992 104.1844990   5.9489997
  75.3042504 103.9415592   5.3704199  75.0839992 106.7644990  10.1649997
  75.9179992 106.3864990   9.8839997  75.1959992 107.7074990  10.0459997
  75.2131917 106.8402954  10.1104844  73.5699992 109.6424990  12.4719997
  72.9229992 109.9674990  13.0969997  73.0529992 109.2014990  11.7979997
  73.4114112 109.6274133  12.4665272  75.5929992 103.8804990   1.6079997
  75.0719992 104.2364990   0.8899997  75.5599992 104.5554990   2.2869997
  75.5170955 104.0205023   1.6012634  73.9419992 101.1194990   0.1589997
  74.0389992 101.7864990  -0.5210003  73.8019992 100.3044990  -0.3220003
  73.9363407 101.1005670   0.0008312  73.1119992 102.5004990   5.7799997
  72.9619992 101.5554990   5.7599997  72.7579992 102.7814990   6.6239997
  73.0436351 102.4091656   5.8913202  58.1469992 104.5784990   9.7909997
  58.3309992 104.4964990   8.8549997  58.9959992 104.4544990  10.2139997
  58.2870132 104.5505066   9.7201460  19.3369992  53.2144990  91.9939997
  19.2879992  52.2584990  91.9569997  18.5109992  53.4814990  92.3959997
  19.2185767  53.1198841  92.0433133  73.9679992 104.4704990  15.4189997
  74.5509992 103.7354990  15.6109997  74.5319992 105.2424990  15.4659997
  74.1239781 104.4743156  15.4516146  75.4649992 102.3734990  16.1039997
  74.6009992 101.9944990  15.9379997  76.0689992 101.6344990  16.0289997
  75.4285394 102.2218378  16.0711778  72.8219992 100.0824990   4.2429997
  73.1019992  99.1754990   4.3669997  73.5809992 100.5164990   3.8539997
  72.9629258 100.0170935   4.2073691  73.4339992 100.6644990   9.6789997
  74.3669992 100.8764990   9.6439997  73.1989992 100.7654990  10.6009997
  73.5299517 100.7071844   9.7989113  73.4629992 101.4014990  12.4549997
  72.6199992 101.6694990  12.8199997  73.9059992 102.2234990  12.2439997
  73.4074035 101.5493351  12.4764770  57.7439992  99.8484990  15.9309997
  58.6639992  99.7264990  16.1679997  57.2949992  99.0984990  16.3209997
  57.8090500  99.7304576  16.0161016  75.7459992  95.3814990  17.8079997
  76.0959992  94.7274990  17.2019997  75.8929992  96.2184990  17.3679997
  75.8137192  95.4052545  17.6656712  73.4359992  97.3454990   4.2909997
  73.6179992  96.8964990   5.1159997  72.8359992  96.7614990   3.8269997
  73.3798187  97.2050563   4.3412721  58.9659992  98.1614990   8.8229997
  59.4109992  97.3694990   9.1249997  59.4319992  98.8774990   9.2529997
  59.0899718  98.1499546   8.9225247  57.2699992 101.1604990   9.8919997
  57.7619992 100.9394990   9.1009997  57.6319992 102.0004990  10.1729997
  57.3862923 101.2438480   9.8217389  10.3159992  52.7884990  90.8699997
  10.4029992  53.6144990  91.3449997   9.4519992  52.4584990  91.1189997
  10.2111944  52.8569871  90.9686558  75.2659992  97.4904990  16.1569997
  74.3489992  97.7614990  16.1209997  75.3889992  96.9554990  15.3729997
  75.1570828  97.4552711  16.0460767  75.3019992  97.4134990   0.8189997
  75.7149992  96.6924990   0.3439997  75.9839992  98.0824990   0.8769997
  75.4506060  97.4053741   0.7619233  57.5829992  97.4184990   3.9459997
  56.6579992  97.6264990   3.8169997  58.0369992  97.9024990   3.2559997
  57.5176298  97.5124311   3.8350433  72.3539992 112.4024990   5.8919997
  73.0059992 112.0544990   5.2839997  72.8649992 112.8904990   6.5379997
  72.5122872 112.4208248   5.8960964  57.5469992  96.1564990  12.2899997
  56.8819992  95.9104990  12.9329997  57.1039992  96.7784990  11.7129997
  57.3961168  96.2069225  12.2999830  59.7389992 109.3314990  16.4349997
  58.9179992 109.5064990  15.9739997  59.4869992 109.2584990  17.3549997
  59.5925594 109.3455728  16.4963593  62.6929992 110.3054990  12.6929997
  62.2679992 111.1154990  12.4109997  63.5969992 110.3914990  12.3909997
  62.7570706 110.4279557  12.6135836  67.0039992 111.7044990  15.6529997
  67.1889992 111.3714990  16.5309997  67.8509992 112.0144990  15.3309997
  67.1437291 111.7008214  15.7296140  69.3489992 112.9904990  14.8969997
  70.0259992 112.3574990  14.6569997  69.6709992 113.3914990  15.7039997
  69.4851618 112.9581147  14.9732802  74.2669992  95.5804990  13.9759997
  73.4539992  95.9054990  13.5889997  74.4999992  94.8194990  13.4429997
  74.1871347  95.5221891  13.8509824  10.7299992  56.5604990  80.6759997
  10.6549992  56.4394990  79.7299997  10.7629992  57.5094990  80.7949997
  10.7241862  56.6722492  80.5624840  60.0949992 113.5624990  12.7409997
  59.3739992 114.0024990  12.2899997  59.7289992 113.3114990  13.5889997
  59.9469632 113.5887235  12.7939649  62.5619992 113.1624990  11.7699997
  61.6969992 113.2344990  12.1739997  62.5069992 113.7094990  10.9869997
  62.4362289 113.2463242  11.7193749  67.2729992 113.0504990  10.9459997
  66.8159992 113.5794990  10.2919997  67.4349992 113.6534990  11.6709997
  67.2323919 113.2043990  10.9545740  69.5999992 111.9284990  11.8909997
  68.6959992 112.0934990  11.6249997  70.0289992 112.7814990  11.8249997
  69.5342017 112.0664184  11.8456495  72.2039992 113.4984990  12.1859997
  72.0229992 114.4144990  11.9749997  72.3809992 113.0874990  11.3389997
  72.2031377 113.5683365  12.0427178  59.5099992 112.1854990   9.6509997
  59.4909992 111.7594990  10.5079997  60.3139992 111.8664990   9.2419997
  59.6161393 112.0840297   9.7130155  61.6509992 110.8954990   8.3059997
  61.4319992 109.9784990   8.4759997  62.4749992 111.0354990   8.7719997
  61.7324702 110.7890523   8.3922510  64.1879992 111.3654990   9.1549997
  64.4009992 110.4774990   8.8679997  64.2529992 111.3304990  10.1089997
  64.2259149 111.2393338   9.2447351  67.6969992  97.0294990   8.2989997
  67.0219992  96.3994990   8.5549997  68.2609992  96.5454990   7.6959997
  67.6809363  96.8778886   8.2524810  72.8389992  95.1364990   8.4119997
  73.4429992  95.6844990   7.9099997  71.9699992  95.4554990   8.1709997
  72.8040419  95.2545628   8.3107741   4.3839992  55.3494990  82.4569997
   4.5359992  55.0014990  83.3359997   3.5329992  54.9924990  82.2019997
   4.2897899  55.2536749  82.5427322  74.5659992  96.2754990   6.7449997
  75.1779992  95.7614990   6.2179997  74.9489992  97.1524990   6.7679997
  74.7013867  96.3237613   6.6760888  60.0229992  95.6634990   6.1209997
  59.2459992  95.4284990   5.6139997  60.5539992  94.8664990   6.1299997
  59.9883735  95.5236462   6.0528090  58.8599992  95.4614990   1.9249997
  59.2989992  96.0724990   1.3329997  58.2259992  95.9994990   2.3989997
  58.8343859  95.6179076   1.9080287  64.6029992  95.5894990   5.9339997
  65.4769992  95.9784990   5.9049997  64.4669992  95.3744990   6.8569997
  64.7041953  95.6136654   6.0547599  70.1589992  95.6194990   7.5839997
  70.2359992  95.7154990   6.6339997  69.8839992  94.7124990   7.7119997
  70.1323233  95.5099093   7.4713665  71.5129992  95.6454990   3.2759997
  70.8099992  96.2604990   3.0659997  71.0679992  94.8084990   3.4069997
  71.3566550  95.6164679   3.2649819  58.7609992 111.4094990   2.8219997
  58.0759992 111.3714990   2.1549997  58.7639992 112.3214990   3.1099997
  58.6676806 111.5276669   2.7696961  60.7209992  97.3774990   0.3669997
  61.2119992  96.7474990  -0.1600003  61.3439992  97.6734990   1.0299997
  60.8725304  97.3312387   0.3844922  65.7469992  97.6704990   2.8239997
  65.9249992  97.0234990   3.5069997  65.6929992  98.5044990   3.2909997
  65.7640678  97.6946615   2.9806283  67.6249992 112.6184990   1.2199997
  68.4909992 112.9854990   1.0419997  67.3779992 112.1794990   0.4059997
  67.7101853 112.6094021   1.0855813  13.8319992  55.7144990  77.6789997
  14.2069992  54.9704990  77.2079997  13.8359992  55.4444990  78.5969997
  13.8838969  55.5760920  77.7386475  74.3339992 112.1814990   3.8989997
  74.1399992 111.4334990   3.3339997  74.2949992 112.9394990   3.3159997
  74.3021645 112.1815797   3.7428131  59.9809992  96.1774990  15.6389997
  59.6149992  95.4114990  16.0809997  60.8939992  96.2064990  15.9249997
  60.0543172  96.0765335  15.7381872  61.9539992  95.5274990  17.1739997
  62.8529992  95.2534990  16.9899997  61.5679992  94.7854990  17.6389997
  62.0247307  95.3897207  17.2117080  60.5789992 112.3294990  -0.1530003
  60.3109992 112.6154990   0.7209997  61.3499992 111.7834990  -0.0000003
  60.6465926 112.2947790  -0.0128812  70.3749992  94.8604990  17.3569997
  70.4519992  94.4344990  18.2099997  71.2689992  94.8734990  17.0139997
  70.5063263  94.8039345  17.4274366  73.5519992 110.9324990  16.0489997
  72.7699992 110.7464990  15.5289997  73.4799992 111.8624990  16.2659997
  73.4352975 111.0326973  16.0071823  87.9579992 104.8194990   6.0799997
  88.0469992 105.7634990   5.9469997  87.3189992 104.5444990   5.4219997
  87.8838378 104.9113846   5.9729258  86.8909992 104.0744990   9.4989997
  86.8519992 103.4284990  10.2039997  86.5679992 103.6074990   8.7269997
  86.8420469 103.9230005   9.4912803  79.2589992 103.6884990  11.0919997
  79.2999992 103.0634990  11.8149997  79.9619992 104.3124990  11.2739997
  79.3596223 103.6872318  11.2156164  90.5969992 107.0134990   7.7999997
  90.1559992 106.2934990   8.2509997  90.5839992 107.7344990   8.4299997
  90.5349215 107.0124303   7.9468088  13.5009992  55.6404990  80.4279997
  12.5659992  55.7404990  80.6069997  13.7809992  54.9304990  81.0059997
  13.4109270  55.5582300  80.5305984  80.1829992 108.1384990   9.6269997
  79.8129992 107.3364990   9.2569997  81.1239992 107.9704990   9.6729997
  80.2595984 108.0059649   9.5825586  76.7929992 101.7984990   5.0189997
  76.3449992 102.6444990   5.0009997  76.2319992 101.2194990   4.5039997
  76.6558546 101.8359004   4.9468874  77.5029992 103.9604990   7.1449997
  77.7169992 103.1904990   7.6719997  78.2409992 104.0504990   6.5419997
  77.6320073 103.8673546   7.1355786  87.7079992 112.1174990   8.0119997
  88.3279992 111.4414990   7.7389997  87.4999992 111.8994990   8.9209997
  87.7647679 111.9955032   8.0974518  85.2799992 106.5064990   9.9049997
  85.5839992 105.8204990   9.3099997  86.0019992 106.6254990  10.5229997
  85.4191240 106.4287325   9.9070941  93.9429992  98.1084990  10.7649997
  93.9919992  98.7184990  11.5009997  94.3689992  98.5694990  10.0419997
  94.0072851  98.2543266  10.7680532  88.4209992 100.9004990  10.2319997
  88.5629992  99.9544990  10.2519997  88.3149992 101.1074990   9.3039997
  88.4261051 100.7989706  10.1092249  81.5759992  99.0024990   7.5049997
  81.6189992  99.8624990   7.0859997  81.1179992  98.4494990   6.8709997
  81.5200163  99.0454174   7.3620604  89.2979992  99.1334990   5.9049997
  89.9439992  98.8044990   6.5299997  89.8079992  99.6504990   5.2829997
  89.4554289  99.1584333   5.9063681  78.1959992 101.3994990   8.2669997
  78.8499992 100.8494990   8.6989997  78.2199992 101.1254990   7.3499997
  78.2887199 101.2872178   8.2021650  16.4889992  44.7074990  92.4739997
  16.0819992  45.1874990  91.7539997  16.5299992  43.8014990  92.1669997
  16.4387178  44.6508609  92.3337441  83.3519992 102.9494990   7.4819997
  83.9679992 102.4224990   7.9909997  82.7659992 102.3094990   7.0779997
  83.3570652 102.7908919   7.4970277  94.3349992  99.5864990  13.0009997
  93.6459992 100.2444990  12.9059997  94.3499992  99.3884990  13.9379997
  94.2427756  99.6497614  13.1145795  80.3859992  97.9204990  11.5789997
  80.1669992  98.4504990  10.8119997  79.7179992  98.1464990  12.2259997
  80.2656975  98.0235979  11.5615123  87.7549992 107.4204990   5.1229997
  87.4589992 107.0974990   4.2709997  87.4309992 108.3204990   5.1639997
  87.6707458 107.4979678   5.0120598  82.9549992 105.5954990  11.8659997
  82.2149992 106.1944990  11.9699997  83.6689992 106.1494990  11.5499997
  82.9503146 105.7522611  11.8375150  91.0619992  98.4244990   7.8859997
  90.8469992  97.6584990   8.4189997  91.7179992  98.8964990   8.3989997
  91.1212673  98.3835739   8.0281972  79.9799992  99.8124990   9.5309997
  80.5929992 100.4454990   9.9039997  80.4919992  99.3404990   8.8749997
  80.1331933  99.8353380   9.4933477  81.3619992 107.5604990  12.6529997
  81.3569992 108.4394990  12.2749997  80.5089992 107.4764990  13.0779997
  81.2459199 107.6695901  12.6586942  77.4839992 107.2314990   3.4349997
  77.2119992 107.4604990   2.5459997  77.5289992 108.0684990   3.8959997
  77.4528360 107.3761034   3.3756186  91.1089992 108.8524990  10.1479997
  90.1669992 108.9114990  10.3099997  91.3849992 109.7584990  10.0109997
  91.0175865 108.9830299  10.1516174   3.6379992  51.0914990  90.4709997
   3.8539992  50.7294990  91.3309997   2.7829992  50.7164990  90.2609997
   3.5519349  50.9912914  90.5602134  91.4089992  97.1394990  11.5649997
  90.6729992  97.7494990  11.5279997  92.0929992  97.5544990  11.0389997
  91.4005367  97.2792562  11.4888156  84.4119992  95.2254990   9.0309997
  84.2949992  94.2774990   8.9769997  83.5569992  95.5584990   9.3039997
  84.2803691  95.1405842   9.0605072  89.3609992 110.6334990   6.7729997
  89.7859992 109.9264990   6.2879997  89.6779992 111.4354990   6.3559997
  89.4620266 110.6450201   6.6502461  90.5199992 108.5344990   5.2819997
  90.2629992 107.8444990   4.6699997  90.5909992 108.0914990   6.1269997
  90.4944322 108.3801568   5.3125372  92.2059992 107.1014990  13.7589997
  92.3459992 106.5094990  13.0199997  92.3739992 107.9744990  13.4029997
  92.2478734 107.1384041  13.6096937  86.6789992 104.0634990   3.5319997
  85.9669992 104.5984990   3.1799997  87.3699992 104.1184990   2.8719997
  86.6749704 104.1441663   3.3945797  86.7329992 102.5204990   0.5699997
  87.4339992 102.5434990   1.2219997  87.0349992 101.8924990  -0.0860003
  86.8698202 102.4387223   0.5705591  94.0479992 103.4414990  11.8249997
  93.3959992 104.1354990  11.9139997  94.5129992 103.6514990  11.0149997
  94.0215357 103.5649544  11.7277056  90.0849992 104.2724990   4.4829997
  89.3529992 104.5014990   5.0559997  90.5319992 103.5594990   4.9379997
  90.0452753 104.2073984   4.6229698  89.9819992 102.4474990  13.5509997
  90.0619992 103.2104990  14.1229997  89.3809992 102.7264990  12.8609997
  89.9116547 102.5897468  13.5360029   6.2569992  39.5614990  86.4669997
   5.3949992  39.4744990  86.0589997   6.2349992  40.4174990  86.8939997
   6.1360953  39.6653558  86.4689262  81.7299992 104.9034990   6.3659997
  81.3999992 104.5324990   5.5479997  82.3179992 104.2324990   6.7129997
  81.7643182 104.7620648   6.3009898  83.0969992 108.3314990   9.0469997
  83.0019992 107.7524990   8.2909997  83.8259992 107.9604990   9.5429997
  83.1826011 108.2020572   9.0106011  82.0969992 103.6714990   9.9989997
  82.6619992 103.7934990   9.2369997  82.4149992 104.3094990  10.6379997
  82.2173619 103.7744388   9.9810019  88.4059992 109.1754990  10.7329997
  88.1649992 109.8374990  11.3809997  88.2079992 108.3404990  11.1579997
  88.3462662 109.1532704  10.8791008  82.9769992 108.0714990  14.7169997
  82.6649992 108.8534990  15.1719997  82.3269992 107.9184990  14.0309997
  82.8464858 108.1577882  14.6865344  88.9559992 103.4354990   2.1689997
  89.5349992 103.5854990   2.9149997  89.3699992 103.9054990   1.4449997
  89.0913358 103.5195966   2.1733935  79.8969992 104.2694990  13.9449997
  79.9669992 104.9204990  14.6439997  79.0059992 104.3724990  13.6099997
  79.7861690 104.3724261  13.9953026  86.6819992 110.1714990   5.6039997
  87.1559992 110.4674990   6.3809997  86.1189992 110.9104990   5.3709997
  86.6707890 110.3118047   5.6788084  81.2159992 110.1424990  15.4799997
  81.2239992 110.0064990  14.5329997  80.2999992 110.0254990  15.7319997
  81.0932528 110.1080475  15.3843226  92.6539992  95.1854990   1.9809997
  91.7539992  95.3234990   2.2769997  92.9059992  96.0164990   1.5799997
  92.5647727  95.3168705   1.9672935  10.9199992  39.2834990  89.8409997
  11.3399992  38.8684990  90.5939997   9.9869992  39.1044990  89.9579997
  10.8513736  39.2024921  89.9598950  80.7199992 103.9724990   3.9549997
  80.4279992 104.7404990   3.4639997  80.0459992 103.3134990   3.7919997
  80.5888843 103.9884537   3.8657695  93.8439992 109.5514990   0.3579997
  93.9169992 110.4904990   0.5279997  94.7489992 109.2464990   0.3019997
  93.9764170 109.6388294   0.3737045  76.8129992 106.3354990  12.7699997
  76.3119992 106.3074990  11.9549997  76.8189992 105.4304990  13.0799997
  76.7451690 106.2092234  12.7002770  76.5639992 109.1164990   9.6539997
  77.5099992 108.9714990   9.6349997  76.4509992 109.9004990  10.1909997
  76.6783578 109.2026708   9.7240300  94.7609992 109.7824990  15.3369997
  94.7119992 108.8264990  15.2989997  93.9349992 110.0494990  15.7379997
  94.6425096 109.6878416  15.3860698  85.7399992 109.3564990  14.2129997
  85.8269992 110.1824990  14.6879997  84.8759992 109.0264990  14.4619997
  85.6351944 109.4249871  14.3116558  86.1539992 113.1284990   4.0189997
  86.0789992 113.0074990   3.0719997  86.1869992 114.0774990   4.1369997
  86.1482083 113.2402639   3.9054973  79.8079992 111.9174990   5.7999997
  79.9599992 111.5694990   6.6779997  78.9569992 111.5604990   5.5439997
  79.7138344 111.8215891   5.8856851  89.2559992 112.2824990   1.0209997
  89.6309992 111.5384990   0.5499997  89.2599992 112.0124990   1.9389997
  89.3078969 112.1440920   1.0806475  88.9249992 112.2084990   3.7699997
  87.9899992 112.3084990   3.9489997  89.2049992 111.4984990   4.3489997
  88.8349471 112.1262944   3.8726678  14.2459992  43.0384990  90.6949997
  13.7319992  42.9134990  91.4919997  14.0909992  43.9514990  90.4499997
  14.1546643  43.1447068  90.7710624  91.9129992 101.2754990  15.8169997
  91.5059992 101.7554990  15.0959997  91.9539992 100.3694990  15.5089997
  91.8628403 101.2187989  15.6767253  79.0619992 107.6594990  13.8129997
  79.2779992 107.2974990  14.6729997  78.2069992 107.2844990  13.6039997
  78.9759082 107.5593377  13.9022396  81.6809992  96.1294990   9.8089997
  80.8189992  96.0424990   9.4009997  81.6589992  96.9854990  10.2369997
  81.5600557  96.2333078   9.8110202  86.3439992  95.8514990  13.1839997
  86.7639992  95.4364990  13.9369997  85.4109992  95.6724990  13.3009997
  86.2753736  95.7704921  13.3028950  89.6699992  99.6064990  14.0369997
  89.1559992  99.4814990  14.8349997  89.5149992 100.5194990  13.7929997
  89.5787802  99.7127433  14.1131504  90.4329992 104.4674990  -0.2020003
  90.4749992 104.2454990  -1.1320003  91.2819992 104.8664990  -0.0120003
  90.5535253 104.4910510  -0.3036196  86.0059992  98.3434990   0.4689997
  85.7519992  98.3624990   1.3909997  85.7489992  97.4724990   0.1669997
  85.9364508  98.2283292   0.5544786  81.7719992 101.0944990  10.9039997
  81.1299992 101.0544990  11.6129997  81.8089992 102.0214990  10.6659997
  81.6891659 101.2142540  10.9688463  81.7689992 101.3154990   5.8159997
  80.8759992 100.9754990   5.7569997  82.2199992 100.9384990   5.0599997
  81.7077185 101.2180220   5.7057698  87.3049992 101.7314990   4.6329997
  86.8959992 102.5464990   4.3409997  88.0249992 101.5914990   4.0189997
  87.3464439 101.8240383   4.5100098  15.0089992  47.8994990  76.4559997
  15.0509992  47.6774990  75.5259997  15.8579992  48.2984990  76.6459997
  15.1295253  47.9230510  76.3543804  86.4069992 101.9074990  16.1209997
  85.8439992 101.2024990  16.4419997  87.2329992 101.7864990  16.5889997
  86.4416674 101.7947176  16.2281734  88.3089992 101.1774990   7.4469997
  88.1139992 101.7834990   6.7319997  88.4909992 100.3444990   7.0129997
  88.3069195 101.1477936   7.2904079  79.5219992 101.4154990  12.7709997
  79.4839992 101.8154990  13.6399997  79.0309992 100.5984990  12.8609997
  79.4504374 101.3598228  12.9020980  82.8879992  98.7894990  -0.4300003
  82.4569992  98.3444990   0.2989997  82.1699992  99.1604990  -0.9430003
  82.7319176  98.7787063  -0.3995087  76.1299992  98.5314990   6.6219997
  76.7609992  98.5024990   7.3409997  76.5799992  98.1064990   5.8909997
  76.2771082  98.4701269   6.6216307  77.4039992  99.2774990   2.0459997
  77.8789992  99.8684990   1.4609997  76.6869992  99.8074990   2.3929997
  77.3720406  99.4301011   2.0128495  87.5729992 102.8154990  12.1179997
  87.8969992 102.1844990  11.4749997  87.1329992 102.2814990  12.7789997
  87.5578707 102.6568261  12.1193195  84.3509992  98.7434990   6.9019997
  83.4399992  98.8004990   7.1909997  84.8559992  98.6834990   7.7129997
  84.2946873  98.7431838   7.0511190  79.1789992 100.3724990   5.7289997
  78.2899992 100.4714990   5.3889997  79.4749992  99.5304990   5.3829997
  79.0974001 100.2722473   5.6357318  82.8319992 100.3724990   3.3859997
  83.7639992 100.5014990   3.5639997  82.6169992 101.0414990   2.7359997
  82.9304472 100.4805817   3.3224873   6.3479992  44.5264990  87.5619997
   5.7059992  44.4864990  88.2709997   6.3849992  45.4534990  87.3239997
   6.2651659  44.6462540  87.6268463  88.7559992  97.9784990  10.1659997
  88.0789992  98.1094990  10.8299997  88.2699992  97.8234990   9.3559997
  88.5977265  97.9754665  10.1473380  81.5059992 101.5664990   0.9519997
  80.9639992 101.1874990   0.2609997  82.3399992 101.7614990   0.5239997
  81.5444390 101.5409091   0.7994374  92.0429992 113.6494990  16.4429997
  92.2429992 114.0734990  15.6089997  92.6989992 113.9934990  17.0499997
  92.1589937 113.7539993  16.4108645  79.6409992 106.1234990  16.0509997
  80.3729992 106.3784990  16.6129997  78.8609992 106.3284990  16.5669997
  79.6356526 106.1860438  16.1975168  85.6709992 101.5304990   8.7889997
  86.2349992 100.9844990   8.2419997  85.5229992 101.0094990   9.5779997
  85.7283037 101.3851798   8.8207212  80.6729992  97.6674990   5.2079997
  80.3549992  96.7644990   5.1719997  81.4539992  97.6694990   4.6549997
  80.7351079  97.5442240   5.1282908  84.2969992  99.9194990  11.2029997
  83.4619992 100.3734990  11.3139997  84.8209992 100.1954990  11.9549997
  84.2536072 100.0188960  11.3198118  84.8409992 106.1324990   2.8879997
  84.0959992 105.6244990   2.5659997  84.7069992 106.1814990   3.8339997
  84.7209334 106.0696144   2.9718892  91.9909992 105.2654990  11.6749997
  92.6329992 105.7214990  11.1309997  91.1609992 105.3784990  11.2119997
  91.9666536 105.3431813  11.5379579  88.7389992  98.9464990   1.0869997
  87.7999992  99.0574990   0.9359997  89.0359992  99.8024990   1.3939997
  88.6506136  99.0774977   1.1078568   6.3449992  44.7474990  82.4739997
   5.4519992  44.4074990  82.4149997   6.7959992  44.3704990  81.7179997
   6.2837185  44.6500220  82.3637698  86.3609992 106.3164990  14.1249997
  86.0149992 105.9344990  14.9319997  86.1609992 107.2494990  14.1959997
  86.2865987 106.3904013  14.2450443  89.4569992 100.8134990   2.7479997
  90.3489992 100.6754990   3.0669997  89.5139992 101.6044990   2.2109997
  89.5867380 100.9014777   2.7190981  79.9659992 105.4274990   8.6579997
  80.7109992 105.4244990   8.0559997  80.0439992 104.6034990   9.1389997
  80.0783365 105.3157395   8.6407412  86.9669992 107.5904990   1.9129997
  86.6719992 108.4174990   2.2949997  86.2639992 106.9714990   2.1099997
  86.8316379 107.6199182   1.9918636  76.9739992 103.8874990  13.9729997
  77.1969992 103.4694990  14.8039997  76.3719992 103.2754990  13.5499997
  76.9231513 103.7474617  14.0296722  83.9909992 103.4044990  16.1859997
  83.6949992 103.2394990  15.2899997  84.9219992 103.1844990  16.1749997
  84.0764401 103.3521891  16.0620189  88.6109992 108.7784990  14.0749997
  87.7099992 108.9614990  13.8079997  88.6449992 109.0374990  14.9959997
  88.4923861 108.8385245  14.1629517  94.3419992 101.0224990   2.4429997
  93.7879992 100.6264990   1.7699997  94.4429992 101.9334990   2.1649997
  94.2798589 101.0913904   2.3133839  94.3049992 106.8234990  15.2799997
  93.4539992 107.0614990  14.9119997  94.8959992 106.8064990  14.5259997
  94.2683831 106.8537623  15.1278448  92.6369992 109.8084990   2.9079997
  92.2649992 108.9834990   3.2169997  92.9149992 109.6254990   2.0099997
  92.6235807 109.6707031   2.8290063  11.8809992  45.1634990  81.2909997
  11.4719992  45.9784990  80.9989997  12.6009992  45.0234990  80.6759997
  11.9223946  45.2559963  81.1679616  89.7979992 104.6164990   9.9289997
  88.8699992 104.3854990   9.9019997  90.2489992 103.8394990   9.5989997
  89.7318165 104.4797785   9.8806772  82.3409992 108.9454990   6.0619997
  82.8679992 109.7184990   5.8619997  81.4609992 109.1694990   5.7599997
  82.2942121 109.0817344   5.9937460  78.0959992 103.8074990   0.6489997
  78.7119992 104.4344990   1.0289997  77.2339992 104.1234990   0.9209997
  78.0637678 103.9359423   0.7377192  83.7679992 106.6084990   5.6379997
  83.5269992 107.5334990   5.6799997  83.0279992 106.1494990   6.0349997
  83.6349463 106.6730969   5.6974279  84.2829992 110.7574990  11.9529997
  84.6459992 111.6114990  11.7199997  84.8149992 110.4654990  12.6939997
  84.4045141 110.8348907  12.0212079  82.4509992 111.6294990   5.1839997
  81.5019992 111.7354990   5.2349997  82.8029992 112.4504990   5.5279997
  82.3685647 111.7550029   5.2374882  87.8269992 106.8564990  11.6539997
  87.4009992 106.6284990  12.4799997  88.4079992 106.1174990  11.4719997
  87.8472088 106.7254393  11.7424454  90.0299992 107.7854990   0.7279997
  90.3829992 107.4054990   1.5319997  89.0809992 107.6914990   0.8149997
  89.9500956 107.7207867   0.8498005  90.4859992 111.4084990  14.1229997
  89.8839992 110.8524990  13.6279997  90.7669992 112.0754990  13.4969997
  90.4415757 111.4225755  13.9705657  94.5329992 112.2644990   0.9289997
  95.2769992 112.8504990   0.7889997  93.8389992 112.8334990   1.2619997
  94.5409809 112.4215830   0.9548572  10.9829992  45.3394990  92.7789997
  10.4199992  44.6344990  93.0989997  11.8089992  45.2184990  93.2459997
  11.0176423  45.2265614  92.8860168  78.6079992  98.6414990  13.5309997
  77.7149992  98.9794990  13.4629997  78.5089992  97.7854990  13.9489997
  78.4724752  98.5720986  13.5781644  90.8959992 106.4574990   2.9549997
  90.6189992 105.7294990   3.5109997  91.8229992 106.5764990   3.1599997
  90.9834419 106.3739436   3.0588264  78.2589992 110.4454990  11.9659997
  78.4759992 109.5134990  11.9349997  78.5059992 110.7204990  12.8489997
  78.3220948 110.3550976  12.0811268  83.0579992 108.4674990   1.6309997
  83.2049992 107.9474990   2.4209997  83.0549992 109.3744990   1.9379997
  83.0777102 108.5188964   1.7805907  79.5109992 105.7194990   2.1419997
  78.8249992 106.0724990   2.7089997  80.0339992 106.4824990   1.8949997
  79.4878402 105.8708912   2.1861783  87.3419992  98.3824990  12.4209997
  88.0409992  98.4564990  13.0709997  86.9619992  97.5174990  12.5749997
  87.3862662  98.2757050  12.5307412  88.1269992  98.0344990   3.5179997
  88.3469992  98.5054990   2.7139997  88.6849992  98.4284990   4.1879997
  88.2326044  98.1522946   3.4985207  85.7959992 110.1644990   2.3809997
  84.9789992 110.6614990   2.4329997  86.3249992 110.6404990   1.7399997
  85.7558125 110.2967000   2.3015289  85.3269992  99.7624990   4.3529997
  86.1389992 100.2664990   4.3989997  85.0819992  99.6174990   5.2669997
  85.4051091  99.8119366   4.4828552  85.8629992 100.7484990  13.5369997
  85.9819992 101.3224990  14.2939997  86.5179992 100.0604990  13.6519997
  85.9678684 100.7340205  13.6561656  12.8849992  44.6094990  84.1049997
  12.6899992  45.2154990  83.3899997  13.0669992  43.7764990  83.6699997
  12.8829272  44.5797955  83.9484075  86.2109992  96.8434990   5.2909997
  85.8639992  97.4604990   5.9349997  86.8689992  97.3444990   4.8089997
  86.2524430  96.9956860   5.3140046  83.1339992 111.2084990   2.3619997
  83.2949992 112.0084990   1.8619997  82.9369992 111.5154990   3.2469997
  83.1293906 111.3593690   2.4132316  81.8679992  97.9064990   1.9779997
  81.7849992  98.7944990   2.3249997  82.7579992  97.6414990   2.2099997
  81.9769331  97.9921177   2.0568067  92.0669992  98.6554990  14.3719997
  91.1509992  98.9174990  14.2849997  92.4029992  98.6524990  13.4759997
  91.9868499  98.6910174  14.2388748  90.6689992 102.4054990   8.4679997
  89.8719992 101.9904990   8.1399997  91.1139992 101.7154990   8.9589997
  90.6200367 102.2553372   8.4894897  80.1269992 108.3334990   1.0379997
  80.7189992 109.0334990   1.3149997  80.5859992 107.9004990   0.3189997
  80.2701652 108.3707686   0.9786515  78.4429992 100.9984990   0.1539997
  78.3979992 101.9374990   0.3329997  77.5549992 100.7624990  -0.1150003
  78.3168166 101.0951698   0.1421507  91.7559992 111.6614990  10.0899997
  91.5999992 112.3404990   9.4329997  92.6879992 111.7334990  10.2929997
  91.8607328 111.7641586  10.0275529  79.2509992  95.7794990   8.8269997
  79.0219992  95.8384990   7.8999997  78.8079992  94.9884990   9.1339997
  79.1597387  95.6806412   8.7415223  78.1809992 109.7204990   4.9879997
  77.3489992 110.1924990   5.0149997  78.7269992 110.2304990   4.3889997
  78.1408710 109.8540317   4.9107570   4.0979992  44.8474990  89.4289997
   4.0599992  45.2474990  90.2969997   3.6069992  44.0304990  89.5189997
   4.0264246  44.7918842  89.5601171  77.4699992 112.3324990  16.3179997
  78.0099992 112.1164990  17.0779997  76.9879992 111.5274990  16.1279997
  77.4788485 112.1940463  16.3964870  82.0669992 111.2524990  17.9379997
  82.8349992 110.7934990  18.2789997  82.0459992 111.0264990  17.0079997
  82.1692135 111.1591680  17.8589473  86.1589992 110.7604990  -0.6870003
  85.5149992 110.1294990  -0.3650003  86.9209992 110.2294990  -0.9180003
  86.1738708 110.6023171  -0.6741539  88.6439992 109.6324990  16.6669997
  88.2929992 108.7754990  16.9099997  89.3699992 109.7744990  17.2739997
  88.6941590 109.5345189  16.7822889  90.7629992 110.5774990  -0.4530003
  91.0459992 109.7824990  -0.0000003  91.5029992 110.8104990  -1.0140003
  90.9017295 110.5002349  -0.4668531  77.3769992 106.1434990  17.2719997
  77.5209992 105.2414990  16.9859997  76.6039992 106.4294990  16.7849997
  77.2922266 106.0586548  17.1670102  81.7179992 106.4864990  -0.5950003
  81.7819992 105.6924990  -0.0650003  82.3709992 106.3684990  -1.2850003
  81.8150483 106.3617496  -0.6156593  84.0319992 106.1124990  16.7049997
  83.7039992 106.3834990  15.8479997  84.1839992 105.1714990  16.6169997
  84.0076412 106.0224058  16.5757804  89.7669992 106.0284990  14.0879997
  90.5119992 106.6174990  13.9689997  89.0089992 106.6104990  14.1509997
  89.7665289 106.1877067  14.0802292  78.2089992 103.3434990  16.6919997
  78.6169992 102.4864990  16.5709997  77.9489992 103.3574990  17.6129997
  78.2297082 103.2280596  16.7999469   0.7059992  41.9634990  83.2789997
   1.3369992  41.9344990  83.9989997   1.1559992  41.5384990  82.5489997
   0.8530905  41.9020839  83.2787479  82.8669992 104.4594990   1.7109997
  82.4079992 103.9754990   2.3959997  83.1219992 103.7904990   1.0749997
  82.8385997 104.3028491   1.7188734  82.1559992 102.3524990  14.0669997
  81.5379992 103.0264990  14.3469997  82.4999992 102.6734990  13.2329997
  82.1178078 102.4882298  13.9926609  83.9379992 102.7024990  -0.0270003
  83.7579992 102.5474990  -0.9540003  84.8879992 102.8104990   0.0179997
  84.0417804 102.6958821  -0.1478034  87.1759992 104.8234990  17.3439997
  88.1289992 104.9074990  17.3169997  87.0159992 104.1114990  17.9629997
  87.2847320 104.7387292  17.4239933  93.3279992 105.0564990  -0.5810003
  93.0549992 104.6324990  -1.3940003  93.3679992 105.9884990  -0.7980003
  93.2960201 105.1243523  -0.7216452  82.4959992  99.7074990  15.1489997
  82.6459992  98.9784990  14.5469997  82.4979992 100.4844990  14.5899997
  82.5167967  99.7127720  14.9910523  82.9079992  98.0764990  12.6419997
  83.4439992  98.5284990  11.9899997  82.0559992  97.9684990  12.2189997
  82.8661795  98.1237444  12.4956211  84.4899992 103.5164990  12.8809997
  85.2409992 103.3604990  12.3079997  84.1509992 104.3684990  12.6059997
  84.5469587 103.6103149  12.7654060  88.9059992 101.3314990  17.9099997
  89.0979992 100.4004990  17.7979997  89.7629992 101.7564990  17.8989997
  89.0482176 101.2615090  17.8931757  90.2219992 104.1204990  15.9869997
  89.9409992 104.8294990  15.4089997  91.1649992 104.0474990  15.8359997
  90.3109272 104.2076704  15.8874976  12.1489992  46.2474990  88.7759997
  12.4729992  45.6164990  88.1329997  11.7089992  45.7134990  89.4369997
  12.1338707  46.0888261  88.7773195  80.9739992 100.9054990  17.0599997
  80.2069992 100.3724990  16.8499997  81.6529992 100.5954990  16.4609997
  80.9608292 100.7906360  16.9502693  83.7139992  95.5334990  13.0729997
  83.6159992  96.4794990  12.9679997  82.9709992  95.1604990  12.5969997
  83.6002123  95.6126811  12.9943204  84.9779992  99.8544990  16.6369997
  84.7419992  99.6354990  17.5379997  84.1949992  99.6474990  16.1269997
  84.8398382  99.7965340  16.6913991  87.6939992  98.9824990  15.7119997
  86.7459992  99.0144990  15.8439997  88.0059992  98.3564990  16.3659997
  87.6065293  98.9022934  15.8184130  89.3279992  97.6164990  17.7169997
  89.2309992  96.6644990  17.7119997  89.0059992  97.8844990  18.5779997
  89.2712468  97.5225896  17.8326192  79.1549992  98.8254990  16.7649997
  79.3659992  98.1194990  16.1549997  79.0429992  98.3884990  17.6089997
  79.1687668  98.6696619  16.7955445  83.9359992  94.8274990  15.7439997
  84.6469992  94.1874990  15.7299997  83.8349992  95.0934990  14.8309997
  84.0196858  94.7758591  15.6185501  84.2889992  96.5094990  17.7979997
  84.1579992  96.0344990  16.9779997  83.6899992  97.2544990  17.7429997
  84.1900829  96.5450949  17.6781823  83.8359992 113.3924990   0.9739997
  84.7689992 113.5504990   1.1179997  83.5709992 114.0684990   0.3489997
  83.9279846 113.5054567   0.9092930  77.4039992 108.0294990   0.4569997
  78.3179992 108.1084990   0.7299997  77.4109992 107.3424990  -0.2090003
  77.5300624 107.9474074   0.4043045   8.9269992  42.1754990  83.5599997
   8.0159992  42.2324990  83.8489997   9.4319992  42.1154990  84.3709997
   8.8706873  42.1751838  83.7091190  76.0529992 113.4224990   5.5339997
  75.4059992 112.9604990   5.0019997  76.4079992 112.7504990   6.1169997
  76.0123741 113.2684785   5.5399157  76.9229992 111.5024990   7.3389997
  76.5889992 110.6224990   7.5109997  77.1449992 111.8484990   8.2039997
  76.9072565 111.4287410   7.4794263  94.4719992 112.3124990  10.3199997
  94.4499992 112.4974990  11.2579997  95.1619992 112.8804990   9.9789997
  94.5623383 112.4147104  10.4024580  94.0349992 111.8794990  13.2409997
  93.5479992 111.1434990  12.8699997  94.5839992 111.4854990  13.9189997
  94.0426101 111.7256267  13.2819034  92.4859992 107.6694990  17.8789997
  91.6199992 107.5644990  18.2739997  92.8619992 108.4274990  18.3259997
  92.4184940 107.7576141  17.9933958  93.7869992 105.9254990   3.3939997
  94.6369992 106.3464990   3.5209997  93.7919992 105.1854990   4.0009997
  93.9041143 105.8831106   3.4934732  94.1809992 103.9794990   5.2169997
  93.4549992 103.4994990   5.6149997  94.7619992 104.1844990   5.9489997
  94.1602504 103.9415592   5.3704199  93.9399992 106.7644990  10.1649997
  94.7739992 106.3864990   9.8839997  94.0519992 107.7074990  10.0459997
  94.0691917 106.8402954  10.1104844  92.4259992 109.6424990  12.4719997
  91.7789992 109.9674990  13.0969997  91.9089992 109.2014990  11.7979997
  92.2674112 109.6274133  12.4665272  94.4489992 103.8804990   1.6079997
  93.9279992 104.2364990   0.8899997  94.4159992 104.5554990   2.2869997
  94.3730955 104.0205023   1.6012634   3.7549992  43.8044990  82.3869997
   2.8659992  43.9034990  82.0469997   4.0509992  42.9624990  82.0409997
   3.6734001  43.7042473  82.2937318  92.7979992 101.1194990   0.1589997
  92.8949992 101.7864990  -0.5210003  92.6579992 100.3044990  -0.3220003
  92.7923407 101.1005670   0.0008312  91.9679992 102.5004990   5.7799997
  91.8179992 101.5554990   5.7599997  91.6139992 102.7814990   6.6239997
  91.8996351 102.4091656   5.8913202  77.0029992 104.5784990   9.7909997
  77.1869992 104.4964990   8.8549997  77.8519992 104.4544990  10.2139997
  77.1430132 104.5505066   9.7201460  92.8239992 104.4704990  15.4189997
  93.4069992 103.7354990  15.6109997  93.3879992 105.2424990  15.4659997
  92.9799781 104.4743156  15.4516146  94.3209992 102.3734990  16.1039997
  93.4569992 101.9944990  15.9379997  94.9249992 101.6344990  16.0289997
  94.2845394 102.2218378  16.0711778  91.6779992 100.0824990   4.2429997
  91.9579992  99.1754990   4.3669997  92.4369992 100.5164990   3.8539997
  91.8189258 100.0170935   4.2073691  92.2899992 100.6644990   9.6789997
  93.2229992 100.8764990   9.6439997  92.0549992 100.7654990  10.6009997
  92.3859517 100.7071844   9.7989113  92.3189992 101.4014990  12.4549997
  91.4759992 101.6694990  12.8199997  92.7619992 102.2234990  12.2439997
  92.2634035 101.5493351  12.4764770  76.5999992  99.8484990  15.9309997
  77.5199992  99.7264990  16.1679997  76.1509992  99.0984990  16.3209997
  76.6650500  99.7304576  16.0161016  94.6019992  95.3814990  17.8079997
  94.9519992  94.7274990  17.2019997  94.7489992  96.2184990  17.3679997
  94.6697192  95.4052545  17.6656712   7.4079992  43.8044990  80.0429997
   8.3399992  43.9334990  80.2209997   7.1929992  44.4734990  79.3939997
   7.5064245  43.9126452  79.9795602  92.2919992  97.3454990   4.2909997
  92.4739992  96.8964990   5.1159997  91.6919992  96.7614990   3.8269997
  92.2358187  97.2050563   4.3412721  77.8219992  98.1614990   8.8229997
  78.2669992  97.3694990   9.1249997  78.2879992  98.8774990   9.2529997
  77.9459718  98.1499546   8.9225247  76.1259992 101.1604990   9.8919997
  76.6179992 100.9394990   9.1009997  76.4879992 102.0004990  10.1729997
  76.2422923 101.2438480   9.8217389  94.1219992  97.4904990  16.1569997
  93.2049992  97.7614990  16.1209997  94.2449992  96.9554990  15.3729997
  94.0130828  97.4552711  16.0460767  94.1579992  97.4134990   0.8189997
  94.5709992  96.6924990   0.3439997  94.8399992  98.0824990   0.8769997
  94.3066060  97.4053741   0.7619233  76.4389992  97.4184990   3.9459997
  75.5139992  97.6264990   3.8169997  76.8929992  97.9024990   3.2559997
  76.3736298  97.5124311   3.8350433  91.2099992 112.4024990   5.8919997
  91.8619992 112.0544990   5.2839997  91.7209992 112.8904990   6.5379997
  91.3682872 112.4208248   5.8960964  76.4029992  96.1564990  12.2899997
  75.7379992  95.9104990  12.9329997  75.9599992  96.7784990  11.7129997
  76.2521168  96.2069225  12.2999830  78.5949992 109.3314990  16.4349997
  77.7739992 109.5064990  15.9739997  78.3429992 109.2584990  17.3549997
  78.4485594 109.3455728  16.4963593  81.5489992 110.3054990  12.6929997
  81.1239992 111.1154990  12.4109997  82.4529992 110.3914990  12.3909997
  81.6130706 110.4279557  12.6135836  13.3319992  41.4104990  86.8239997
  12.6549992  41.5414990  87.4879997  12.8459992  41.2554990  86.0139997
  13.1737265  41.4074665  86.8053380  85.8599992 111.7044990  15.6529997
  86.0449992 111.3714990  16.5309997  86.7069992 112.0144990  15.3309997
  85.9997291 111.7008214  15.7296140  88.2049992 112.9904990  14.8969997
  88.8819992 112.3574990  14.6569997  88.5269992 113.3914990  15.7039997
  88.3411618 112.9581147  14.9732802  93.1229992  95.5804990  13.9759997
  92.3099992  95.9054990  13.5889997  93.3559992  94.8194990  13.4429997
  93.0431347  95.5221891  13.8509824  78.9509992 113.5624990  12.7409997
  78.2299992 114.0024990  12.2899997  78.5849992 113.3114990  13.5889997
  78.8029632 113.5887235  12.7939649  81.4179992 113.1624990  11.7699997
  80.5529992 113.2344990  12.1739997  81.3629992 113.7094990  10.9869997
  81.2922289 113.2463242  11.7193749  86.1289992 113.0504990  10.9459997
  85.6719992 113.5794990  10.2919997  86.2909992 113.6534990  11.6709997
  86.0883919 113.2043990  10.9545740  88.4559992 111.9284990  11.8909997
  87.5519992 112.0934990  11.6249997  88.8849992 112.7814990  11.8249997
  88.3902017 112.0664184  11.8456495  91.0599992 113.4984990  12.1859997
  90.8789992 114.4144990  11.9749997  91.2369992 113.0874990  11.3389997
  91.0591377 113.5683365  12.0427178  78.3659992 112.1854990   9.6509997
  78.3469992 111.7594990  10.5079997  79.1699992 111.8664990   9.2419997
  78.4721393 112.0840297   9.7130155  80.5069992 110.8954990   8.3059997
  80.2879992 109.9784990   8.4759997  81.3309992 111.0354990   8.7719997
  80.5884702 110.7890523   8.3922510   6.0819992  44.9984990  77.6099997
   5.5399992  44.6194990  76.9189997   6.9159992  45.1934990  77.1809997
   6.1204283  44.9729383  77.4574298  83.0439992 111.3654990   9.1549997
  83.2569992 110.4774990   8.8679997  83.1089992 111.3304990  10.1089997
  83.0819149 111.2393338   9.2447351  86.5529992  97.0294990   8.2989997
  85.8779992  96.3994990   8.5549997  87.1169992  96.5454990   7.6959997
  86.5369363  96.8778886   8.2524810  91.6949992  95.1364990   8.4119997
  92.2989992  95.6844990   7.9099997  90.8259992  95.4554990   8.1709997
  91.6600419  95.2545628   8.3107741  93.4219992  96.2754990   6.7449997
  94.0339992  95.7614990   6.2179997  93.8049992  97.1524990   6.7679997
  93.5573867  96.3237613   6.6760888  78.8789992  95.6634990   6.1209997
  78.1019992  95.4284990   5.6139997  79.4099992  94.8664990   6.1299997
  78.8443735  95.5236462   6.0528090  77.7159992  95.4614990   1.9249997
  78.1549992  96.0724990   1.3329997  77.0819992  95.9994990   2.3989997
  77.6903859  95.6179076   1.9080287  83.4589992  95.5894990   5.9339997
  84.3329992  95.9784990   5.9049997  83.3229992  95.3744990   6.8569997
  83.5601953  95.6136654   6.0547599  89.0149992  95.6194990   7.5839997
  89.0919992  95.7154990   6.6339997  88.7399992  94.7124990   7.7119997
  88.9883233  95.5099093   7.4713665  90.3689992  95.6454990   3.2759997
  89.6659992  96.2604990   3.0659997  89.9239992  94.8084990   3.4069997
  90.2126550  95.6164679   3.2649819  77.6169992 111.4094990   2.8219997
  76.9319992 111.3714990   2.1549997  77.6199992 112.3214990   3.1099997
  77.5236806 111.5276669   2.7696961  16.6189992  57.0814990  93.1009997
  16.8189992  57.5054990  92.2659997  17.2749992  57.4254990  93.7079997
  16.7349916  57.1859784  93.0687890  79.5769992  97.3774990   0.3669997
  80.0679992  96.7474990  -0.1600003  80.1999992  97.6734990   1.0299997
  79.7285304  97.3312387   0.3844922  84.6029992  97.6704990   2.8239997
  84.7809992  97.0234990   3.5069997  84.5489992  98.5044990   3.2909997
  84.6200678  97.6946615   2.9806283  86.4809992 112.6184990   1.2199997
  87.3469992 112.9854990   1.0419997  86.2339992 112.1794990   0.4059997
  86.5661853 112.6094021   1.0855813  93.1899992 112.1814990   3.8989997
  92.9959992 111.4334990   3.3339997  93.1509992 112.9394990   3.3159997
  93.1581645 112.1815797   3.7428131  78.8369992  96.1774990  15.6389997
  78.4709992  95.4114990  16.0809997  79.7499992  96.2064990  15.9249997
  78.9103172  96.0765335  15.7381872  80.8099992  95.5274990  17.1739997
  81.7089992  95.2534990  16.9899997  80.4239992  94.7854990  17.6389997
  80.8807307  95.3897207  17.2117080  79.4349992 112.3294990  -0.1530003
  79.1669992 112.6154990   0.7209997  80.2059992 111.7834990  -0.0000003
  79.5025927 112.2947790  -0.0128812  89.2309992  94.8604990  17.3569997
  89.3079992  94.4344990  18.2099997  90.1249992  94.8734990  17.0139997
  89.3623263  94.8039345  17.4274366  92.4079992 110.9324990  16.0489997
  91.6259992 110.7464990  15.5289997  92.3359992 111.8624990  16.2659997
  92.2912975 111.0326973  16.0071822 106.8139992 104.8194990   6.0799997
 106.9029992 105.7634990   5.9469997 106.1749992 104.5444990   5.4219997
 106.7398378 104.9113846   5.9729258   4.2169992  49.5554990  92.7089997
   4.9489992  49.8104990  93.2699997   3.4369992  49.7604990  93.2239997
   4.2117684  49.6181457  92.8554774 105.7469992 104.0744990   9.4989997
 105.7079992 103.4284990  10.2039997 105.4239992 103.6074990   8.7269997
 105.6980469 103.9230005   9.4912803  98.1149992 103.6884990  11.0919997
  98.1559992 103.0634990  11.8149997  98.8179992 104.3124990  11.2739997
  98.2156223 103.6872318  11.2156164 109.4529992 107.0134990   7.7999997
 109.0119992 106.2934990   8.2509997 109.4399992 107.7344990   8.4299997
 109.3909215 107.0124303   7.9468088  99.0389992 108.1384990   9.6269997
  98.6689992 107.3364990   9.2569997  99.9799992 107.9704990   9.6729997
  99.1155984 108.0059649   9.5825586  95.6489992 101.7984990   5.0189997
  95.2009992 102.6444990   5.0009997  95.0879992 101.2194990   4.5039997
  95.5118546 101.8359004   4.9468874  96.3589992 103.9604990   7.1449997
  96.5729992 103.1904990   7.6719997  97.0969992 104.0504990   6.5419997
  96.4880073 103.8673546   7.1355786 106.5639992 112.1174990   8.0119997
 107.1839992 111.4414990   7.7389997 106.3559992 111.8994990   8.9209997
 106.6207679 111.9955032   8.0974518 104.1359992 106.5064990   9.9049997
 104.4399992 105.8204990   9.3099997 104.8579992 106.6254990  10.5229997
 104.2751240 106.4287325   9.9070941 112.7989992  98.1084990  10.7649997
 112.8479992  98.7184990  11.5009997 113.2249992  98.5694990  10.0419997
 112.8632851  98.2543266  10.7680532 107.2769992 100.9004990  10.2319997
 107.4189992  99.9544990  10.2519997 107.1709992 101.1074990   9.3039997
 107.2821051 100.7989706  10.1092249  10.2469992  44.9624990  85.4469997
  10.8109992  44.4164990  84.8999997  10.0989992  44.4414990  86.2359997
  10.3043037  44.8171798  85.4787212 100.4319992  99.0024990   7.5049997
 100.4749992  99.8624990   7.0859997  99.9739992  98.4494990   6.8709997
 100.3760163  99.0454174   7.3620604 108.1539992  99.1334990   5.9049997
 108.7999992  98.8044990   6.5299997 108.6639992  99.6504990   5.2829997
 108.3114289  99.1584333   5.9063681  97.0519992 101.3994990   8.2669997
  97.7059992 100.8494990   8.6989997  97.0759992 101.1254990   7.3499997
  97.1447199 101.2872178   8.2021650 102.2079992 102.9494990   7.4819997
 102.8239992 102.4224990   7.9909997 101.6219992 102.3094990   7.0779997
 102.2130652 102.7908919   7.4970277 113.1909992  99.5864990  13.0009997
 112.5019992 100.2444990  12.9059997 113.2059992  99.3884990  13.9379997
 113.0987756  99.6497614  13.1145795  99.2419992  97.9204990  11.5789997
  99.0229992  98.4504990  10.8119997  98.5739992  98.1464990  12.2259997
  99.1216975  98.0235979  11.5615123 106.6109992 107.4204990   5.1229997
 106.3149992 107.0974990   4.2709997 106.2869992 108.3204990   5.1639997
 106.5267458 107.4979678   5.0120598 101.8109992 105.5954990  11.8659997
 101.0709992 106.1944990  11.9699997 102.5249992 106.1494990  11.5499997
 101.8063146 105.7522611  11.8375150 109.9179992  98.4244990   7.8859997
 109.7029992  97.6584990   8.4189997 110.5739992  98.8964990   8.3989997
 109.9772673  98.3835739   8.0281972  98.8359992  99.8124990   9.5309997
  99.4489992 100.4454990   9.9039997  99.3479992  99.3404990   8.8749997
  98.9891933  99.8353380   9.4933477   5.2489992  41.0994990  81.8649997
   4.9309992  40.1964990  81.8299997   6.0299992  41.1014990  81.3129997
   5.3111560  40.9761148  81.7854975 100.2179992 107.5604990  12.6529997
 100.2129992 108.4394990  12.2749997  99.3649992 107.4764990  13.0779997
 100.1019199 107.6695901  12.6586942  96.3399992 107.2314990   3.4349997
  96.0679992 107.4604990   2.5459997  96.3849992 108.0684990   3.8959997
  96.3088360 107.3761034   3.3756186 109.9649992 108.8524990  10.1479997
 109.0229992 108.9114990  10.3099997 110.2409992 109.7584990  10.0109997
 109.8735865 108.9830299  10.1516174 110.2649992  97.1394990  11.5649997
 109.5289992  97.7494990  11.5279997 110.9489992  97.5544990  11.0389997
 110.2565367  97.2792562  11.4888156 103.2679992  95.2254990   9.0309997
 103.1509992  94.2774990   8.9769997 102.4129992  95.5584990   9.3039997
 103.1363691  95.1405842   9.0605072 108.2169992 110.6334990   6.7729997
 108.6419992 109.9264990   6.2879997 108.5339992 111.4354990   6.3559997
 108.3180266 110.6450201   6.6502461 109.3759992 108.5344990   5.2819997
 109.1189992 107.8444990   4.6699997 109.4469992 108.0914990   6.1269997
 109.3504322 108.3801568   5.3125372 111.0619992 107.1014990  13.7589997
 111.2019992 106.5094990  13.0199997 111.2299992 107.9744990  13.4029997
 111.1038734 107.1384041  13.6096937 105.5349992 104.0634990   3.5319997
 104.8229992 104.5984990   3.1799997 106.2259992 104.1184990   2.8719997
 105.5309704 104.1441663   3.3945797 105.5889992 102.5204990   0.5699997
 106.2899992 102.5434990   1.2219997 105.8909992 101.8924990  -0.0860003
 105.7258202 102.4387223   0.5705591   8.8729992  43.3514990  87.8609997
   8.0379992  43.8054990  87.9709997   9.3969992  43.6274990  88.6129997
   8.8295070  43.4509677  87.9777134 112.9039992 103.4414990  11.8249997
 112.2519992 104.1354990  11.9139997 113.3689992 103.6514990  11.0149997
 112.8775357 103.5649544  11.7277056 108.9409992 104.2724990   4.4829997
 108.2089992 104.5014990   5.0559997 109.3879992 103.5594990   4.9379997
 108.9012753 104.2073984   4.6229698 108.8379992 102.4474990  13.5509997
 108.9179992 103.2104990  14.1229997 108.2369992 102.7264990  12.8609997
 108.7676547 102.5897468  13.5360029 100.5859992 104.9034990   6.3659997
 100.2559992 104.5324990   5.5479997 101.1739992 104.2324990   6.7129997
 100.6203182 104.7620648   6.3009898 101.9529992 108.3314990   9.0469997
 101.8579992 107.7524990   8.2909997 102.6819992 107.9604990   9.5429997
 102.0386011 108.2020572   9.0106011 100.9529992 103.6714990   9.9989997
 101.5179992 103.7934990   9.2369997 101.2709992 104.3094990  10.6379997
 101.0733619 103.7744388   9.9810019 107.2619992 109.1754990  10.7329997
 107.0209992 109.8374990  11.3809997 107.0639992 108.3404990  11.1579997
 107.2022662 109.1532704  10.8791008 101.8329992 108.0714990  14.7169997
 101.5209992 108.8534990  15.1719997 101.1829992 107.9184990  14.0309997
 101.7024858 108.1577882  14.6865344 107.8119992 103.4354990   2.1689997
 108.3909992 103.5854990   2.9149997 108.2259992 103.9054990   1.4449997
 107.9473358 103.5195966   2.1733935  98.7529992 104.2694990  13.9449997
  98.8229992 104.9204990  14.6439997  97.8619992 104.3724990  13.6099997
  98.6421690 104.3724261  13.9953026   9.4169992  49.5644990  79.5459997
   8.6719992  49.0564990  79.2229997   9.2829992  49.6134990  80.4919997
   9.2968633  49.5015714  79.6297563 105.5379992 110.1714990   5.6039997
 106.0119992 110.4674990   6.3809997 104.9749992 110.9104990   5.3709997
 105.5267890 110.3118047   5.6788084 100.0719992 110.1424990  15.4799997
 100.0799992 110.0064990  14.5329997  99.1559992 110.0254990  15.7319997
  99.9492528 110.1080475  15.3843226 111.5099992  95.1854990   1.9809997
 110.6099992  95.3234990   2.2769997 111.7619992  96.0164990   1.5799997
 111.4207727  95.3168705   1.9672935  99.5759992 103.9724990   3.9549997
  99.2839992 104.7404990   3.4639997  98.9019992 103.3134990   3.7919997
  99.4448843 103.9884537   3.8657695 112.6999992 109.5514990   0.3579997
 112.7729992 110.4904990   0.5279997 113.6049992 109.2464990   0.3019997
 112.8324170 109.6388294   0.3737045  95.6689992 106.3354990  12.7699997
  95.1679992 106.3074990  11.9549997  95.6749992 105.4304990  13.0799997
  95.6011690 106.2092234  12.7002770  95.4199992 109.1164990   9.6539997
  96.3659992 108.9714990   9.6349997  95.3069992 109.9004990  10.1909997
  95.5343578 109.2026708   9.7240300 113.6169992 109.7824990  15.3369997
 113.5679992 108.8264990  15.2989997 112.7909992 110.0494990  15.7379997
 113.4985096 109.6878416  15.3860698 104.5959992 109.3564990  14.2129997
 104.6829992 110.1824990  14.6879997 103.7319992 109.0264990  14.4619997
 104.4911944 109.4249871  14.3116558 105.0099992 113.1284990   4.0189997
 104.9349992 113.0074990   3.0719997 105.0429992 114.0774990   4.1369997
 105.0042083 113.2402639   3.9054973  16.5669992  48.6974990  88.3319997
  17.2089992  49.1534990  87.7889997  15.7369992  48.8104990  87.8699997
  16.5427352  48.7753223  88.1950234  98.6639992 111.9174990   5.7999997
  98.8159992 111.5694990   6.6779997  97.8129992 111.5604990   5.5439997
  98.5698344 111.8215891   5.8856851 108.1119992 112.2824990   1.0209997
 108.4869992 111.5384990   0.5499997 108.1159992 112.0124990   1.9389997
 108.1638969 112.1440920   1.0806475 107.7809992 112.2084990   3.7699997
 106.8459992 112.3084990   3.9489997 108.0609992 111.4984990   4.3489997
 107.6909471 112.1262944   3.8726678 110.7689992 101.2754990  15.8169997
 110.3619992 101.7554990  15.0959997 110.8099992 100.3694990  15.5089997
 110.7188403 101.2187989  15.6767253  97.9179992 107.6594990  13.8129997
  98.1339992 107.2974990  14.6729997  97.0629992 107.2844990  13.6039997
  97.8319082 107.5593377  13.9022396 100.5369992  96.1294990   9.8089997
  99.6749992  96.0424990   9.4009997 100.5149992  96.9854990  10.2369997
 100.4160557  96.2333078   9.8110202 105.1999992  95.8514990  13.1839997
 105.6199992  95.4364990  13.9369997 104.2669992  95.6724990  13.3009997
 105.1313736  95.7704921  13.3028950 108.5259992  99.6064990  14.0369997
 108.0119992  99.4814990  14.8349997 108.3709992 100.5194990  13.7929997
 108.4347802  99.7127433  14.1131504 109.2889992 104.4674990  -0.2020003
 109.3309992 104.2454990  -1.1320003 110.1379992 104.8664990  -0.0120003
 109.4095253 104.4910510  -0.3036196 104.8619992  98.3434990   0.4689997
 104.6079992  98.3624990   1.3909997 104.6049992  97.4724990   0.1669997
 104.7924508  98.2283292   0.5544786  13.3149992  42.3784990  77.7449997
  12.3759992  42.4894990  77.5939997  13.6119992  43.2344990  78.0509997
  13.2266371  42.5095327  77.7657362 100.6279992 101.0944990  10.9039997
  99.9859992 101.0544990  11.6129997 100.6649992 102.0214990  10.6659997
 100.5451659 101.2142540  10.9688463 100.6249992 101.3154990   5.8159997
  99.7319992 100.9754990   5.7569997 101.0759992 100.9384990   5.0599997
 100.5637185 101.2180220   5.7057698 106.1609992 101.7314990   4.6329997
 105.7519992 102.5464990   4.3409997 106.8809992 101.5914990   4.0189997
 106.2024439 101.8240383   4.5100098 105.2629992 101.9074990  16.1209997
 104.6999992 101.2024990  16.4419997 106.0889992 101.7864990  16.5889997
 105.2976674 101.7947176  16.2281734 107.1649992 101.1774990   7.4469997
 106.9699992 101.7834990   6.7319997 107.3469992 100.3444990   7.0129997
 107.1629195 101.1477936   7.2904079  98.3779992 101.4154990  12.7709997
  98.3399992 101.8154990  13.6399997  97.8869992 100.5984990  12.8609997
  98.3064374 101.3598228  12.9020980 101.7439992  98.7894990  -0.4300003
 101.3129992  98.3444990   0.2989997 101.0259992  99.1604990  -0.9430003
 101.5879176  98.7787063  -0.3995087  94.9859992  98.5314990   6.6219997
  95.6169992  98.5024990   7.3409997  95.4359992  98.1064990   5.8909997
  95.1331082  98.4701269   6.6216307  96.2599992  99.2774990   2.0459997
  96.7349992  99.8684990   1.4609997  95.5429992  99.8074990   2.3929997
  96.2280406  99.4301011   2.0128495 106.4289992 102.8154990  12.1179997
 106.7529992 102.1844990  11.4749997 105.9889992 102.2814990  12.7789997
 106.4138707 102.6568261  12.1193195  10.9369992  49.7484990  90.7829997
  10.5909992  49.3664990  91.5889997  10.7369992  50.6814990  90.8539997
  10.8625399  49.8223489  90.9030401 103.2069992  98.7434990   6.9019997
 102.2959992  98.8004990   7.1909997 103.7119992  98.6834990   7.7129997
 103.1506873  98.7431838   7.0511190  98.0349992 100.3724990   5.7289997
  97.1459992 100.4714990   5.3889997  98.3309992  99.5304990   5.3829997
  97.9534001 100.2722473   5.6357318 101.6879992 100.3724990   3.3859997
 102.6199992 100.5014990   3.5639997 101.4729992 101.0414990   2.7359997
 101.7864472 100.4805817   3.3224873 107.6119992  97.9784990  10.1659997
 106.9349992  98.1094990  10.8299997 107.1259992  97.8234990   9.3559997
 107.4537265  97.9754665  10.1473380 100.3619992 101.5664990   0.9519997
  99.8199992 101.1874990   0.2609997 101.1959992 101.7614990   0.5239997
 100.4004390 101.5409091   0.7994374 110.8989992 113.6494990  16.4429997
 111.0989992 114.0734990  15.6089997 111.5549992 113.9934990  17.0499997
 111.0149937 113.7539993  16.4108645  98.4969992 106.1234990  16.0509997
  99.2289992 106.3784990  16.6129997  97.7169992 106.3284990  16.5669997
  98.4916526 106.1860438  16.1975168 104.5269992 101.5304990   8.7889997
 105.0909992 100.9844990   8.2419997 104.3789992 101.0094990   9.5779997
 104.5843037 101.3851798   8.8207212  99.5289992  97.6674990   5.2079997
  99.2109992  96.7644990   5.1719997 100.3099992  97.6694990   4.6549997
  99.5911079  97.5442240   5.1282908 103.1529992  99.9194990  11.2029997
 102.3179992 100.3734990  11.3139997 103.6769992 100.1954990  11.9549997
 103.1096072 100.0188960  11.3198118  14.0329992  44.2454990  79.4059997
  14.9249992  44.1074990  79.7249997  14.0899992  45.0364990  78.8689997
  14.1627380  44.3334777  79.3770981 103.6969992 106.1324990   2.8879997
 102.9519992 105.6244990   2.5659997 103.5629992 106.1814990   3.8339997
 103.5769334 106.0696144   2.9718892 110.8469992 105.2654990  11.6749997
 111.4889992 105.7214990  11.1309997 110.0169992 105.3784990  11.2119997
 110.8226536 105.3431813  11.5379579 107.5949992  98.9464990   1.0869997
 106.6559992  99.0574990   0.9359997 107.8919992  99.8024990   1.3939997
 107.5066136  99.0774977   1.1078568 105.2169992 106.3164990  14.1249997
 104.8709992 105.9344990  14.9319997 105.0169992 107.2494990  14.1959997
 105.1425987 106.3904013  14.2450443 108.3129992 100.8134990   2.7479997
 109.2049992 100.6754990   3.0669997 108.3699992 101.6044990   2.2109997
 108.4427380 100.9014777   2.7190981  98.8219992 105.4274990   8.6579997
  99.5669992 105.4244990   8.0559997  98.8999992 104.6034990   9.1389997
  98.9343366 105.3157395   8.6407412 105.8229992 107.5904990   1.9129997
 105.5279992 108.4174990   2.2949997 105.1199992 106.9714990   2.1099997
 105.6876379 107.6199182   1.9918636  95.8299992 103.8874990  13.9729997
  96.0529992 103.4694990  14.8039997  95.2279992 103.2754990  13.5499997
  95.7791513 103.7474617  14.0296722 102.8469992 103.4044990  16.1859997
 102.5509992 103.2394990  15.2899997 103.7779992 103.1844990  16.1749997
 102.9324401 103.3521891  16.0620189 107.4669992 108.7784990  14.0749997
 106.5659992 108.9614990  13.8079997 107.5009992 109.0374990  14.9959997
 107.3483861 108.8385245  14.1629517   4.5419992  48.8594990  85.3149997
   5.2869992  48.8564990  84.7139997   4.6199992  48.0354990  85.7969997
   4.6544159  48.7477928  85.2979136 113.1979992 101.0224990   2.4429997
 112.6439992 100.6264990   1.7699997 113.2989992 101.9334990   2.1649997
 113.1358589 101.0913904   2.3133839 113.1609992 106.8234990  15.2799997
 112.3099992 107.0614990  14.9119997 113.7519992 106.8064990  14.5259997
 113.1243831 106.8537623  15.1278448 111.4929992 109.8084990   2.9079997
 111.1209992 108.9834990   3.2169997 111.7709992 109.6254990   2.0099997
 111.4795807 109.6707031   2.8290063 108.6539992 104.6164990   9.9289997
 107.7259992 104.3854990   9.9019997 109.1049992 103.8394990   9.5989997
 108.5878165 104.4797785   9.8806772 101.1969992 108.9454990   6.0619997
 101.7239992 109.7184990   5.8619997 100.3169992 109.1694990   5.7599997
 101.1502121 109.0817344   5.9937460  96.9519992 103.8074990   0.6489997
  97.5679992 104.4344990   1.0289997  96.0899992 104.1234990   0.9209997
  96.9197678 103.9359423   0.7377192 102.6239992 106.6084990   5.6379997
 102.3829992 107.5334990   5.6799997 101.8839992 106.1494990   6.0349997
 102.4909463 106.6730969   5.6974279 103.1389992 110.7574990  11.9529997
 103.5019992 111.6114990  11.7199997 103.6709992 110.4654990  12.6939997
 103.2605141 110.8348907  12.0212079 101.3069992 111.6294990   5.1839997
 100.3579992 111.7354990   5.2349997 101.6589992 112.4504990   5.5279997
 101.2245647 111.7550029   5.2374882 106.6829992 106.8564990  11.6539997
 106.2569992 106.6284990  12.4799997 107.2639992 106.1174990  11.4719997
 106.7032088 106.7254393  11.7424454  11.5429992  51.0224990  78.5709997
  11.2479992  51.8494990  78.9529997  10.8399992  50.4034990  78.7669997
  11.4075855  51.0519458  78.6497634 108.8859992 107.7854990   0.7279997
 109.2389992 107.4054990   1.5319997 107.9369992 107.6914990   0.8149997
 108.8060956 107.7207867   0.8498005 109.3419992 111.4084990  14.1229997
 108.7399992 110.8524990  13.6279997 109.6229992 112.0754990  13.4969997
 109.2975757 111.4225755  13.9705657 113.3889992 112.2644990   0.9289997
 114.1329992 112.8504990   0.7889997 112.6949992 112.8334990   1.2619997
 113.3969809 112.4215830   0.9548572  97.4639992  98.6414990  13.5309997
  96.5709992  98.9794990  13.4629997  97.3649992  97.7854990  13.9489997
  97.3284752  98.5720986  13.5781644 109.7519992 106.4574990   2.9549997
 109.4749992 105.7294990   3.5109997 110.6789992 106.5764990   3.1599997
 109.8394419 106.3739436   3.0588264  97.1149992 110.4454990  11.9659997
  97.3319992 109.5134990  11.9349997  97.3619992 110.7204990  12.8489997
  97.1780948 110.3550976  12.0811268 101.9139992 108.4674990   1.6309997
 102.0609992 107.9474990   2.4209997 101.9109992 109.3744990   1.9379997
 101.9337102 108.5188964   1.7805907  98.3669992 105.7194990   2.1419997
  97.6809992 106.0724990   2.7089997  98.8899992 106.4824990   1.8949997
  98.3438402 105.8708912   2.1861783 106.1979992  98.3824990  12.4209997
 106.8969992  98.4564990  13.0709997 105.8179992  97.5174990  12.5749997
 106.2422662  98.2757050  12.5307412 106.9829992  98.0344990   3.5179997
 107.2029992  98.5054990   2.7139997 107.5409992  98.4284990   4.1879997
 107.0886044  98.1522946   3.4985207   1.5499992  47.3194990  90.6299997
   1.7729992  46.9014990  91.4619997   0.9479992  46.7074990  90.2079997
   1.4990802  47.1795216  90.6867561 104.6519992 110.1644990   2.3809997
 103.8349992 110.6614990   2.4329997 105.1809992 110.6404990   1.7399997
 104.6118125 110.2967000   2.3015289 104.1829992  99.7624990   4.3529997
 104.9949992 100.2664990   4.3989997 103.9379992  99.6174990   5.2669997
 104.2611091  99.8119366   4.4828552 104.7189992 100.7484990  13.5369997
 104.8379992 101.3224990  14.2939997 105.3739992 100.0604990  13.6519997
 104.8238684 100.7340205  13.6561656 105.0669992  96.8434990   5.2909997
 104.7199992  97.4604990   5.9349997 105.7249992  97.3444990   4.8089997
 105.1084430  96.9956860   5.3140045 101.9899992 111.2084990   2.3619997
 102.1509992 112.0084990   1.8619997 101.7929992 111.5154990   3.2469997
 101.9853906 111.3593690   2.4132316 100.7239992  97.9064990   1.9779997
 100.6409992  98.7944990   2.3249997 101.6139992  97.6414990   2.2099997
 100.8329331  97.9921177   2.0568067 110.9229992  98.6554990  14.3719997
 110.0069992  98.9174990  14.2849997 111.2589992  98.6524990  13.4759997
 110.8428499  98.6910174  14.2388748 109.5249992 102.4054990   8.4679997
 108.7279992 101.9904990   8.1399997 109.9699992 101.7154990   8.9589997
 109.4760367 102.2553372   8.4894897  98.9829992 108.3334990   1.0379997
  99.5749992 109.0334990   1.3149997  99.4419992 107.9004990   0.3189997
  99.1261652 108.3707686   0.9786515  97.2989992 100.9984990   0.1539997
  97.2539992 101.9374990   0.3329997  96.4109992 100.7624990  -0.1150003
  97.1728166 101.0951698   0.1421507   8.5669992  46.8364990  92.8429997
   8.2709992  46.6714990  91.9479997   9.4979992  46.6164990  92.8329997
   8.6523909  46.7841274  92.7190110 110.6119992 111.6614990  10.0899997
 110.4559992 112.3404990   9.4329997 111.5439992 111.7334990  10.2929997
 110.7167328 111.7641586  10.0275529  98.1069992  95.7794990   8.8269997
  97.8779992  95.8384990   7.8999997  97.6639992  94.9884990   9.1339997
  98.0157387  95.6806412   8.7415223  97.0369992 109.7204990   4.9879997
  96.2049992 110.1924990   5.0149997  97.5829992 110.2304990   4.3889997
  96.9968710 109.8540317   4.9107570  96.3259992 112.3324990  16.3179997
  96.8659992 112.1164990  17.0779997  95.8439992 111.5274990  16.1279997
  96.3348485 112.1940463  16.3964870 100.9229992 111.2524990  17.9379997
 101.6909992 110.7934990  18.2789997 100.9019992 111.0264990  17.0079997
 101.0252135 111.1591680  17.8589473 105.0149992 110.7604990  -0.6870003
 104.3709992 110.1294990  -0.3650003 105.7769992 110.2294990  -0.9180003
 105.0298708 110.6023171  -0.6741539 107.4999992 109.6324990  16.6669997
 107.1489992 108.7754990  16.9099997 108.2259992 109.7744990  17.2739997
 107.5501590 109.5345189  16.7822889 109.6189992 110.5774990  -0.4530003
 109.9019992 109.7824990  -0.0000003 110.3589992 110.8104990  -1.0140003
 109.7577295 110.5002349  -0.4668531  96.2329992 106.1434990  17.2719997
  96.3769992 105.2414990  16.9859997  95.4599992 106.4294990  16.7849997
  96.1482266 106.0586548  17.1670102 100.5739992 106.4864990  -0.5950003
 100.6379992 105.6924990  -0.0650003 101.2269992 106.3684990  -1.2850003
 100.6710483 106.3617496  -0.6156593  13.1869992  52.2104990  90.7329997
  12.2859992  52.3934990  90.4649997  13.2209992  52.4694990  91.6539997
  13.0683021  52.2705505  90.8208206 102.8879992 106.1124990  16.7049997
 102.5599992 106.3834990  15.8479997 103.0399992 105.1714990  16.6169997
 102.8636412 106.0224058  16.5757804 108.6229992 106.0284990  14.0879997
 109.3679992 106.6174990  13.9689997 107.8649992 106.6104990  14.1509997
 108.6225289 106.1877067  14.0802292  97.0649992 103.3434990  16.6919997
  97.4729992 102.4864990  16.5709997  96.8049992 103.3574990  17.6129997
  97.0857082 103.2280596  16.7999469 101.7229992 104.4594990   1.7109997
 101.2639992 103.9754990   2.3959997 101.9779992 103.7904990   1.0749997
 101.6945997 104.3028491   1.7188734 101.0119992 102.3524990  14.0669997
 100.3939992 103.0264990  14.3469997 101.3559992 102.6734990  13.2329997
 100.9738078 102.4882298  13.9926609 102.7939992 102.7024990  -0.0270003
 102.6139992 102.5474990  -0.9540003 103.7439992 102.8104990   0.0179997
 102.8977804 102.6958821  -0.1478034 106.0319992 104.8234990  17.3439997
 106.9849992 104.9074990  17.3169997 105.8719992 104.1114990  17.9629997
 106.1407320 104.7387292  17.4239933 112.1839992 105.0564990  -0.5810003
 111.9109992 104.6324990  -1.3940003 112.2239992 105.9884990  -0.7980003
 112.1520201 105.1243523  -0.7216452 101.3519992  99.7074990  15.1489997
 101.5019992  98.9784990  14.5469997 101.3539992 100.4844990  14.5899997
 101.3727967  99.7127720  14.9910523 101.7639992  98.0764990  12.6419997
 102.2999992  98.5284990  11.9899997 100.9119992  97.9684990  12.2189997
 101.7221795  98.1237444  12.4956211  18.9179992  44.4544990  79.0999997
  18.3639992  44.0584990  78.4279997  19.0189992  45.3654990  78.8229997
  18.8557084  44.5233565  78.9704381 103.3459992 103.5164990  12.8809997
 104.0969992 103.3604990  12.3079997 103.0069992 104.3684990  12.6059997
 103.4029587 103.6103149  12.7654060 107.7619992 101.3314990  17.9099997
 107.9539992 100.4004990  17.7979997 108.6189992 101.7564990  17.8989997
 107.9042176 101.2615090  17.8931757 109.0779992 104.1204990  15.9869997
 108.7969992 104.8294990  15.4089997 110.0209992 104.0474990  15.8359997
 109.1669272 104.2076704  15.8874976  99.8299992 100.9054990  17.0599997
  99.0629992 100.3724990  16.8499997 100.5089992 100.5954990  16.4609997
  99.8168292 100.7906360  16.9502693 102.5699992  95.5334990  13.0729997
 102.4719992  96.4794990  12.9679997 101.8269992  95.1604990  12.5969997
 102.4562123  95.6126811  12.9943204 103.8339992  99.8544990  16.6369997
 103.5979992  99.6354990  17.5379997 103.0509992  99.6474990  16.1269997
 103.6958382  99.7965340  16.6913991 106.5499992  98.9824990  15.7119997
 105.6019992  99.0144990  15.8439997 106.8619992  98.3564990  16.3659997
 106.4625293  98.9022934  15.8184130 108.1839992  97.6164990  17.7169997
 108.0869992  96.6644990  17.7119997 107.8619992  97.8844990  18.5779997
 108.1272468  97.5225896  17.8326192  98.0109992  98.8254990  16.7649997
  98.2219992  98.1194990  16.1549997  97.8989992  98.3884990  17.6089997
  98.0247668  98.6696619  16.7955445 102.7919992  94.8274990  15.7439997
 103.5029992  94.1874990  15.7299997 102.6909992  95.0934990  14.8309997
 102.8756858  94.7758591  15.6185501  18.8809992  50.2554990  91.9369997
  18.0299992  50.4934990  91.5699997  19.4719992  50.2384990  91.1839997
  18.8442468  50.2858251  91.7848902 103.1449992  96.5094990  17.7979997
 103.0139992  96.0344990  16.9779997 102.5459992  97.2544990  17.7429997
 103.0460829  96.5450949  17.6781823 102.6919992 113.3924990   0.9739997
 103.6249992 113.5504990   1.1179997 102.4269992 114.0684990   0.3489997
 102.7839846 113.5054567   0.9092930  96.2599992 108.0294990   0.4569997
  97.1739992 108.1084990   0.7299997  96.2669992 107.3424990  -0.2090003
  96.3860624 107.9474074   0.4043045  94.9089992 113.4224990   5.5339997
  94.2619992 112.9604990   5.0019997  95.2639992 112.7504990   6.1169997
  94.8683741 113.2684785   5.5399157  95.7789992 111.5024990   7.3389997
  95.4449992 110.6224990   7.5109997  96.0009992 111.8484990   8.2039997
  95.7632565 111.4287410   7.4794263 113.3279992 112.3124990  10.3199997
 113.3059992 112.4974990  11.2579997 114.0179992 112.8804990   9.9789997
 113.4183383 112.4147104  10.4024580 112.8909992 111.8794990  13.2409997
 112.4039992 111.1434990  12.8699997 113.4399992 111.4854990  13.9189997
 112.8986101 111.7256267  13.2819034 111.3419992 107.6694990  17.8789997
 110.4759992 107.5644990  18.2739997 111.7179992 108.4274990  18.3259997
 111.2744940 107.7576141  17.9933958 112.6429992 105.9254990   3.3939997
 113.4929992 106.3464990   3.5209997 112.6479992 105.1854990   4.0009997
 112.7601143 105.8831106   3.4934732 113.0369992 103.9794990   5.2169997
 112.3109992 103.4994990   5.6149997 113.6179992 104.1844990   5.9489997
 113.0162504 103.9415592   5.3704199  17.2129992  53.2404990  79.5649997
  16.8409992  52.4154990  79.8749997  17.4909992  53.0574990  78.6679997
  17.1995997  53.1026160  79.4861551 112.7959992 106.7644990  10.1649997
 113.6299992 106.3864990   9.8839997 112.9079992 107.7074990  10.0459997
 112.9251917 106.8402954  10.1104844 111.2819992 109.6424990  12.4719997
 110.6349992 109.9674990  13.0969997 110.7649992 109.2014990  11.7979997
 111.1234112 109.6274133  12.4665272 113.3049992 103.8804990   1.6079997
 112.7839992 104.2364990   0.8899997 113.2719992 104.5554990   2.2869997
 113.2290955 104.0205023   1.6012634 111.6539992 101.1194990   0.1589997
 111.7509992 101.7864990  -0.5210003 111.5139992 100.3044990  -0.3220003
 111.6483407 101.1005670   0.0008312 110.8239992 102.5004990   5.7799997
 110.6739992 101.5554990   5.7599997 110.4699992 102.7814990   6.6239997
 110.7556351 102.4091656   5.8913202  95.8589992 104.5784990   9.7909997
  96.0429992 104.4964990   8.8549997  96.7079992 104.4544990  10.2139997
  95.9990132 104.5505066   9.7201460 111.6799992 104.4704990  15.4189997
 112.2629992 103.7354990  15.6109997 112.2439992 105.2424990  15.4659997
 111.8359781 104.4743156  15.4516146 113.1769992 102.3734990  16.1039997
 112.3129992 101.9944990  15.9379997 113.7809992 101.6344990  16.0289997
 113.1405394 102.2218378  16.0711778 110.5339992 100.0824990   4.2429997
 110.8139992  99.1754990   4.3669997 111.2929992 100.5164990   3.8539997
 110.6749258 100.0170935   4.2073691 111.1459992 100.6644990   9.6789997
 112.0789992 100.8764990   9.6439997 110.9109992 100.7654990  10.6009997
 111.2419517 100.7071844   9.7989113  14.3739992  48.0484990  86.5869997
  13.4459992  47.8174990  86.5599997  14.8249992  47.2714990  86.2569997
  14.3078165  47.9117785  86.5386772 111.1749992 101.4014990  12.4549997
 110.3319992 101.6694990  12.8199997 111.6179992 102.2234990  12.2439997
 111.1194035 101.5493351  12.4764770  95.4559992  99.8484990  15.9309997
  96.3759992  99.7264990  16.1679997  95.0069992  99.0984990  16.3209997
  95.5210500  99.7304576  16.0161016 113.4579992  95.3814990  17.8079997
 113.8079992  94.7274990  17.2019997 113.6049992  96.2184990  17.3679997
 113.5257192  95.4052545  17.6656712 111.1479992  97.3454990   4.2909997
 111.3299992  96.8964990   5.1159997 110.5479992  96.7614990   3.8269997
 111.0918187  97.2050563   4.3412721  96.6779992  98.1614990   8.8229997
  97.1229992  97.3694990   9.1249997  97.1439992  98.8774990   9.2529997
  96.8019718  98.1499546   8.9225247  94.9819992 101.1604990   9.8919997
  95.4739992 100.9394990   9.1009997  95.3439992 102.0004990  10.1729997
  95.0982923 101.2438480   9.8217389 112.9779992  97.4904990  16.1569997
 112.0609992  97.7614990  16.1209997 113.1009992  96.9554990  15.3729997
 112.8690828  97.4552711  16.0460767 113.0139992  97.4134990   0.8189997
 113.4269992  96.6924990   0.3439997 113.6959992  98.0824990   0.8769997
 113.1626060  97.4053741   0.7619233  95.2949992  97.4184990   3.9459997
  94.3699992  97.6264990   3.8169997  95.7489992  97.9024990   3.2559997
  95.2296298  97.5124311   3.8350433 110.0659992 112.4024990   5.8919997
 110.7179992 112.0544990   5.2839997 110.5769992 112.8904990   6.5379997
 110.2242872 112.4208248   5.8960964   6.9169992  52.3774990  82.7199997
   7.4439992  53.1504990  82.5189997   6.0369992  52.6014990  82.4179997
   6.8701793  52.5136652  82.6516304  95.2589992  96.1564990  12.2899997
  94.5939992  95.9104990  12.9329997  94.8159992  96.7784990  11.7129997
  95.1081168  96.2069225  12.2999830  97.4509992 109.3314990  16.4349997
  96.6299992 109.5064990  15.9739997  97.1989992 109.2584990  17.3549997
  97.3045594 109.3455728  16.4963593 100.4049992 110.3054990  12.6929997
  99.9799992 111.1154990  12.4109997 101.3089992 110.3914990  12.3909997
 100.4690706 110.4279557  12.6135836 104.7159992 111.7044990  15.6529997
 104.9009992 111.3714990  16.5309997 105.5629992 112.0144990  15.3309997
 104.8557291 111.7008214  15.7296140 107.0609992 112.9904990  14.8969997
 107.7379992 112.3574990  14.6569997 107.3829992 113.3914990  15.7039997
 107.1971618 112.9581147  14.9732802 111.9789992  95.5804990  13.9759997
 111.1659992  95.9054990  13.5889997 112.2119992  94.8194990  13.4429997
 111.8991347  95.5221891  13.8509824  97.8069992 113.5624990  12.7409997
  97.0859992 114.0024990  12.2899997  97.4409992 113.3114990  13.5889997
  97.6589632 113.5887235  12.7939649 100.2739992 113.1624990  11.7699997
  99.4089992 113.2344990  12.1739997 100.2189992 113.7094990  10.9869997
 100.1482289 113.2463242  11.7193749 104.9849992 113.0504990  10.9459997
 104.5279992 113.5794990  10.2919997 105.1469992 113.6534990  11.6709997
 104.9443919 113.2043990  10.9545740 107.3119992 111.9284990  11.8909997
 106.4079992 112.0934990  11.6249997 107.7409992 112.7814990  11.8249997
 107.2462017 112.0664184  11.8456495   8.3439992  50.0404990  82.2959997
   8.1029992  50.9654990  82.3379997   7.6039992  49.5814990  82.6919997
   8.2108934  50.1050881  82.3553191 109.9159992 113.4984990  12.1859997
 109.7349992 114.4144990  11.9749997 110.0929992 113.0874990  11.3389997
 109.9151377 113.5683365  12.0427178  97.2219992 112.1854990   9.6509997
  97.2029992 111.7594990  10.5079997  98.0259992 111.8664990   9.2419997
  97.3281393 112.0840297   9.7130155  99.3629992 110.8954990   8.3059997
  99.1439992 109.9784990   8.4759997 100.1869992 111.0354990   8.7719997
  99.4444702 110.7890523   8.3922510 101.8999992 111.3654990   9.1549997
 102.1129992 110.4774990   8.8679997 101.9649992 111.3304990  10.1089997
 101.9379149 111.2393338   9.2447351 105.4089992  97.0294990   8.2989997
 104.7339992  96.3994990   8.5549997 105.9729992  96.5454990   7.6959997
 105.3929363  96.8778886   8.2524810 110.5509992  95.1364990   8.4119997
 111.1549992  95.6844990   7.9099997 109.6819992  95.4554990   8.1709997
 110.5160419  95.2545628   8.3107741 112.2779992  96.2754990   6.7449997
 112.8899992  95.7614990   6.2179997 112.6609992  97.1524990   6.7679997
 112.4133867  96.3237613   6.6760888  97.7349992  95.6634990   6.1209997
  96.9579992  95.4284990   5.6139997  98.2659992  94.8664990   6.1299997
  97.7003735  95.5236462   6.0528090  96.5719992  95.4614990   1.9249997
  97.0109992  96.0724990   1.3329997  95.9379992  95.9994990   2.3989997
  96.5463859  95.6179076   1.9080287 102.3149992  95.5894990   5.9339997
 103.1889992  95.9784990   5.9049997 102.1789992  95.3744990   6.8569997
 102.4161953  95.6136654   6.0547599   8.8589992  54.1894990  88.6109997
   9.2219992  55.0434990  88.3779997   9.3909992  53.8974990  89.3519997
   8.9805141  54.2668907  88.6792079 107.8709992  95.6194990   7.5839997
 107.9479992  95.7154990   6.6339997 107.5959992  94.7124990   7.7119997
 107.8443233  95.5099093   7.4713665 109.2249992  95.6454990   3.2759997
 108.5219992  96.2604990   3.0659997 108.7799992  94.8084990   3.4069997
 109.0686550  95.6164679   3.2649819  96.4729992 111.4094990   2.8219997
  95.7879992 111.3714990   2.1549997  96.4759992 112.3214990   3.1099997
  96.3796806 111.5276669   2.7696961  98.4329992  97.3774990   0.3669997
  98.9239992  96.7474990  -0.1600003  99.0559992  97.6734990   1.0299997
  98.5845304  97.3312387   0.3844922 103.4589992  97.6704990   2.8239997
 103.6369992  97.0234990   3.5069997 103.4049992  98.5044990   3.2909997
 103.4760678  97.6946615   2.9806283 105.3369992 112.6184990   1.2199997
 106.2029992 112.9854990   1.0419997 105.0899992 112.1794990   0.4059997
 105.4221853 112.6094021   1.0855813 112.0459992 112.1814990   3.8989997
 111.8519992 111.4334990   3.3339997 112.0069992 112.9394990   3.3159997
 112.0141645 112.1815797   3.7428131  97.6929992  96.1774990  15.6389997
  97.3269992  95.4114990  16.0809997  98.6059992  96.2064990  15.9249997
  97.7663172  96.0765335  15.7381872  99.6659992  95.5274990  17.1739997
 100.5649992  95.2534990  16.9899997  99.2799992  94.7854990  17.6389997
  99.7367307  95.3897207  17.2117080  98.2909992 112.3294990  -0.1530003
  98.0229992 112.6154990   0.7209997  99.0619992 111.7834990  -0.0000003
  98.3585926 112.2947790  -0.0128812   7.0269992  55.0614990  81.8409997
   6.0779992  55.1674990  81.8929997   7.3789992  55.8824990  82.1859997
   6.9446214  55.1869361  81.8947317 108.0869992  94.8604990  17.3569997
 108.1639992  94.4344990  18.2099997 108.9809992  94.8734990  17.0139997
 108.2183263  94.8039345  17.4274366 111.2639992 110.9324990  16.0489997
 110.4819992 110.7464990  15.5289997 111.1919992 111.8624990  16.2659997
 111.1472975 111.0326973  16.0071822 125.6699992 104.8194990   6.0799997
 125.7589992 105.7634990   5.9469997 125.0309992 104.5444990   5.4219997
 125.5958378 104.9113846   5.9729258 124.6029992 104.0744990   9.4989997
 124.5639992 103.4284990  10.2039997 124.2799992 103.6074990   8.7269997
 124.5540469 103.9230005   9.4912803 116.9709992 103.6884990  11.0919997
 117.0119992 103.0634990  11.8149997 117.6739992 104.3124990  11.2739997
 117.0716223 103.6872318  11.2156164 128.3089992 107.0134990   7.7999997
 127.8679992 106.2934990   8.2509997 128.2959992 107.7344990   8.4299997
 128.2469215 107.0124303   7.9468088 117.8949992 108.1384990   9.6269997
 117.5249992 107.3364990   9.2569997 118.8359992 107.9704990   9.6729997
 117.9715984 108.0059649   9.5825586 114.5049992 101.7984990   5.0189997
 114.0569992 102.6444990   5.0009997 113.9439992 101.2194990   4.5039997
 114.3678546 101.8359004   4.9468874 115.2149992 103.9604990   7.1449997
 115.4289992 103.1904990   7.6719997 115.9529992 104.0504990   6.5419997
 115.3440073 103.8673546   7.1355786 125.4199992 112.1174990   8.0119997
 126.0399992 111.4414990   7.7389997 125.2119992 111.8994990   8.9209997
 125.4767679 111.9955032   8.0974518  12.4029992  50.2884990  88.3119997
  11.9769992  50.0604990  89.1379997  12.9839992  49.5494990  88.1289997
  12.4231587  50.1574084  88.4004111 122.9919992 106.5064990   9.9049997
 123.2959992 105.8204990   9.3099997 123.7139992 106.6254990  10.5229997
 123.1311240 106.4287325   9.9070941 131.6549992  98.1084990  10.7649997
 131.7039992  98.7184990  11.5009997 132.0809992  98.5694990  10.0419997
 131.7192851  98.2543266  10.7680532 126.1329992 100.9004990  10.2319997
 126.2749992  99.9544990  10.2519997 126.0269992 101.1074990   9.3039997
 126.1381051 100.7989706  10.1092249 119.2879992  99.0024990   7.5049997
 119.3309992  99.8624990   7.0859997 118.8299992  98.4494990   6.8709997
 119.2320163  99.0454174   7.3620604 127.0099992  99.1334990   5.9049997
 127.6559992  98.8044990   6.5299997 127.5199992  99.6504990   5.2829997
 127.1674289  99.1584333   5.9063681 115.9079992 101.3994990   8.2669997
 116.5619992 100.8494990   8.6989997 115.9319992 101.1254990   7.3499997
 116.0007199 101.2872178   8.2021650 121.0639992 102.9494990   7.4819997
 121.6799992 102.4224990   7.9909997 120.4779992 102.3094990   7.0779997
 121.0690652 102.7908919   7.4970277 132.0469992  99.5864990  13.0009997
 131.3579992 100.2444990  12.9059997 132.0619992  99.3884990  13.9379997
 131.9547756  99.6497614  13.1145795 118.0979992  97.9204990  11.5789997
 117.8789992  98.4504990  10.8119997 117.4299992  98.1464990  12.2259997
 117.9776975  98.0235979  11.5615123 125.4669992 107.4204990   5.1229997
 125.1709992 107.0974990   4.2709997 125.1429992 108.3204990   5.1639997
 125.3827458 107.4979678   5.0120598  14.6059992  51.2174990  77.3859997
  14.9589992  50.8374990  78.1899997  13.6569992  51.1234990  77.4719997
  14.5260985  51.1527330  77.5077738 120.6669992 105.5954990  11.8659997
 119.9269992 106.1944990  11.9699997 121.3809992 106.1494990  11.5499997
 120.6623146 105.7522611  11.8375150 128.7739992  98.4244990   7.8859997
 128.5589992  97.6584990   8.4189997 129.4299992  98.8964990   8.3989997
 128.8332673  98.3835739   8.0281972 117.6919992  99.8124990   9.5309997
 118.3049992 100.4454990   9.9039997 118.2039992  99.3404990   8.8749997
 117.8451933  99.8353380   9.4933477 119.0739992 107.5604990  12.6529997
 119.0689992 108.4394990  12.2749997 118.2209992 107.4764990  13.0779997
 118.9579199 107.6695901  12.6586942 115.1959992 107.2314990   3.4349997
 114.9239992 107.4604990   2.5459997 115.2409992 108.0684990   3.8959997
 115.1648360 107.3761034   3.3756186 128.8209992 108.8524990  10.1479997
 127.8789992 108.9114990  10.3099997 129.0969992 109.7584990  10.0109997
 128.7295865 108.9830299  10.1516174 129.1209992  97.1394990  11.5649997
 128.3849992  97.7494990  11.5279997 129.8049992  97.5544990  11.0389997
 129.1125367  97.2792562  11.4888156 122.1239992  95.2254990   9.0309997
 122.0069992  94.2774990   8.9769997 121.2689992  95.5584990   9.3039997
 121.9923691  95.1405842   9.0605072 127.0729992 110.6334990   6.7729997
 127.4979992 109.9264990   6.2879997 127.3899992 111.4354990   6.3559997
 127.1740266 110.6450201   6.6502461 128.2319992 108.5344990   5.2819997
 127.9749992 107.8444990   4.6699997 128.3029992 108.0914990   6.1269997
 128.2064322 108.3801568   5.3125372  15.0619992  54.8404990  90.7809997
  14.4599992  54.2844990  90.2859997  15.3429992  55.5074990  90.1549997
  15.0175757  54.8545755  90.6285657 129.9179992 107.1014990  13.7589997
 130.0579992 106.5094990  13.0199997 130.0859992 107.9744990  13.4029997
 129.9598734 107.1384041  13.6096937 124.3909992 104.0634990   3.5319997
 123.6789992 104.5984990   3.1799997 125.0819992 104.1184990   2.8719997
 124.3869704 104.1441663   3.3945797 124.4449992 102.5204990   0.5699997
 125.1459992 102.5434990   1.2219997 124.7469992 101.8924990  -0.0860003
 124.5818202 102.4387223   0.5705591 131.7599992 103.4414990  11.8249997
 131.1079992 104.1354990  11.9139997 132.2249992 103.6514990  11.0149997
 131.7335357 103.5649544  11.7277056 127.7969992 104.2724990   4.4829997
 127.0649992 104.5014990   5.0559997 128.2439992 103.5594990   4.9379997
 127.7572753 104.2073984   4.6229698 127.6939992 102.4474990  13.5509997
 127.7739992 103.2104990  14.1229997 127.0929992 102.7264990  12.8609997
 127.6236547 102.5897468  13.5360029 119.4419992 104.9034990   6.3659997
 119.1119992 104.5324990   5.5479997 120.0299992 104.2324990   6.7129997
 119.4763182 104.7620648   6.3009898 120.8089992 108.3314990   9.0469997
 120.7139992 107.7524990   8.2909997 121.5379992 107.9604990   9.5429997
 120.8946011 108.2020572   9.0106011 119.8089992 103.6714990   9.9989997
 120.3739992 103.7934990   9.2369997 120.1269992 104.3094990  10.6379997
 119.9293619 103.7744388   9.9810019 126.1179992 109.1754990  10.7329997
 125.8769992 109.8374990  11.3809997 125.9199992 108.3404990  11.1579997
 126.0582662 109.1532704  10.8791008   3.1839992  42.0734990  90.1879997
   2.2909992  42.4114990  90.1209997   3.0849992  41.2174990  90.6059997
   3.0485241  42.0040941  90.2352982 120.6889992 108.0714990  14.7169997
 120.3769992 108.8534990  15.1719997 120.0389992 107.9184990  14.0309997
 120.5584858 108.1577882  14.6865344 126.6679992 103.4354990   2.1689997
 127.2469992 103.5854990   2.9149997 127.0819992 103.9054990   1.4449997
 126.8033358 103.5195966   2.1733935 117.6089992 104.2694990  13.9449997
 117.6789992 104.9204990  14.6439997 116.7179992 104.3724990  13.6099997
 117.4981690 104.3724261  13.9953026 124.3939992 110.1714990   5.6039997
 124.8679992 110.4674990   6.3809997 123.8309992 110.9104990   5.3709997
 124.3827890 110.3118047   5.6788084 118.9279992 110.1424990  15.4799997
 118.9359992 110.0064990  14.5329997 118.0119992 110.0254990  15.7319997
 118.8052528 110.1080475  15.3843226 130.3659992  95.1854990   1.9809997
 129.4659992  95.3234990   2.2769997 130.6179992  96.0164990   1.5799997
 130.2767727  95.3168705   1.9672935 118.4319992 103.9724990   3.9549997
 118.1399992 104.7404990   3.4639997 117.7579992 103.3134990   3.7919997
 118.3008843 103.9884537   3.8657695 131.5559992 109.5514990   0.3579997
 131.6289992 110.4904990   0.5279997 132.4609992 109.2464990   0.3019997
 131.6884170 109.6388294   0.3737045 114.5249992 106.3354990  12.7699997
 114.0239992 106.3074990  11.9549997 114.5309992 105.4304990  13.0799997
 114.4571690 106.2092234  12.7002770 114.2759992 109.1164990   9.6539997
 115.2219992 108.9714990   9.6349997 114.1629992 109.9004990  10.1909997
 114.3903578 109.2026708   9.7240300  15.4719992  49.8894990  79.6119997
  15.1949992  49.1614990  80.1679997  16.3989992  50.0084990  79.8179997
  15.5594181  49.8060068  79.7158972 132.4729992 109.7824990  15.3369997
 132.4239992 108.8264990  15.2989997 131.6469992 110.0494990  15.7379997
 132.3545096 109.6878416  15.3860698 123.4519992 109.3564990  14.2129997
 123.5389992 110.1824990  14.6879997 122.5879992 109.0264990  14.4619997
 123.3471944 109.4249871  14.3116558 123.8659992 113.1284990   4.0189997
 123.7909992 113.0074990   3.0719997 123.8989992 114.0774990   4.1369997
 123.8602083 113.2402639   3.9054973 117.5199992 111.9174990   5.7999997
 117.6719992 111.5694990   6.6779997 116.6689992 111.5604990   5.5439997
 117.4258344 111.8215891   5.8856851 126.9679992 112.2824990   1.0209997
 127.3429992 111.5384990   0.5499997 126.9719992 112.0124990   1.9389997
 127.0198969 112.1440920   1.0806475 126.6369992 112.2084990   3.7699997
 125.7019992 112.3084990   3.9489997 126.9169992 111.4984990   4.3489997
 126.5469471 112.1262944   3.8726678 129.6249992 101.2754990  15.8169997
 129.2179992 101.7554990  15.0959997 129.6659992 100.3694990  15.5089997
 129.5748403 101.2187989  15.6767253 116.7739992 107.6594990  13.8129997
 116.9899992 107.2974990  14.6729997 115.9189992 107.2844990  13.6039997
 116.6879082 107.5593377  13.9022396 119.3929992  96.1294990   9.8089997
 118.5309992  96.0424990   9.4009997 119.3709992  96.9854990  10.2369997
 119.2720557  96.2333078   9.8110202 124.0559992  95.8514990  13.1839997
 124.4759992  95.4364990  13.9369997 123.1229992  95.6724990  13.3009997
 123.9873736  95.7704921  13.3028950   2.8349992  53.8774990  88.6229997
   3.0519992  52.9454990  88.5919997   3.0819992  54.1524990  89.5069997
   2.8980543  53.7870877  88.7381412 127.3819992  99.6064990  14.0369997
 126.8679992  99.4814990  14.8349997 127.2269992 100.5194990  13.7929997
 127.2907802  99.7127433  14.1131504 128.1449992 104.4674990  -0.2020003
 128.1869992 104.2454990  -1.1320003 128.9939992 104.8664990  -0.0120003
 128.2655253 104.4910510  -0.3036196 123.7179992  98.3434990   0.4689997
 123.4639992  98.3624990   1.3909997 123.4609992  97.4724990   0.1669997
 123.6484508  98.2283292   0.5544786 119.4839992 101.0944990  10.9039997
 118.8419992 101.0544990  11.6129997 119.5209992 102.0214990  10.6659997
 119.4011659 101.2142540  10.9688463 119.4809992 101.3154990   5.8159997
 118.5879992 100.9754990   5.7569997 119.9319992 100.9384990   5.0599997
 119.4197185 101.2180220   5.7057698 125.0169992 101.7314990   4.6329997
 124.6079992 102.5464990   4.3409997 125.7369992 101.5914990   4.0189997
 125.0584439 101.8240383   4.5100098 124.1189992 101.9074990  16.1209997
 123.5559992 101.2024990  16.4419997 124.9449992 101.7864990  16.5889997
 124.1536674 101.7947176  16.2281734 126.0209992 101.1774990   7.4469997
 125.8259992 101.7834990   6.7319997 126.2029992 100.3444990   7.0129997
 126.0189195 101.1477936   7.2904079 117.2339992 101.4154990  12.7709997
 117.1959992 101.8154990  13.6399997 116.7429992 100.5984990  12.8609997
 117.1624374 101.3598228  12.9020980 120.5999992  98.7894990  -0.4300003
 120.1689992  98.3444990   0.2989997 119.8819992  99.1604990  -0.9430003
 120.4439176  98.7787063  -0.3995087   7.6339992  51.8994990  78.2889997
   7.7809992  51.3794990  79.0789997   7.6309992  52.8064990  78.5949997
   7.6537300  51.9508975  78.4385877 113.8419992  98.5314990   6.6219997
 114.4729992  98.5024990   7.3409997 114.2919992  98.1064990   5.8909997
 113.9891082  98.4701269   6.6216307 115.1159992  99.2774990   2.0459997
 115.5909992  99.8684990   1.4609997 114.3989992  99.8074990   2.3929997
 115.0840406  99.4301011   2.0128495 125.2849992 102.8154990  12.1179997
 125.6089992 102.1844990  11.4749997 124.8449992 102.2814990  12.7789997
 125.2698707 102.6568261  12.1193195 122.0629992  98.7434990   6.9019997
 121.1519992  98.8004990   7.1909997 122.5679992  98.6834990   7.7129997
 122.0066873  98.7431838   7.0511190 116.8909992 100.3724990   5.7289997
 116.0019992 100.4714990   5.3889997 117.1869992  99.5304990   5.3829997
 116.8094001 100.2722473   5.6357318 120.5439992 100.3724990   3.3859997
 121.4759992 100.5014990   3.5639997 120.3289992 101.0414990   2.7359997
 120.6424472 100.4805817   3.3224873 126.4679992  97.9784990  10.1659997
 125.7909992  98.1094990  10.8299997 125.9819992  97.8234990   9.3559997
 126.3097265  97.9754665  10.1473380 119.2179992 101.5664990   0.9519997
 118.6759992 101.1874990   0.2609997 120.0519992 101.7614990   0.5239997
 119.2564390 101.5409091   0.7994374 129.7549992 113.6494990  16.4429997
 129.9549992 114.0734990  15.6089997 130.4109992 113.9934990  17.0499997
 129.8709937 113.7539993  16.4108645 117.3529992 106.1234990  16.0509997
 118.0849992 106.3784990  16.6129997 116.5729992 106.3284990  16.5669997
 117.3476526 106.1860438  16.1975168  11.9179992  41.8144990  89.0779997
  12.6169992  41.8884990  89.7279997  11.5379992  40.9494990  89.2329997
  11.9622095  41.7077402  89.1877982 123.3829992 101.5304990   8.7889997
 123.9469992 100.9844990   8.2419997 123.2349992 101.0094990   9.5779997
 123.4403037 101.3851798   8.8207212 118.3849992  97.6674990   5.2079997
 118.0669992  96.7644990   5.1719997 119.1659992  97.6694990   4.6549997
 118.4471079  97.5442240   5.1282908 122.0089992  99.9194990  11.2029997
 121.1739992 100.3734990  11.3139997 122.5329992 100.1954990  11.9549997
 121.9656072 100.0188960  11.3198118 122.5529992 106.1324990   2.8879997
 121.8079992 105.6244990   2.5659997 122.4189992 106.1814990   3.8339997
 122.4329334 106.0696144   2.9718892 129.7029992 105.2654990  11.6749997
 130.3449992 105.7214990  11.1309997 128.8729992 105.3784990  11.2119997
 129.6786536 105.3431813  11.5379579 126.4509992  98.9464990   1.0869997
 125.5119992  99.0574990   0.9359997 126.7479992  99.8024990   1.3939997
 126.3626136  99.0774977   1.1078568 124.0729992 106.3164990  14.1249997
 123.7269992 105.9344990  14.9319997 123.8729992 107.2494990  14.1959997
 123.9985987 106.3904013  14.2450443 127.1689992 100.8134990   2.7479997
 128.0609992 100.6754990   3.0669997 127.2259992 101.6044990   2.2109997
 127.2987380 100.9014777   2.7190981 117.6779992 105.4274990   8.6579997
 118.4229992 105.4244990   8.0559997 117.7559992 104.6034990   9.1389997
 117.7903366 105.3157395   8.6407412 124.6789992 107.5904990   1.9129997
 124.3839992 108.4174990   2.2949997 123.9759992 106.9714990   2.1099997
 124.5436379 107.6199182   1.9918636  12.7029992  41.4664990  80.1749997
  12.9229992  41.9374990  79.3719997  13.2609992  41.8604990  80.8459997
  12.8085851  41.5843272  80.1556134 114.6859992 103.8874990  13.9729997
 114.9089992 103.4694990  14.8039997 114.0839992 103.2754990  13.5499997
 114.6351513 103.7474617  14.0296722 121.7029992 103.4044990  16.1859997
 121.4069992 103.2394990  15.2899997 122.6339992 103.1844990  16.1749997
 121.7884401 103.3521891  16.0620189 126.3229992 108.7784990  14.0749997
 125.4219992 108.9614990  13.8079997 126.3569992 109.0374990  14.9959997
 126.2043861 108.8385245  14.1629517 132.0539992 101.0224990   2.4429997
 131.4999992 100.6264990   1.7699997 132.1549992 101.9334990   2.1649997
 131.9918589 101.0913904   2.3133839 132.0169992 106.8234990  15.2799997
 131.1659992 107.0614990  14.9119997 132.6079992 106.8064990  14.5259997
 131.9803831 106.8537623  15.1278448 130.3489992 109.8084990   2.9079997
 129.9769992 108.9834990   3.2169997 130.6269992 109.6254990   2.0099997
 130.3355807 109.6707031   2.8290063 127.5099992 104.6164990   9.9289997
 126.5819992 104.3854990   9.9019997 127.9609992 103.8394990   9.5989997
 127.4438165 104.4797785   9.8806772 120.0529992 108.9454990   6.0619997
 120.5799992 109.7184990   5.8619997 119.1729992 109.1694990   5.7599997
 120.0062121 109.0817344   5.9937460 115.8079992 103.8074990   0.6489997
 116.4239992 104.4344990   1.0289997 114.9459992 104.1234990   0.9209997
 115.7757678 103.9359423   0.7377192 121.4799992 106.6084990   5.6379997
 121.2389992 107.5334990   5.6799997 120.7399992 106.1494990   6.0349997
 121.3469463 106.6730969   5.6974279  10.3719992  53.5964990  79.0379997
   9.5549992  54.0934990  79.0909997  10.9009992  54.0724990  78.3979997
  10.3317898  53.7288123  78.9587274 121.9949992 110.7574990  11.9529997
 122.3579992 111.6114990  11.7199997 122.5269992 110.4654990  12.6939997
 122.1165141 110.8348907  12.0212079 120.1629992 111.6294990   5.1839997
 119.2139992 111.7354990   5.2349997 120.5149992 112.4504990   5.5279997
 120.0805647 111.7550029   5.2374882 125.5389992 106.8564990  11.6539997
 125.1129992 106.6284990  12.4799997 126.1199992 106.1174990  11.4719997
 125.5592088 106.7254393  11.7424454 127.7419992 107.7854990   0.7279997
 128.0949992 107.4054990   1.5319997 126.7929992 107.6914990   0.8149997
 127.6620956 107.7207867   0.8498005 128.1979992 111.4084990  14.1229997
 127.5959992 110.8524990  13.6279997 128.4789992 112.0754990  13.4969997
 128.1535757 111.4225755  13.9705657 132.2449992 112.2644990   0.9289997
 132.9889992 112.8504990   0.7889997 131.5509992 112.8334990   1.2619997
 132.2529809 112.4215830   0.9548572 116.3199992  98.6414990  13.5309997
 115.4269992  98.9794990  13.4629997 116.2209992  97.7854990  13.9489997
 116.1844752  98.5720986  13.5781644 128.6079992 106.4574990   2.9549997
 128.3309992 105.7294990   3.5109997 129.5349992 106.5764990   3.1599997
 128.6954419 106.3739436   3.0588264 115.9709992 110.4454990  11.9659997
 116.1879992 109.5134990  11.9349997 116.2179992 110.7204990  12.8489997
 116.0340948 110.3550976  12.0811268 120.7699992 108.4674990   1.6309997
 120.9169992 107.9474990   2.4209997 120.7669992 109.3744990   1.9379997
 120.7897102 108.5188964   1.7805907   9.9029992  43.1944990  81.0099997
  10.7149992  43.6984990  81.0559997   9.6579992  43.0494990  81.9239997
   9.9811091  43.2439366  81.1398552 117.2229992 105.7194990   2.1419997
 116.5369992 106.0724990   2.7089997 117.7459992 106.4824990   1.8949997
 117.1998402 105.8708912   2.1861783 125.0539992  98.3824990  12.4209997
 125.7529992  98.4564990  13.0709997 124.6739992  97.5174990  12.5749997
 125.0982662  98.2757050  12.5307412 125.8389992  98.0344990   3.5179997
 126.0589992  98.5054990   2.7139997 126.3969992  98.4284990   4.1879997
 125.9446044  98.1522946   3.4985207 123.5079992 110.1644990   2.3809997
 122.6909992 110.6614990   2.4329997 124.0369992 110.6404990   1.7399997
 123.4678125 110.2967000   2.3015289 123.0389992  99.7624990   4.3529997
 123.8509992 100.2664990   4.3989997 122.7939992  99.6174990   5.2669997
 123.1171091  99.8119366   4.4828552 123.5749992 100.7484990  13.5369997
 123.6939992 101.3224990  14.2939997 124.2299992 100.0604990  13.6519997
 123.6798684 100.7340205  13.6561656 123.9229992  96.8434990   5.2909997
 123.5759992  97.4604990   5.9349997 124.5809992  97.3444990   4.8089997
 123.9644430  96.9956860   5.3140046 120.8459992 111.2084990   2.3619997
 121.0069992 112.0084990   1.8619997 120.6489992 111.5154990   3.2469997
 120.8413906 111.3593690   2.4132316 119.5799992  97.9064990   1.9779997
 119.4969992  98.7944990   2.3249997 120.4699992  97.6414990   2.2099997
 119.6889331  97.9921177   2.0568067 129.7789992  98.6554990  14.3719997
 128.8629992  98.9174990  14.2849997 130.1149992  98.6524990  13.4759997
 129.6988499  98.6910174  14.2388748  10.4389992  44.1804990  90.1949997
  10.5579992  44.7544990  90.9519997  11.0939992  43.4924990  90.3099997
  10.5438684  44.1660205  90.3141656 128.3809992 102.4054990   8.4679997
 127.5839992 101.9904990   8.1399997 128.8259992 101.7154990   8.9589997
 128.3320367 102.2553372   8.4894897 117.8389992 108.3334990   1.0379997
 118.4309992 109.0334990   1.3149997 118.2979992 107.9004990   0.3189997
 117.9821652 108.3707686   0.9786515 116.1549992 100.9984990   0.1539997
 116.1099992 101.9374990   0.3329997 115.2669992 100.7624990  -0.1150003
 116.0288166 101.0951698   0.1421507 129.4679992 111.6614990  10.0899997
 129.3119992 112.3404990   9.4329997 130.3999992 111.7334990  10.2929997
 129.5727328 111.7641586  10.0275529 116.9629992  95.7794990   8.8269997
 116.7339992  95.8384990   7.8999997 116.5199992  94.9884990   9.1339997
 116.8717387  95.6806412   8.7415223 115.8929992 109.7204990   4.9879997
 115.0609992 110.1924990   5.0149997 116.4389992 110.2304990   4.3889997
 115.8528710 109.8540317   4.9107570 115.1819992 112.3324990  16.3179997
 115.7219992 112.1164990  17.0779997 114.6999992 111.5274990  16.1279997
 115.1908485 112.1940463  16.3964870 119.7789992 111.2524990  17.9379997
 120.5469992 110.7934990  18.2789997 119.7579992 111.0264990  17.0079997
 119.8812135 111.1591680  17.8589473 123.8709992 110.7604990  -0.6870003
 123.2269992 110.1294990  -0.3650003 124.6329992 110.2294990  -0.9180003
 123.8858708 110.6023171  -0.6741539 126.3559992 109.6324990  16.6669997
 126.0049992 108.7754990  16.9099997 127.0819992 109.7744990  17.2739997
 126.4061590 109.5345189  16.7822889  10.7869992  40.2754990  81.9479997
  10.4399992  40.8924990  82.5929997  11.4449992  40.7764990  81.4669997
  10.8285290  40.4276384  81.9711635 128.4749992 110.5774990  -0.4530003
 128.7579992 109.7824990  -0.0000003 129.2149992 110.8104990  -1.0140003
 128.6137295 110.5002349  -0.4668531 115.0889992 106.1434990  17.2719997
 115.2329992 105.2414990  16.9859997 114.3159992 106.4294990  16.7849997
 115.0042266 106.0586548  17.1670102 119.4299992 106.4864990  -0.5950003
 119.4939992 105.6924990  -0.0650003 120.0829992 106.3684990  -1.2850003
 119.5270483 106.3617496  -0.6156593 121.7439992 106.1124990  16.7049997
 121.4159992 106.3834990  15.8479997 121.8959992 105.1714990  16.6169997
 121.7196412 106.0224058  16.5757804 127.4789992 106.0284990  14.0879997
 128.2239992 106.6174990  13.9689997 126.7209992 106.6104990  14.1509997
 127.4785289 106.1877067  14.0802292 115.9209992 103.3434990  16.6919997
 116.3289992 102.4864990  16.5709997 115.6609992 103.3574990  17.6129997
 115.9417082 103.2280596  16.7999469 120.5789992 104.4594990   1.7109997
 120.1199992 103.9754990   2.3959997 120.8339992 103.7904990   1.0749997
 120.5505997 104.3028491   1.7188734 119.8679992 102.3524990  14.0669997
 119.2499992 103.0264990  14.3469997 120.2119992 102.6734990  13.2329997
 119.8298078 102.4882298  13.9926609 121.6499992 102.7024990  -0.0270003
 121.4699992 102.5474990  -0.9540003 122.5999992 102.8104990   0.0179997
 121.7537804 102.6958821  -0.1478034 124.8879992 104.8234990  17.3439997
 125.8409992 104.9074990  17.3169997 124.7279992 104.1114990  17.9629997
 124.9967320 104.7387292  17.4239933   7.7099992  54.6404990  79.0199997
   7.8709992  55.4404990  78.5189997   7.5129992  54.9474990  79.9049997
   7.7053919  54.7914140  79.0710988 131.0399992 105.0564990  -0.5810003
 130.7669992 104.6324990  -1.3940003 131.0799992 105.9884990  -0.7980003
 131.0080201 105.1243523  -0.7216452 120.2079992  99.7074990  15.1489997
 120.3579992  98.9784990  14.5469997 120.2099992 100.4844990  14.5899997
 120.2287967  99.7127720  14.9910523 120.6199992  98.0764990  12.6419997
 121.1559992  98.5284990  11.9899997 119.7679992  97.9684990  12.2189997
 120.5781795  98.1237444  12.4956211 122.2019992 103.5164990  12.8809997
 122.9529992 103.3604990  12.3079997 121.8629992 104.3684990  12.6059997
 122.2589587 103.6103149  12.7654060 126.6179992 101.3314990  17.9099997
 126.8099992 100.4004990  17.7979997 127.4749992 101.7564990  17.8989997
 126.7602176 101.2615090  17.8931757 127.9339992 104.1204990  15.9869997
 127.6529992 104.8294990  15.4089997 128.8769992 104.0474990  15.8359997
 128.0229272 104.2076704  15.8874976 118.6859992 100.9054990  17.0599997
 117.9189992 100.3724990  16.8499997 119.3649992 100.5954990  16.4609997
 118.6728292 100.7906360  16.9502693 121.4259992  95.5334990  13.0729997
 121.3279992  96.4794990  12.9679997 120.6829992  95.1604990  12.5969997
 121.3122123  95.6126811  12.9943204 122.6899992  99.8544990  16.6369997
 122.4539992  99.6354990  17.5379997 121.9069992  99.6474990  16.1269997
 122.5518382  99.7965340  16.6913991 125.4059992  98.9824990  15.7119997
 124.4579992  99.0144990  15.8439997 125.7179992  98.3564990  16.3659997
 125.3185293  98.9022934  15.8184130  16.6429992  42.0874990  91.0299997
  15.7269992  42.3494990  90.9419997  16.9789992  42.0844990  90.1329997
  16.5629789  42.1229637  90.8967829 127.0399992  97.6164990  17.7169997
 126.9429992  96.6644990  17.7119997 126.7179992  97.8844990  18.5779997
 126.9832468  97.5225896  17.8326192 116.8669992  98.8254990  16.7649997
 117.0779992  98.1194990  16.1549997 116.7549992  98.3884990  17.6089997
 116.8807668  98.6696619  16.7955445 121.6479992  94.8274990  15.7439997
 122.3589992  94.1874990  15.7299997 121.5469992  95.0934990  14.8309997
 121.7316858  94.7758591  15.6185501 122.0009992  96.5094990  17.7979997
 121.8699992  96.0344990  16.9779997 121.4019992  97.2544990  17.7429997
 121.9020829  96.5450949  17.6781823 121.5479992 113.3924990   0.9739997
 122.4809992 113.5504990   1.1179997 121.2829992 114.0684990   0.3489997
 121.6399846 113.5054567   0.9092930 115.1159992 108.0294990   0.4569997
 116.0299992 108.1084990   0.7299997 115.1229992 107.3424990  -0.2090003
 115.2420624 107.9474074   0.4043045 113.7649992 113.4224990   5.5339997
 113.1179992 112.9604990   5.0019997 114.1199992 112.7504990   6.1169997
 113.7243741 113.2684785   5.5399157 114.6349992 111.5024990   7.3389997
 114.3009992 110.6224990   7.5109997 114.8569992 111.8484990   8.2039997
 114.6192565 111.4287410   7.4794263 132.1839992 112.3124990  10.3199997
 132.1619992 112.4974990  11.2579997 132.8739992 112.8804990   9.9789997
 132.2743383 112.4147104  10.4024580 131.7469992 111.8794990  13.2409997
 131.2599992 111.1434990  12.8699997 132.2959992 111.4854990  13.9189997
 131.7546101 111.7256267  13.2819034  15.2449992  45.8374990  85.1259997
  14.4479992  45.4224990  84.7969997  15.6899992  45.1474990  85.6169997
  15.1960317  45.6873197  85.1473556 130.1979992 107.6694990  17.8789997
 129.3319992 107.5644990  18.2739997 130.5739992 108.4274990  18.3259997
 130.1304940 107.7576141  17.9933958 131.4989992 105.9254990   3.3939997
 132.3489992 106.3464990   3.5209997 131.5039992 105.1854990   4.0009997
 131.6161143 105.8831106   3.4934732 131.8929992 103.9794990   5.2169997
 131.1669992 103.4994990   5.6149997 132.4739992 104.1844990   5.9489997
 131.8722504 103.9415592   5.3704199 131.6519992 106.7644990  10.1649997
 132.4859992 106.3864990   9.8839997 131.7639992 107.7074990  10.0459997
 131.7811917 106.8402954  10.1104844 130.1379992 109.6424990  12.4719997
 129.4909992 109.9674990  13.0969997 129.6209992 109.2014990  11.7979997
 129.9794112 109.6274133  12.4665272 132.1609992 103.8804990   1.6079997
 131.6399992 104.2364990   0.8899997 132.1279992 104.5554990   2.2869997
 132.0850955 104.0205023   1.6012634 130.5099992 101.1194990   0.1589997
 130.6069992 101.7864990  -0.5210003 130.3699992 100.3044990  -0.3220003
 130.5043407 101.1005670   0.0008312 129.6799992 102.5004990   5.7799997
 129.5299992 101.5554990   5.7599997 129.3259992 102.7814990   6.6239997
 129.6116351 102.4091656   5.8913202 114.7149992 104.5784990   9.7909997
 114.8989992 104.4964990   8.8549997 115.5639992 104.4544990  10.2139997
 114.8550132 104.5505066   9.7201460 130.5359992 104.4704990  15.4189997
 131.1189992 103.7354990  15.6109997 131.0999992 105.2424990  15.4659997
 130.6919781 104.4743156  15.4516146   4.7029992  51.7654990  77.6959997
   5.2949992  52.4654990  77.9719997   5.1619992  51.3324990  76.9769997
   4.8461172  51.8027371  77.6365163 132.0329992 102.3734990  16.1039997
 131.1689992 101.9944990  15.9379997 132.6369992 101.6344990  16.0289997
 131.9965394 102.2218378  16.0711778 129.3899992 100.0824990   4.2429997
 129.6699992  99.1754990   4.3669997 130.1489992 100.5164990   3.8539997
 129.5309258 100.0170935   4.2073691 130.0019992 100.6644990   9.6789997
 130.9349992 100.8764990   9.6439997 129.7669992 100.7654990  10.6009997
 130.0979517 100.7071844   9.7989113 130.0309992 101.4014990  12.4549997
 129.1879992 101.6694990  12.8199997 130.4739992 102.2234990  12.2439997
 129.9754035 101.5493351  12.4764770 114.3119992  99.8484990  15.9309997
 115.2319992  99.7264990  16.1679997 113.8629992  99.0984990  16.3209997
 114.3770500  99.7304576  16.0161016 132.3139992  95.3814990  17.8079997
 132.6639992  94.7274990  17.2019997 132.4609992  96.2184990  17.3679997
 132.3817192  95.4052545  17.6656712 130.0039992  97.3454990   4.2909997
 130.1859992  96.8964990   5.1159997 129.4039992  96.7614990   3.8269997
 129.9478187  97.2050563   4.3412721 115.5339992  98.1614990   8.8229997
 115.9789992  97.3694990   9.1249997 115.9999992  98.8774990   9.2529997
 115.6579718  98.1499546   8.9225247 113.8379992 101.1604990   9.8919997
 114.3299992 100.9394990   9.1009997 114.1999992 102.0004990  10.1729997
 113.9542923 101.2438480   9.8217389 131.8339992  97.4904990  16.1569997
 130.9169992  97.7614990  16.1209997 131.9569992  96.9554990  15.3729997
 131.7250828  97.4552711  16.0460767   3.0189992  44.4304990  76.8119997
   2.9739992  45.3694990  76.9909997   2.1309992  44.1944990  76.5419997
   2.8928472  44.5271946  76.8000282 131.8699992  97.4134990   0.8189997
 132.2829992  96.6924990   0.3439997 132.5519992  98.0824990   0.8769997
 132.0186060  97.4053741   0.7619233 114.1509992  97.4184990   3.9459997
 113.2259992  97.6264990   3.8169997 114.6049992  97.9024990   3.2559997
 114.0856298  97.5124311   3.8350433 128.9219992 112.4024990   5.8919997
 129.5739992 112.0544990   5.2839997 129.4329992 112.8904990   6.5379997
 129.0802872 112.4208248   5.8960964 114.1149992  96.1564990  12.2899997
 113.4499992  95.9104990  12.9329997 113.6719992  96.7784990  11.7129997
 113.9641168  96.2069225  12.2999830 116.3069992 109.3314990  16.4349997
 115.4859992 109.5064990  15.9739997 116.0549992 109.2584990  17.3549997
 116.1605594 109.3455728  16.4963593 119.2609992 110.3054990  12.6929997
 118.8359992 111.1154990  12.4109997 120.1649992 110.3914990  12.3909997
 119.3250706 110.4279557  12.6135836 123.5719992 111.7044990  15.6529997
 123.7569992 111.3714990  16.5309997 124.4189992 112.0144990  15.3309997
 123.7117291 111.7008214  15.7296140 125.9169992 112.9904990  14.8969997
 126.5939992 112.3574990  14.6569997 126.2389992 113.3914990  15.7039997
 126.0531618 112.9581147  14.9732802 130.8349992  95.5804990  13.9759997
 130.0219992  95.9054990  13.5889997 131.0679992  94.8194990  13.4429997
 130.7551347  95.5221891  13.8509824 116.6629992 113.5624990  12.7409997
 115.9419992 114.0024990  12.2899997 116.2969992 113.3114990  13.5889997
 116.5149632 113.5887235  12.7939649  16.3319992  55.0934990  86.7479997
  16.1759992  55.7724990  86.0909997  17.2639992  55.1654990  86.9509997
  16.4367328  55.1961586  86.6855529 119.1299992 113.1624990  11.7699997
 118.2649992 113.2344990  12.1739997 119.0749992 113.7094990  10.9869997
 119.0042290 113.2463242  11.7193749 123.8409992 113.0504990  10.9459997
 123.3839992 113.5794990  10.2919997 124.0029992 113.6534990  11.6709997
 123.8003919 113.2043990  10.9545740 126.1679992 111.9284990  11.8909997
 125.2639992 112.0934990  11.6249997 126.5969992 112.7814990  11.8249997
 126.1022017 112.0664184  11.8456495 128.7719992 113.4984990  12.1859997
 128.5909992 114.4144990  11.9749997 128.9489992 113.0874990  11.3389997
 128.7711377 113.5683365  12.0427178 116.0779992 112.1854990   9.6509997
 116.0589992 111.7594990  10.5079997 116.8819992 111.8664990   9.2419997
 116.1841393 112.0840297   9.7130155 118.2189992 110.8954990   8.3059997
 117.9999992 109.9784990   8.4759997 119.0429992 111.0354990   8.7719997
 118.3004702 110.7890523   8.3922510 120.7559992 111.3654990   9.1549997
 120.9689992 110.4774990   8.8679997 120.8209992 111.3304990  10.1089997
 120.7939149 111.2393338   9.2447351 124.2649992  97.0294990   8.2989997
 123.5899992  96.3994990   8.5549997 124.8289992  96.5454990   7.6959997
 124.2489363  96.8778886   8.2524810 129.4069992  95.1364990   8.4119997
 130.0109992  95.6844990   7.9099997 128.5379992  95.4554990   8.1709997
 129.3720419  95.2545628   8.3107741 131.1339992  96.2754990   6.7449997
 131.7459992  95.7614990   6.2179997 131.5169992  97.1524990   6.7679997
 131.2693867  96.3237613   6.6760888   3.8269992  39.2114990  85.4849997
   3.5979992  39.2704990  84.5579997   3.3839992  38.4204990  85.7919997
   3.7357387  39.1126412  85.3995223 116.5909992  95.6634990   6.1209997
 115.8139992  95.4284990   5.6139997 117.1219992  94.8664990   6.1299997
 116.5563735  95.5236462   6.0528090 115.4279992  95.4614990   1.9249997
 115.8669992  96.0724990   1.3329997 114.7939992  95.9994990   2.3989997
 115.4023859  95.6179076   1.9080287 121.1709992  95.5894990   5.9339997
 122.0449992  95.9784990   5.9049997 121.0349992  95.3744990   6.8569997
 121.2721953  95.6136654   6.0547599 126.7269992  95.6194990   7.5839997
 126.8039992  95.7154990   6.6339997 126.4519992  94.7124990   7.7119997
 126.7003233  95.5099093   7.4713665 128.0809992  95.6454990   3.2759997
 127.3779992  96.2604990   3.0659997 127.6359992  94.8084990   3.4069997
 127.9246550  95.6164679   3.2649819 115.3289992 111.4094990   2.8219997
 114.6439992 111.3714990   2.1549997 115.3319992 112.3214990   3.1099997
 115.2356806 111.5276669   2.7696961 117.2889992  97.3774990   0.3669997
 117.7799992  96.7474990  -0.1600003 117.9119992  97.6734990   1.0299997
 117.4405304  97.3312387   0.3844922 122.3149992  97.6704990   2.8239997
 122.4929992  97.0234990   3.5069997 122.2609992  98.5044990   3.2909997
 122.3320678  97.6946615   2.9806283 124.1929992 112.6184990   1.2199997
 125.0589992 112.9854990   1.0419997 123.9459992 112.1794990   0.4059997
 124.2781853 112.6094021   1.0855813 130.9019992 112.1814990   3.8989997
 130.7079992 111.4334990   3.3339997 130.8629992 112.9394990   3.3159997
 130.8701645 112.1815797   3.7428131   2.7569992  53.1524990  81.6459997
   1.9249992  53.6244990  81.6729997   3.3029992  53.6624990  81.0469997
   2.7168710  53.2860317  81.5687570 116.5489992  96.1774990  15.6389997
 116.1829992  95.4114990  16.0809997 117.4619992  96.2064990  15.9249997
 116.6223172  96.0765335  15.7381872 118.5219992  95.5274990  17.1739997
 119.4209992  95.2534990  16.9899997 118.1359992  94.7854990  17.6389997
 118.5927307  95.3897207  17.2117080 117.1469992 112.3294990  -0.1530003
 116.8789992 112.6154990   0.7209997 117.9179992 111.7834990  -0.0000003
 117.2145926 112.2947790  -0.0128812 126.9429992  94.8604990  17.3569997
 127.0199992  94.4344990  18.2099997 127.8369992  94.8734990  17.0139997
 127.0743263  94.8039345  17.4274366 130.1199992 110.9324990  16.0489997
 129.3379992 110.7464990  15.5289997 130.0479992 111.8624990  16.2659997
 130.0032975 111.0326973  16.0071822 135.8269992 103.6884990  11.0919997
 135.8679992 103.0634990  11.8149997 136.5299992 104.3124990  11.2739997
 135.9276223 103.6872318  11.2156164 136.7509992 108.1384990   9.6269997
 136.3809992 107.3364990   9.2569997 137.6919992 107.9704990   9.6729997
 136.8275984 108.0059649   9.5825586 133.3609992 101.7984990   5.0189997
 132.9129992 102.6444990   5.0009997 132.7999992 101.2194990   4.5039997
 133.2238546 101.8359004   4.9468874 134.0709992 103.9604990   7.1449997
 134.2849992 103.1904990   7.6719997 134.8089992 104.0504990   6.5419997
 134.2000073 103.8673546   7.1355786 138.1439992  99.0024990   7.5049997
 138.1869992  99.8624990   7.0859997 137.6859992  98.4494990   6.8709997
 138.0880163  99.0454174   7.3620604   2.0459992  55.7644990  92.9759997
   2.5859992  55.5484990  93.7349997   1.5639992  54.9594990  92.7859997
   2.0549101  55.6260216  93.0544364 134.7639992 101.3994990   8.2669997
 135.4179992 100.8494990   8.6989997 134.7879992 101.1254990   7.3499997
 134.8567199 101.2872178   8.2021650 136.9539992  97.9204990  11.5789997
 136.7349992  98.4504990  10.8119997 136.2859992  98.1464990  12.2259997
 136.8336975  98.0235979  11.5615123 139.5229992 105.5954990  11.8659997
 138.7829992 106.1944990  11.9699997 140.2369992 106.1494990  11.5499997
 139.5183146 105.7522611  11.8375150 136.5479992  99.8124990   9.5309997
 137.1609992 100.4454990   9.9039997 137.0599992  99.3404990   8.8749997
 136.7011933  99.8353380   9.4933477 137.9299992 107.5604990  12.6529997
 137.9249992 108.4394990  12.2749997 137.0769992 107.4764990  13.0779997
 137.8139199 107.6695901  12.6586942 134.0519992 107.2314990   3.4349997
 133.7799992 107.4604990   2.5459997 134.0969992 108.0684990   3.8959997
 134.0208360 107.3761034   3.3756186 138.2979992 104.9034990   6.3659997
 137.9679992 104.5324990   5.5479997 138.8859992 104.2324990   6.7129997
 138.3323182 104.7620648   6.3009898 138.6649992 103.6714990   9.9989997
 139.2299992 103.7934990   9.2369997 138.9829992 104.3094990  10.6379997
 138.7853619 103.7744388   9.9810019 139.5449992 108.0714990  14.7169997
 139.2329992 108.8534990  15.1719997 138.8949992 107.9184990  14.0309997
 139.4144858 108.1577882  14.6865344 136.4649992 104.2694990  13.9449997
 136.5349992 104.9204990  14.6439997 135.5739992 104.3724990  13.6099997
 136.3541690 104.3724261  13.9953026   6.6429992  54.6844990  94.5959997
   7.4109992  54.2254990  94.9369997   6.6219992  54.4584990  93.6659997
   6.7452135  54.5911680  94.5169473 137.7839992 110.1424990  15.4799997
 137.7919992 110.0064990  14.5329997 136.8679992 110.0254990  15.7319997
 137.6612528 110.1080475  15.3843226 137.2879992 103.9724990   3.9549997
 136.9959992 104.7404990   3.4639997 136.6139992 103.3134990   3.7919997
 137.1568843 103.9884537   3.8657695 133.3809992 106.3354990  12.7699997
 132.8799992 106.3074990  11.9549997 133.3869992 105.4304990  13.0799997
 133.3131690 106.2092234  12.7002770 133.1319992 109.1164990   9.6539997
 134.0779992 108.9714990   9.6349997 133.0189992 109.9004990  10.1909997
 133.2463578 109.2026708   9.7240300 136.3759992 111.9174990   5.7999997
 136.5279992 111.5694990   6.6779997 135.5249992 111.5604990   5.5439997
 136.2818344 111.8215891   5.8856851 135.6299992 107.6594990  13.8129997
 135.8459992 107.2974990  14.6729997 134.7749992 107.2844990  13.6039997
 135.5439082 107.5593377  13.9022396 138.2489992  96.1294990   9.8089997
 137.3869992  96.0424990   9.4009997 138.2269992  96.9854990  10.2369997
 138.1280557  96.2333078   9.8110202 138.3399992 101.0944990  10.9039997
 137.6979992 101.0544990  11.6129997 138.3769992 102.0214990  10.6659997
 138.2571659 101.2142540  10.9688463 138.3369992 101.3154990   5.8159997
 137.4439992 100.9754990   5.7569997 138.7879992 100.9384990   5.0599997
 138.2757185 101.2180220   5.7057698 136.0899992 101.4154990  12.7709997
 136.0519992 101.8154990  13.6399997 135.5989992 100.5984990  12.8609997
 136.0184373 101.3598228  12.9020980  13.2199992  53.0644990  93.3249997
  12.8689992  52.2074990  93.5679997  13.9459992  53.2064990  93.9319997
  13.2701590  52.9665189  93.4402889 139.4559992  98.7894990  -0.4300003
 139.0249992  98.3444990   0.2989997 138.7379992  99.1604990  -0.9430003
 139.2999176  98.7787063  -0.3995087 132.6979992  98.5314990   6.6219997
 133.3289992  98.5024990   7.3409997 133.1479992  98.1064990   5.8909997
 132.8451082  98.4701269   6.6216307 133.9719992  99.2774990   2.0459997
 134.4469992  99.8684990   1.4609997 133.2549992  99.8074990   2.3929997
 133.9400406  99.4301011   2.0128495 135.7469992 100.3724990   5.7289997
 134.8579992 100.4714990   5.3889997 136.0429992  99.5304990   5.3829997
 135.6654001 100.2722473   5.6357318 139.3999992 100.3724990   3.3859997
 140.3319992 100.5014990   3.5639997 139.1849992 101.0414990   2.7359997
 139.4984472 100.4805817   3.3224873 138.0739992 101.5664990   0.9519997
 137.5319992 101.1874990   0.2609997 138.9079992 101.7614990   0.5239997
 138.1124390 101.5409091   0.7994374 136.2089992 106.1234990  16.0509997
 136.9409992 106.3784990  16.6129997 135.4289992 106.3284990  16.5669997
 136.2036526 106.1860438  16.1975168 137.2409992  97.6674990   5.2079997
 136.9229992  96.7644990   5.1719997 138.0219992  97.6694990   4.6549997
 137.3031079  97.5442240   5.1282908 136.5339992 105.4274990   8.6579997
 137.2789992 105.4244990   8.0559997 136.6119992 104.6034990   9.1389997
 136.6463365 105.3157395   8.6407412 133.5419992 103.8874990  13.9729997
 133.7649992 103.4694990  14.8039997 132.9399992 103.2754990  13.5499997
 133.4911513 103.7474617  14.0296722   1.9529992  49.5754990  93.9299997
   2.0969992  48.6734990  93.6439997   1.1799992  49.8614990  93.4419997
   1.8682854  49.4906876  93.8249363 138.9089992 108.9454990   6.0619997
 139.4359992 109.7184990   5.8619997 138.0289992 109.1694990   5.7599997
 138.8622121 109.0817344   5.9937460 134.6639992 103.8074990   0.6489997
 135.2799992 104.4344990   1.0289997 133.8019992 104.1234990   0.9209997
 134.6317678 103.9359423   0.7377192 139.0189992 111.6294990   5.1839997
 138.0699992 111.7354990   5.2349997 139.3709992 112.4504990   5.5279997
 138.9365647 111.7550029   5.2374882 135.1759992  98.6414990  13.5309997
 134.2829992  98.9794990  13.4629997 135.0769992  97.7854990  13.9489997
 135.0404752  98.5720986  13.5781644 134.8269992 110.4454990  11.9659997
 135.0439992 109.5134990  11.9349997 135.0739992 110.7204990  12.8489997
 134.8900948 110.3550976  12.0811268 136.0789992 105.7194990   2.1419997
 135.3929992 106.0724990   2.7089997 136.6019992 106.4824990   1.8949997
 136.0558402 105.8708912   2.1861784 138.4359992  97.9064990   1.9779997
 138.3529992  98.7944990   2.3249997 139.3259992  97.6414990   2.2099997
 138.5449331  97.9921177   2.0568067 136.6949992 108.3334990   1.0379997
 137.2869992 109.0334990   1.3149997 137.1539992 107.9004990   0.3189997
 136.8381652 108.3707686   0.9786515 135.0109992 100.9984990   0.1539997
 134.9659992 101.9374990   0.3329997 134.1229992 100.7624990  -0.1150003
 134.8848166 101.0951698   0.1421507 135.8189992  95.7794990   8.8269997
 135.5899992  95.8384990   7.8999997 135.3759992  94.9884990   9.1339997
 135.7277387  95.6806412   8.7415223   8.6079992  49.5444990  93.3629997
   8.2799992  49.8154990  92.5049997   8.7599992  48.6034990  93.2749997
   8.5836970  49.4543694  93.2337953 134.7489992 109.7204990   4.9879997
 133.9169992 110.1924990   5.0149997 135.2949992 110.2304990   4.3889997
 134.7088710 109.8540317   4.9107570 134.0379992 112.3324990  16.3179997
 134.5779992 112.1164990  17.0779997 133.5559992 111.5274990  16.1279997
 134.0468485 112.1940463  16.3964870 138.6349992 111.2524990  17.9379997
 139.4029992 110.7934990  18.2789997 138.6139992 111.0264990  17.0079997
 138.7372135 111.1591680  17.8589473 133.9449992 106.1434990  17.2719997
 134.0889992 105.2414990  16.9859997 133.1719992 106.4294990  16.7849997
 133.8602266 106.0586548  17.1670102 138.2859992 106.4864990  -0.5950003
 138.3499992 105.6924990  -0.0650003 138.9389992 106.3684990  -1.2850003
 138.3830482 106.3617496  -0.6156593 134.7769992 103.3434990  16.6919997
 135.1849992 102.4864990  16.5709997 134.5169992 103.3574990  17.6129997
 134.7977082 103.2280596  16.7999469 139.4349992 104.4594990   1.7109997
 138.9759992 103.9754990   2.3959997 139.6899992 103.7904990   1.0749997
 139.4065997 104.3028491   1.7188734 138.7239992 102.3524990  14.0669997
 138.1059992 103.0264990  14.3469997 139.0679992 102.6734990  13.2329997
 138.6858078 102.4882298  13.9926609 139.0639992  99.7074990  15.1489997
 139.2139992  98.9784990  14.5469997 139.0659992 100.4844990  14.5899997
 139.0847967  99.7127720  14.9910523 139.4759992  98.0764990  12.6419997
 140.0119992  98.5284990  11.9899997 138.6239992  97.9684990  12.2189997
 139.4341795  98.1237444  12.4956211  14.3429992  49.4604990  90.7459997
  15.0879992  50.0494990  90.6259997  13.5849992  50.0424990  90.8089997
  14.3425185  49.6197000  90.7380940 137.5419992 100.9054990  17.0599997
 136.7749992 100.3724990  16.8499997 138.2209992 100.5954990  16.4609997
 137.5288292 100.7906360  16.9502693 135.7229992  98.8254990  16.7649997
 135.9339992  98.1194990  16.1549997 135.6109992  98.3884990  17.6089997
 135.7367668  98.6696619  16.7955445 133.9719992 108.0294990   0.4569997
 134.8859992 108.1084990   0.7299997 133.9789992 107.3424990  -0.2090003
 134.0980624 107.9474074   0.4043045 132.6209992 113.4224990   5.5339997
 131.9739992 112.9604990   5.0019997 132.9759992 112.7504990   6.1169997
 132.5803741 113.2684785   5.5399157 133.4909992 111.5024990   7.3389997
 133.1569992 110.6224990   7.5109997 133.7129992 111.8484990   8.2039997
 133.4752565 111.4287410   7.4794263 133.5709992 104.5784990   9.7909997
 133.7549992 104.4964990   8.8549997 134.4199992 104.4544990  10.2139997
 133.7110132 104.5505066   9.7201460 133.1679992  99.8484990  15.9309997
 134.0879992  99.7264990  16.1679997 132.7189992  99.0984990  16.3209997
 133.2330500  99.7304576  16.0161016 134.3899992  98.1614990   8.8229997
 134.8349992  97.3694990   9.1249997 134.8559992  98.8774990   9.2529997
 134.5139718  98.1499546   8.9225247 132.6939992 101.1604990   9.8919997
 133.1859992 100.9394990   9.1009997 133.0559992 102.0004990  10.1729997
 132.8102923 101.2438480   9.8217389 133.0069992  97.4184990   3.9459997
 132.0819992  97.6264990   3.8169997 133.4609992  97.9024990   3.2559997
 132.9416298  97.5124311   3.8350433   2.7849992  46.7754990  93.3499997
   3.1929992  45.9184990  93.2289997   2.5249992  46.7894990  94.2709997
   2.8057082  46.6600596  93.4579469 132.9709992  96.1564990  12.2899997
 132.3059992  95.9104990  12.9329997 132.5279992  96.7784990  11.7129997
 132.8201168  96.2069225  12.2999830 135.1629992 109.3314990  16.4349997
 134.3419992 109.5064990  15.9739997 134.9109992 109.2584990  17.3549997
 135.0165594 109.3455728  16.4963593 138.1169992 110.3054990  12.6929997
 137.6919992 111.1154990  12.4109997 139.0209992 110.3914990  12.3909997
 138.1810706 110.4279557  12.6135836 135.5189992 113.5624990  12.7409997
 134.7979992 114.0024990  12.2899997 135.1529992 113.3114990  13.5889997
 135.3709632 113.5887235  12.7939649 137.9859992 113.1624990  11.7699997
 137.1209992 113.2344990  12.1739997 137.9309992 113.7094990  10.9869997
 137.8602289 113.2463242  11.7193749 134.9339992 112.1854990   9.6509997
 134.9149992 111.7594990  10.5079997 135.7379992 111.8664990   9.2419997
 135.0401393 112.0840297   9.7130155 137.0749992 110.8954990   8.3059997
 136.8559992 109.9784990   8.4759997 137.8989992 111.0354990   8.7719997
 137.1564702 110.7890523   8.3922510 135.4469992  95.6634990   6.1209997
 134.6699992  95.4284990   5.6139997 135.9779992  94.8664990   6.1299997
 135.4123735  95.5236462   6.0528090 134.2839992  95.4614990   1.9249997
 134.7229992  96.0724990   1.3329997 133.6499992  95.9994990   2.3989997
 134.2583859  95.6179076   1.9080287 134.1849992 111.4094990   2.8219997
 133.4999992 111.3714990   2.1549997 134.1879992 112.3214990   3.1099997
 134.0916806 111.5276669   2.7696961   7.4429992  47.8914990  78.3679997
   6.9839992  47.4074990  79.0539997   7.6979992  47.2224990  77.7319997
   7.4146178  47.7348511  78.3759785 136.1449992  97.3774990   0.3669997
 136.6359992  96.7474990  -0.1600003 136.7679992  97.6734990   1.0299997
 136.2965304  97.3312387   0.3844922 135.4049992  96.1774990  15.6389997
 135.0389992  95.4114990  16.0809997 136.3179992  96.2064990  15.9249997
 135.4783172  96.0765335  15.7381872 137.3779992  95.5274990  17.1739997
 138.2769992  95.2534990  16.9899997 136.9919992  94.7854990  17.6389997
 137.4487307  95.3897207  17.2117080 136.0029992 112.3294990  -0.1530003
 135.7349992 112.6154990   0.7209997 136.7739992 111.7834990  -0.0000003
 136.0705926 112.2947790  -0.0128812  12.5339992 123.6754990   6.0799997
  12.6229992 124.6194990   5.9469997  11.8949992 123.4004990   5.4219997
  12.4598378 123.7673846   5.9729258  11.4669992 122.9304990   9.4989997
  11.4279992 122.2844990  10.2039997  11.1439992 122.4634990   8.7269997
  11.4180469 122.7790005   9.4912803   3.8349992 122.5444990  11.0919997
   3.8759992 121.9194990  11.8149997   4.5379992 123.1684990  11.2739997
   3.9356223 122.5432318  11.2156164  15.1729992 125.8694990   7.7999997
  14.7319992 125.1494990   8.2509997  15.1599992 126.5904990   8.4299997
  15.1109215 125.8684303   7.9468088   4.7589992 126.9944990   9.6269997
   4.3889992 126.1924990   9.2569997   5.6999992 126.8264990   9.6729997
   4.8355984 126.8619649   9.5825586   1.3689992 120.6544990   5.0189997
   0.9209992 121.5004990   5.0009997   0.8079992 120.0754990   4.5039997
   1.2318546 120.6919004   4.9468874   6.7319992  45.7844990  90.7239997
   6.1139992  46.4584990  91.0049997   7.0759992  46.1054990  89.8909997
   6.6938181  45.9203233  90.6498266   2.0789992 122.8164990   7.1449997
   2.2929992 122.0464990   7.6719997   2.8169992 122.9064990   6.5419997
   2.2080073 122.7233546   7.1355786  12.2839992 130.9734990   8.0119997
  12.9039992 130.2974990   7.7389997  12.0759992 130.7554990   8.9209997
  12.3407679 130.8515032   8.0974518   9.8559992 125.3624990   9.9049997
  10.1599992 124.6764990   9.3099997  10.5779992 125.4814990  10.5229997
   9.9951240 125.2847325   9.9070941  18.5189992 116.9644990  10.7649997
  18.5679992 117.5744990  11.5009997  18.9449992 117.4254990  10.0419997
  18.5832851 117.1103266  10.7680532  12.9969992 119.7564990  10.2319997
  13.1389992 118.8104990  10.2519997  12.8909992 119.9634990   9.3039997
  13.0021051 119.6549706  10.1092249   6.1519992 117.8584990   7.5049997
   6.1949992 118.7184990   7.0859997   5.6939992 117.3054990   6.8709997
   6.0960163 117.9014174   7.3620604  13.8739992 117.9894990   5.9049997
  14.5199992 117.6604990   6.5299997  14.3839992 118.5064990   5.2829997
  14.0314289 118.0144333   5.9063681   2.7719992 120.2554990   8.2669997
   3.4259992 119.7054990   8.6989997   2.7959992 119.9814990   7.3499997
   2.8647199 120.1432178   8.2021650   7.9279992 121.8054990   7.4819997
   8.5439992 121.2784990   7.9909997   7.3419992 121.1654990   7.0779997
   7.9330652 121.6468919   7.4970277  18.9109992 118.4424990  13.0009997
  18.2219992 119.1004990  12.9059997  18.9259992 118.2444990  13.9379997
  18.8187756 118.5057614  13.1145795  11.7519992  48.2554990  94.0019997
  12.7049992  48.3394990  93.9739997  11.5919992  47.5434990  94.6209997
  11.8608161  48.1707198  94.0818689   4.9619992 116.7764990  11.5789997
   4.7429992 117.3064990  10.8119997   4.2939992 117.0024990  12.2259997
   4.8416975 116.8795979  11.5615123  12.3309992 126.2764990   5.1229997
  12.0349992 125.9534990   4.2709997  12.0069992 127.1764990   5.1639997
  12.2467458 126.3539678   5.0120598   7.5309992 124.4514990  11.8659997
   6.7909992 125.0504990  11.9699997   8.2449992 125.0054990  11.5499997
   7.5263146 124.6082611  11.8375150  15.6379992 117.2804990   7.8859997
  15.4229992 116.5144990   8.4189997  16.2939992 117.7524990   8.3989997
  15.6972673 117.2395739   8.0281972   4.5559992 118.6684990   9.5309997
   5.1689992 119.3014990   9.9039997   5.0679992 118.1964990   8.8749997
   4.7091933 118.6913380   9.4933477   5.9379992 126.4164990  12.6529997
   5.9329992 127.2954990  12.2749997   5.0849992 126.3324990  13.0779997
   5.8219199 126.5255901  12.6586942   2.0599992 126.0874990   3.4349997
   1.7879992 126.3164990   2.5459997   2.1049992 126.9244990   3.8959997
   2.0288360 126.2321034   3.3756186  15.6849992 127.7084990  10.1479997
  14.7429992 127.7674990  10.3099997  15.9609992 128.6144990  10.0109997
  15.5935865 127.8390299  10.1516174  15.9849992 115.9954990  11.5649997
  15.2489992 116.6054990  11.5279997  16.6689992 116.4104990  11.0389997
  15.9765367 116.1352562  11.4888156   8.9879992 114.0814990   9.0309997
   8.8709992 113.1334990   8.9769997   8.1329992 114.4144990   9.3039997
   8.8563691 113.9965842   9.0605072   7.0719992  43.1394990  91.8069997
   7.2219992  42.4104990  91.2039997   7.0739992  43.9164990  91.2479997
   7.0927664  43.1448971  91.6490525  13.9369992 129.4894990   6.7729997
  14.3619992 128.7824990   6.2879997  14.2539992 130.2914990   6.3559997
  14.0380266 129.5010201   6.6502461  15.0959992 127.3904990   5.2819997
  14.8389992 126.7004990   4.6699997  15.1669992 126.9474990   6.1269997
  15.0704322 127.2361568   5.3125372  16.7819992 125.9574990  13.7589997
  16.9219992 125.3654990  13.0199997  16.9499992 126.8304990  13.4029997
  16.8238734 125.9944041  13.6096937  11.2549992 122.9194990   3.5319997
  10.5429992 123.4544990   3.1799997  11.9459992 122.9744990   2.8719997
  11.2509704 123.0001663   3.3945797  11.3089992 121.3764990   0.5699997
  12.0099992 121.3994990   1.2219997  11.6109992 120.7484990  -0.0860003
  11.4458202 121.2947223   0.5705591  18.6239992 122.2974990  11.8249997
  17.9719992 122.9914990  11.9139997  19.0889992 122.5074990  11.0149997
  18.5975357 122.4209544  11.7277056  14.6609992 123.1284990   4.4829997
  13.9289992 123.3574990   5.0559997  15.1079992 122.4154990   4.9379997
  14.6212753 123.0633984   4.6229698  14.5579992 121.3034990  13.5509997
  14.6379992 122.0664990  14.1229997  13.9569992 121.5824990  12.8609997
  14.4876547 121.4457468  13.5360029   6.3059992 123.7594990   6.3659997
   5.9759992 123.3884990   5.5479997   6.8939992 123.0884990   6.7129997
   6.3403182 123.6180648   6.3009898   7.6729992 127.1874990   9.0469997
   7.5779992 126.6084990   8.2909997   8.4019992 126.8164990   9.5429997
   7.7586011 127.0580572   9.0106011   7.4839992  41.5084990  89.2989997
   8.0199992  41.9604990  88.6469997   6.6319992  41.4004990  88.8769997
   7.4421648  41.5557883  89.1526395   6.6729992 122.5274990   9.9989997
   7.2379992 122.6494990   9.2369997   6.9909992 123.1654990  10.6379997
   6.7933619 122.6304388   9.9810019  12.9819992 128.0314990  10.7329997
  12.7409992 128.6934990  11.3809997  12.7839992 127.1964990  11.1579997
  12.9222662 128.0092704  10.8791008   7.5529992 126.9274990  14.7169997
   7.2409992 127.7094990  15.1719997   6.9029992 126.7744990  14.0309997
   7.4224858 127.0137882  14.6865344  13.5319992 122.2914990   2.1689997
  14.1109992 122.4414990   2.9149997  13.9459992 122.7614990   1.4449997
  13.6673358 122.3755966   2.1733935   4.4729992 123.1254990  13.9449997
   4.5429992 123.7764990  14.6439997   3.5819992 123.2284990  13.6099997
   4.3621690 123.2284261  13.9953026  11.2579992 129.0274990   5.6039997
  11.7319992 129.3234990   6.3809997  10.6949992 129.7664990   5.3709997
  11.2467890 129.1678047   5.6788084   5.7919992 128.9984990  15.4799997
   5.7999992 128.8624990  14.5329997   4.8759992 128.8814990  15.7319997
   5.6692528 128.9640475  15.3843226  17.2299992 114.0414990   1.9809997
  16.3299992 114.1794990   2.2769997  17.4819992 114.8724990   1.5799997
  17.1407727 114.1728705   1.9672935   5.2959992 122.8284990   3.9549997
   5.0039992 123.5964990   3.4639997   4.6219992 122.1694990   3.7919997
   5.1648843 122.8444537   3.8657695  18.4199992 128.4074990   0.3579997
  18.4929992 129.3464990   0.5279997  19.3249992 128.1024990   0.3019997
  18.5524170 128.4948294   0.3737045   9.0659992  46.9484990  89.5389997
   9.8169992  46.7924990  88.9659997   8.7269992  47.8004990  89.2629997
   9.1229052  47.0422745  89.4233469   1.3889992 125.1914990  12.7699997
   0.8879992 125.1634990  11.9549997   1.3949992 124.2864990  13.0799997
   1.3211690 125.0652234  12.7002770   1.1399992 127.9724990   9.6539997
   2.0859992 127.8274990   9.6349997   1.0269992 128.7564990  10.1909997
   1.2543578 128.0586708   9.7240300  19.3369992 128.6384990  15.3369997
  19.2879992 127.6824990  15.2989997  18.5109992 128.9054990  15.7379997
  19.2185096 128.5438416  15.3860698  10.3159992 128.2124990  14.2129997
  10.4029992 129.0384990  14.6879997   9.4519992 127.8824990  14.4619997
  10.2111944 128.2809871  14.3116558  10.7299992 131.9844990   4.0189997
  10.6549992 131.8634990   3.0719997  10.7629992 132.9334990   4.1369997
  10.7242083 132.0962639   3.9054973   4.3839992 130.7734990   5.7999997
   4.5359992 130.4254990   6.6779997   3.5329992 130.4164990   5.5439997
   4.2898344 130.6775891   5.8856851  13.8319992 131.1384990   1.0209997
  14.2069992 130.3944990   0.5499997  13.8359992 130.8684990   1.9389997
  13.8838969 131.0000920   1.0806475  13.5009992 131.0644990   3.7699997
  12.5659992 131.1644990   3.9489997  13.7809992 130.3544990   4.3489997
  13.4109471 130.9822944   3.8726678  16.4889992 120.1314990  15.8169997
  16.0819992 120.6114990  15.0959997  16.5299992 119.2254990  15.5089997
  16.4388403 120.0747989  15.6767253   3.6379992 126.5154990  13.8129997
   3.8539992 126.1534990  14.6729997   2.7829992 126.1404990  13.6039997
   3.5519082 126.4153377  13.9022396  13.4819992  44.7634990  94.5669997
  13.6739992  43.8324990  94.4559997  14.3389992  45.1884990  94.5569997
  13.6242320  44.6934743  94.5504433   6.2569992 114.9854990   9.8089997
   5.3949992 114.8984990   9.4009997   6.2349992 115.8414990  10.2369997
   6.1360557 115.0893078   9.8110202  10.9199992 114.7074990  13.1839997
  11.3399992 114.2924990  13.9369997   9.9869992 114.5284990  13.3009997
  10.8513736 114.6264921  13.3028950  14.2459992 118.4624990  14.0369997
  13.7319992 118.3374990  14.8349997  14.0909992 119.3754990  13.7929997
  14.1547802 118.5687433  14.1131504  15.0089992 123.3234990  -0.2020003
  15.0509992 123.1014990  -1.1320003  15.8579992 123.7224990  -0.0120003
  15.1295253 123.3470510  -0.3036196  10.5819992 117.1994990   0.4689997
  10.3279992 117.2184990   1.3909997  10.3249992 116.3284990   0.1669997
  10.5124508 117.0843292   0.5544786   6.3479992 119.9504990  10.9039997
   5.7059992 119.9104990  11.6129997   6.3849992 120.8774990  10.6659997
   6.2651659 120.0702540  10.9688463   6.3449992 120.1714990   5.8159997
   5.4519992 119.8314990   5.7569997   6.7959992 119.7944990   5.0599997
   6.2837185 120.0740220   5.7057698  11.8809992 120.5874990   4.6329997
  11.4719992 121.4024990   4.3409997  12.6009992 120.4474990   4.0189997
  11.9224439 120.6800383   4.5100098  10.9829992 120.7634990  16.1209997
  10.4199992 120.0584990  16.4419997  11.8089992 120.6424990  16.5889997
  11.0176674 120.6507176  16.2281734  12.8849992 120.0334990   7.4469997
  12.6899992 120.6394990   6.7319997  13.0669992 119.2004990   7.0129997
  12.8829195 120.0037936   7.2904079  14.7979992  47.5524990  92.6449997
  14.5169992  48.2614990  92.0669997  15.7409992  47.4794990  92.4939997
  14.8869272  47.6396704  92.5454976   4.0979992 120.2714990  12.7709997
   4.0599992 120.6714990  13.6399997   3.6069992 119.4544990  12.8609997
   4.0264374 120.2158228  12.9020980   7.4639992 117.6454990  -0.4300003
   7.0329992 117.2004990   0.2989997   6.7459992 118.0164990  -0.9430003
   7.3079176 117.6347063  -0.3995087   0.7059992 117.3874990   6.6219997
   1.3369992 117.3584990   7.3409997   1.1559992 116.9624990   5.8909997
   0.8531082 117.3261269   6.6216307   1.9799992 118.1334990   2.0459997
   2.4549992 118.7244990   1.4609997   1.2629992 118.6634990   2.3929997
   1.9480406 118.2861011   2.0128495  12.1489992 121.6714990  12.1179997
  12.4729992 121.0404990  11.4749997  11.7089992 121.1374990  12.7789997
  12.1338707 121.5128261  12.1193195   8.9269992 117.5994990   6.9019997
   8.0159992 117.6564990   7.1909997   9.4319992 117.5394990   7.7129997
   8.8706873 117.5991838   7.0511190   3.7549992 119.2284990   5.7289997
   2.8659992 119.3274990   5.3889997   4.0509992 118.3864990   5.3829997
   3.6734001 119.1282473   5.6357318   7.4079992 119.2284990   3.3859997
   8.3399992 119.3574990   3.5639997   7.1929992 119.8974990   2.7359997
   7.5064472 119.3365817   3.3224873  13.3319992 116.8344990  10.1659997
  12.6549992 116.9654990  10.8299997  12.8459992 116.6794990   9.3559997
  13.1737265 116.8314665  10.1473380   6.0819992 120.4224990   0.9519997
   5.5399992 120.0434990   0.2609997   6.9159992 120.6174990   0.5239997
   6.1204390 120.3969091   0.7994374   5.5499992  44.3374990  93.7179997
   4.7829992  43.8044990  93.5079997   6.2289992  44.0274990  93.1189997
   5.5368292  44.2226360  93.6082693  16.6189992 132.5054990  16.4429997
  16.8189992 132.9294990  15.6089997  17.2749992 132.8494990  17.0499997
  16.7349937 132.6099993  16.4108645   4.2169992 124.9794990  16.0509997
   4.9489992 125.2344990  16.6129997   3.4369992 125.1844990  16.5669997
   4.2116526 125.0420438  16.1975168  10.2469992 120.3864990   8.7889997
  10.8109992 119.8404990   8.2419997  10.0989992 119.8654990   9.5779997
  10.3043037 120.2411798   8.8207212   5.2489992 116.5234990   5.2079997
   4.9309992 115.6204990   5.1719997   6.0299992 116.5254990   4.6549997
   5.3111079 116.4002240   5.1282908   8.8729992 118.7754990  11.2029997
   8.0379992 119.2294990  11.3139997   9.3969992 119.0514990  11.9549997
   8.8296072 118.8748960  11.3198118   9.4169992 124.9884990   2.8879997
   8.6719992 124.4804990   2.5659997   9.2829992 125.0374990   3.8339997
   9.2969334 124.9256144   2.9718892  16.5669992 124.1214990  11.6749997
  17.2089992 124.5774990  11.1309997  15.7369992 124.2344990  11.2119997
  16.5426536 124.1991813  11.5379579  13.3149992 117.8024990   1.0869997
  12.3759992 117.9134990   0.9359997  13.6119992 118.6584990   1.3939997
  13.2266136 117.9334977   1.1078568  10.9369992 125.1724990  14.1249997
  10.5909992 124.7904990  14.9319997  10.7369992 126.1054990  14.1959997
  10.8625987 125.2464013  14.2450443  14.0329992 119.6694990   2.7479997
  14.9249992 119.5314990   3.0669997  14.0899992 120.4604990   2.2109997
  14.1627380 119.7574777   2.7190981   8.2899992  38.9654990  89.7309997
   8.1919992  39.9114990  89.6249997   7.5469992  38.5924990  89.2549997
   8.1762363  39.0445987  89.6522029   4.5419992 124.2834990   8.6579997
   5.2869992 124.2804990   8.0559997   4.6199992 123.4594990   9.1389997
   4.6543365 124.1717395   8.6407412  11.5429992 126.4464990   1.9129997
  11.2479992 127.2734990   2.2949997  10.8399992 125.8274990   2.1099997
  11.4076379 126.4759182   1.9918636   1.5499992 122.7434990  13.9729997
   1.7729992 122.3254990  14.8039997   0.9479992 122.1314990  13.5499997
   1.4991513 122.6034617  14.0296722   8.5669992 122.2604990  16.1859997
   8.2709992 122.0954990  15.2899997   9.4979992 122.0404990  16.1749997
   8.6524401 122.2081891  16.0620189  13.1869992 127.6344990  14.0749997
  12.2859992 127.8174990  13.8079997  13.2209992 127.8934990  14.9959997
  13.0683861 127.6945245  14.1629517  18.9179992 119.8784990   2.4429997
  18.3639992 119.4824990   1.7699997  19.0189992 120.7894990   2.1649997
  18.8558589 119.9473904   2.3133839  18.8809992 125.6794990  15.2799997
  18.0299992 125.9174990  14.9119997  19.4719992 125.6624990  14.5259997
  18.8443831 125.7097623  15.1278448  17.2129992 128.6644990   2.9079997
  16.8409992 127.8394990   3.2169997  17.4909992 128.4814990   2.0099997
  17.1995807 128.5267031   2.8290063  14.3739992 123.4724990   9.9289997
  13.4459992 123.2414990   9.9019997  14.8249992 122.6954990   9.5989997
  14.3078165 123.3357785   9.8806772   6.9169992 127.8014990   6.0619997
   7.4439992 128.5744990   5.8619997   6.0369992 128.0254990   5.7599997
   6.8702121 127.9377344   5.9937460   9.5539992  43.2864990  93.2939997
   9.3179992  43.0674990  94.1959997   8.7709992  43.0794990  92.7849997
   9.4158444  43.2285688  93.3484518   2.6719992 122.6634990   0.6489997
   3.2879992 123.2904990   1.0289997   1.8099992 122.9794990   0.9209997
   2.6397678 122.7919423   0.7377192   8.3439992 125.4644990   5.6379997
   8.1029992 126.3894990   5.6799997   7.6039992 125.0054990   6.0349997
   8.2109463 125.5290969   5.6974279   8.8589992 129.6134990  11.9529997
   9.2219992 130.4674990  11.7199997   9.3909992 129.3214990  12.6939997
   8.9805141 129.6908907  12.0212079   7.0269992 130.4854990   5.1839997
   6.0779992 130.5914990   5.2349997   7.3789992 131.3064990   5.5279997
   6.9445647 130.6110029   5.2374882  12.4029992 125.7124990  11.6539997
  11.9769992 125.4844990  12.4799997  12.9839992 124.9734990  11.4719997
  12.4232088 125.5814393  11.7424454  14.6059992 126.6414990   0.7279997
  14.9589992 126.2614990   1.5319997  13.6569992 126.5474990   0.8149997
  14.5260956 126.5767867   0.8498005  15.0619992 130.2644990  14.1229997
  14.4599992 129.7084990  13.6279997  15.3429992 130.9314990  13.4969997
  15.0175757 130.2785755  13.9705657  19.1089992 131.1204990   0.9289997
  19.8529992 131.7064990   0.7889997  18.4149992 131.6894990   1.2619997
  19.1169809 131.2775830   0.9548572   3.1839992 117.4974990  13.5309997
   2.2909992 117.8354990  13.4629997   3.0849992 116.6414990  13.9489997
   3.0484752 117.4280986  13.5781644  15.4719992 125.3134990   2.9549997
  15.1949992 124.5854990   3.5109997  16.3989992 125.4324990   3.1599997
  15.5594419 125.2299436   3.0588264  12.2699992  42.4144990  92.3699997
  11.3219992  42.4464990  92.5019997  12.5819992  41.7884990  93.0239997
  12.1825293  42.3342934  92.4764130   2.8349992 129.3014990  11.9659997
   3.0519992 128.3694990  11.9349997   3.0819992 129.5764990  12.8489997
   2.8980948 129.2110976  12.0811268   7.6339992 127.3234990   1.6309997
   7.7809992 126.8034990   2.4209997   7.6309992 128.2304990   1.9379997
   7.6537102 127.3748964   1.7805907   4.0869992 124.5754990   2.1419997
   3.4009992 124.9284990   2.7089997   4.6099992 125.3384990   1.8949997
   4.0638402 124.7268912   2.1861783  11.9179992 117.2384990  12.4209997
  12.6169992 117.3124990  13.0709997  11.5379992 116.3734990  12.5749997
  11.9622662 117.1317050  12.5307412  12.7029992 116.8904990   3.5179997
  12.9229992 117.3614990   2.7139997  13.2609992 117.2844990   4.1879997
  12.8086044 117.0082946   3.4985207  10.3719992 129.0204990   2.3809997
   9.5549992 129.5174990   2.4329997  10.9009992 129.4964990   1.7399997
  10.3318125 129.1527000   2.3015289   9.9029992 118.6184990   4.3529997
  10.7149992 119.1224990   4.3989997   9.6579992 118.4734990   5.2669997
   9.9811091 118.6679366   4.4828552  10.4389992 119.6044990  13.5369997
  10.5579992 120.1784990  14.2939997  11.0939992 118.9164990  13.6519997
  10.5438684 119.5900205  13.6561656  10.7869992 115.6994990   5.2909997
  10.4399992 116.3164990   5.9349997  11.4449992 116.2004990   4.8089997
  10.8284430 115.8516860   5.3140046   7.7099992 130.0644990   2.3619997
   7.8709992 130.8644990   1.8619997   7.5129992 130.3714990   3.2469997
   7.7053906 130.2153690   2.4132316  13.9039992  41.0484990  94.3749997
  13.8069992  40.0964990  94.3689997  13.5819992  41.3164990  95.2359997
  13.8472229  40.9544706  94.4905108   6.4439992 116.7624990   1.9779997
   6.3609992 117.6504990   2.3249997   7.3339992 116.4974990   2.2099997
   6.5529331 116.8481177   2.0568067  16.6429992 117.5114990  14.3719997
  15.7269992 117.7734990  14.2849997  16.9789992 117.5084990  13.4759997
  16.5628499 117.5470174  14.2388748  15.2449992 121.2614990   8.4679997
  14.4479992 120.8464990   8.1399997  15.6899992 120.5714990   8.9589997
  15.1960367 121.1113372   8.4894897   4.7029992 127.1894990   1.0379997
   5.2949992 127.8894990   1.3149997   5.1619992 126.7564990   0.3189997
   4.8461652 127.2267686   0.9786515   3.0189992 119.8544990   0.1539997
   2.9739992 120.7934990   0.3329997   2.1309992 119.6184990  -0.1150003
   2.8928166 119.9511698   0.1421507  16.3319992 130.5174990  10.0899997
  16.1759992 131.1964990   9.4329997  17.2639992 130.5894990  10.2929997
  16.4367328 130.6201586  10.0275529   3.8269992 114.6354990   8.8269997
   3.5979992 114.6944990   7.8999997   3.3839992 113.8444990   9.1339997
   3.7357387 114.5366412   8.7415223   2.7569992 128.5764990   4.9879997
   1.9249992 129.0484990   5.0149997   3.3029992 129.0864990   4.3889997
   2.7168710 128.7100317   4.9107570   2.0459992 131.1884990  16.3179997
   2.5859992 130.9724990  17.0779997   1.5639992 130.3834990  16.1279997
   2.0548485 131.0500463  16.3964870   6.6429992 130.1084990  17.9379997
   7.4109992 129.6494990  18.2789997   6.6219992 129.8824990  17.0079997
   6.7452135 130.0151680  17.8589473   3.7309992  42.2574990  93.4229997
   3.9419992  41.5514990  92.8119997   3.6189992  41.8204990  94.2669997
   3.7447674  42.1016376  93.4534199  10.7349992 129.6164990  -0.6870003
  10.0909992 128.9854990  -0.3650003  11.4969992 129.0854990  -0.9180003
  10.7498708 129.4583171  -0.6741539  13.2199992 128.4884990  16.6669997
  12.8689992 127.6314990  16.9099997  13.9459992 128.6304990  17.2739997
  13.2701590 128.3905189  16.7822889  15.3389992 129.4334990  -0.4530003
  15.6219992 128.6384990  -0.0000003  16.0789992 129.6664990  -1.0140003
  15.4777295 129.3562349  -0.4668531   1.9529992 124.9994990  17.2719997
   2.0969992 124.0974990  16.9859997   1.1799992 125.2854990  16.7849997
   1.8682266 124.9146548  17.1670102   6.2939992 125.3424990  -0.5950003
   6.3579992 124.5484990  -0.0650003   6.9469992 125.2244990  -1.2850003
   6.3910483 125.2177496  -0.6156593   8.6079992 124.9684990  16.7049997
   8.2799992 125.2394990  15.8479997   8.7599992 124.0274990  16.6169997
   8.5836412 124.8784058  16.5757804  14.3429992 124.8844990  14.0879997
  15.0879992 125.4734990  13.9689997  13.5849992 125.4664990  14.1509997
  14.3425289 125.0437067  14.0802292   2.7849992 122.1994990  16.6919997
   3.1929992 121.3424990  16.5709997   2.5249992 122.2134990  17.6129997
   2.8057082 122.0840596  16.7999469   7.4429992 123.3154990   1.7109997
   6.9839992 122.8314990   2.3959997   7.6979992 122.6464990   1.0749997
   7.4145997 123.1588491   1.7188734   6.7319992 121.2084990  14.0669997
   6.1139992 121.8824990  14.3469997   7.0759992 121.5294990  13.2329997
   6.6938078 121.3442298  13.9926609   8.5119992  38.2594990  92.4019997
   9.2229992  37.6194990  92.3879997   8.4109992  38.5254990  91.4879997
   8.5956732  38.2078451  92.2765475   8.5139992 121.5584990  -0.0270003
   8.3339992 121.4034990  -0.9540003   9.4639992 121.6664990   0.0179997
   8.6177804 121.5518821  -0.1478034  11.7519992 123.6794990  17.3439997
  12.7049992 123.7634990  17.3169997  11.5919992 122.9674990  17.9629997
  11.8607320 123.5947292  17.4239933  17.9039992 123.9124990  -0.5810003
  17.6309992 123.4884990  -1.3940003  17.9439992 124.8444990  -0.7980003
  17.8720201 123.9803523  -0.7216452   7.0719992 118.5634990  15.1489997
   7.2219992 117.8344990  14.5469997   7.0739992 119.3404990  14.5899997
   7.0927967 118.5687720  14.9910523   7.4839992 116.9324990  12.6419997
   8.0199992 117.3844990  11.9899997   6.6319992 116.8244990  12.2189997
   7.4421795 116.9797444  12.4956211   9.0659992 122.3724990  12.8809997
   9.8169992 122.2164990  12.3079997   8.7269992 123.2244990  12.6059997
   9.1229587 122.4663149  12.7654060  13.4819992 120.1874990  17.9099997
  13.6739992 119.2564990  17.7979997  14.3389992 120.6124990  17.8989997
  13.6242176 120.1175090  17.8931757  14.7979992 122.9764990  15.9869997
  14.5169992 123.6854990  15.4089997  15.7409992 122.9034990  15.8359997
  14.8869272 123.0636704  15.8874976   5.5499992 119.7614990  17.0599997
   4.7829992 119.2284990  16.8499997   6.2289992 119.4514990  16.4609997
   5.5368292 119.6466360  16.9502693   8.2899992 114.3894990  13.0729997
   8.1919992 115.3354990  12.9679997   7.5469992 114.0164990  12.5969997
   8.1762123 114.4686811  12.9943204   8.8649992  39.9414990  94.4559997
   8.7339992  39.4664990  93.6349997   8.2659992  40.6864990  94.3999997
   8.7661524  39.9771968  94.3361553   9.5539992 118.7104990  16.6369997
   9.3179992 118.4914990  17.5379997   8.7709992 118.5034990  16.1269997
   9.4158382 118.6525340  16.6913991  12.2699992 117.8384990  15.7119997
  11.3219992 117.8704990  15.8439997  12.5819992 117.2124990  16.3659997
  12.1825293 117.7582934  15.8184130  13.9039992 116.4724990  17.7169997
  13.8069992 115.5204990  17.7119997  13.5819992 116.7404990  18.5779997
  13.8472468 116.3785896  17.8326192   3.7309992 117.6814990  16.7649997
   3.9419992 116.9754990  16.1549997   3.6189992 117.2444990  17.6089997
   3.7447668 117.5256619  16.7955445   8.5119992 113.6834990  15.7439997
   9.2229992 113.0434990  15.7299997   8.4109992 113.9494990  14.8309997
   8.5956858 113.6318591  15.6185501   8.8649992 115.3654990  17.7979997
   8.7339992 114.8904990  16.9779997   8.2659992 116.1104990  17.7429997
   8.7660829 115.4010949  17.6781823   8.4119992 132.2484990   0.9739997
   9.3449992 132.4064990   1.1179997   8.1469992 132.9244990   0.3489997
   8.5039846 132.3614567   0.9092930   1.9799992 126.8854990   0.4569997
   2.8939992 126.9644990   0.7299997   1.9869992 126.1984990  -0.2090003
   2.1060624 126.8034074   0.4043045   0.6289992 132.2784990   5.5339997
  -0.0180008 131.8164990   5.0019997   0.9839992 131.6064990   6.1169997
   0.5883741 132.1244785   5.5399157   1.4989992 130.3584990   7.3389997
   1.1649992 129.4784990   7.5109997   1.7209992 130.7044990   8.2039997
   1.4832565 130.2847410   7.4794263   8.4119992  56.8244990  77.6319997
   9.3449992  56.9824990  77.7759997   8.1469992  57.5004990  77.0069997
   8.5039846  56.9374567  77.5672930  19.0479992 131.1684990  10.3199997
  19.0259992 131.3534990  11.2579997  19.7379992 131.7364990   9.9789997
  19.1383383 131.2707104  10.4024580  18.6109992 130.7354990  13.2409997
  18.1239992 129.9994990  12.8699997  19.1599992 130.3414990  13.9189997
  18.6186101 130.5816267  13.2819034  17.0619992 126.5254990  17.8789997
  16.1959992 126.4204990  18.2739997  17.4379992 127.2834990  18.3259997
  16.9944940 126.6136141  17.9933958  18.3629992 124.7814990   3.3939997
  19.2129992 125.2024990   3.5209997  18.3679992 124.0414990   4.0009997
  18.4801143 124.7391106   3.4934732  18.7569992 122.8354990   5.2169997
  18.0309992 122.3554990   5.6149997  19.3379992 123.0404990   5.9489997
  18.7362504 122.7975592   5.3704199  18.5159992 125.6204990  10.1649997
  19.3499992 125.2424990   9.8839997  18.6279992 126.5634990  10.0459997
  18.6451917 125.6962954  10.1104844  17.0019992 128.4984990  12.4719997
  16.3549992 128.8234990  13.0969997  16.4849992 128.0574990  11.7979997
  16.8434112 128.4834133  12.4665272  19.0249992 122.7364990   1.6079997
  18.5039992 123.0924990   0.8899997  18.9919992 123.4114990   2.2869997
  18.9490955 122.8765023   1.6012634  17.3739992 119.9754990   0.1589997
  17.4709992 120.6424990  -0.5210003  17.2339992 119.1604990  -0.3220003
  17.3683407 119.9565670   0.0008312  16.5439992 121.3564990   5.7799997
  16.3939992 120.4114990   5.7599997  16.1899992 121.6374990   6.6239997
  16.4756351 121.2651656   5.8913202   0.6289992  56.8544990  82.1919997
  -0.0180008  56.3924990  81.6589997   0.9839992  56.1824990  82.7749997
   0.5883861  56.7004707  82.1977939   1.5789992 123.4344990   9.7909997
   1.7629992 123.3524990   8.8549997   2.4279992 123.3104990  10.2139997
   1.7190132 123.4065066   9.7201460  17.3999992 123.3264990  15.4189997
  17.9829992 122.5914990  15.6109997  17.9639992 124.0984990  15.4659997
  17.5559781 123.3303156  15.4516146  18.8969992 121.2294990  16.1039997
  18.0329992 120.8504990  15.9379997  19.5009992 120.4904990  16.0289997
  18.8605394 121.0778378  16.0711778  16.2539992 118.9384990   4.2429997
  16.5339992 118.0314990   4.3669997  17.0129992 119.3724990   3.8539997
  16.3949258 118.8730935   4.2073691  16.8659992 119.5204990   9.6789997
  17.7989992 119.7324990   9.6439997  16.6309992 119.6214990  10.6009997
  16.9619517 119.5631844   9.7989113  16.8949992 120.2574990  12.4549997
  16.0519992 120.5254990  12.8199997  17.3379992 121.0794990  12.2439997
  16.8394035 120.4053351  12.4764770   1.1759992 118.7044990  15.9309997
   2.0959992 118.5824990  16.1679997   0.7269992 117.9544990  16.3209997
   1.2410500 118.5864576  16.0161016  19.1779992 114.2374990  17.8079997
  19.5279992 113.5834990  17.2019997  19.3249992 115.0744990  17.3679997
  19.2457192 114.2612545  17.6656712  16.8679992 116.2014990   4.2909997
  17.0499992 115.7524990   5.1159997  16.2679992 115.6174990   3.8269997
  16.8118187 116.0610563   4.3412721   2.3979992 117.0174990   8.8229997
   2.8429992 116.2254990   9.1249997   2.8639992 117.7334990   9.2529997
   2.5219718 117.0059546   8.9225247   1.4989992  54.9344990  83.9969997
   1.1649992  54.0544990  84.1689997   1.7209992  55.2804990  84.8609997
   1.4832677  54.8607365  84.1374252   0.7019992 120.0164990   9.8919997
   1.1939992 119.7954990   9.1009997   1.0639992 120.8564990  10.1729997
   0.8182923 120.0998480   9.8217389  18.6979992 116.3464990  16.1569997
  17.7809992 116.6174990  16.1209997  18.8209992 115.8114990  15.3729997
  18.5890828 116.3112711  16.0460767  18.7339992 116.2694990   0.8189997
  19.1469992 115.5484990   0.3439997  19.4159992 116.9384990   0.8769997
  18.8826060 116.2613741   0.7619233   1.0149992 116.2744990   3.9459997
   0.0899992 116.4824990   3.8169997   1.4689992 116.7584990   3.2559997
   0.9496298 116.3684311   3.8350433  15.7859992 131.2584990   5.8919997
  16.4379992 130.9104990   5.2839997  16.2969992 131.7464990   6.5379997
  15.9442872 131.2768248   5.8960964   0.9789992 115.0124990  12.2899997
   0.3139992 114.7664990  12.9329997   0.5359992 115.6344990  11.7129997
   0.8281168 115.0629225  12.2999830   3.1709992 128.1874990  16.4349997
   2.3499992 128.3624990  15.9739997   2.9189992 128.1144990  17.3549997
   3.0245594 128.2015728  16.4963593   6.1249992 129.1614990  12.6929997
   5.6999992 129.9714990  12.4109997   7.0289992 129.2474990  12.3909997
   6.1890706 129.2839557  12.6135836  10.4359992 130.5604990  15.6529997
  10.6209992 130.2274990  16.5309997  11.2829992 130.8704990  15.3309997
  10.5757291 130.5568214  15.7296140  12.7809992 131.8464990  14.8969997
  13.4579992 131.2134990  14.6569997  13.1029992 132.2474990  15.7039997
  12.9171618 131.8141147  14.9732802  19.0479992  55.7444990  86.9769997
  19.0259992  55.9294990  87.9159997  19.7379992  56.3124990  86.6359997
  19.1383439  55.8466898  87.0594774  17.6989992 114.4364990  13.9759997
  16.8859992 114.7614990  13.5889997  17.9319992 113.6754990  13.4429997
  17.6191347 114.3781891  13.8509824   3.5269992 132.4184990  12.7409997
   2.8059992 132.8584990  12.2899997   3.1609992 132.1674990  13.5889997
   3.3789632 132.4447235  12.7939649   5.9939992 132.0184990  11.7699997
   5.1289992 132.0904990  12.1739997   5.9389992 132.5654990  10.9869997
   5.8682289 132.1023242  11.7193749  10.7049992 131.9064990  10.9459997
  10.2479992 132.4354990  10.2919997  10.8669992 132.5094990  11.6709997
  10.6643919 132.0603990  10.9545740  13.0319992 130.7844990  11.8909997
  12.1279992 130.9494990  11.6249997  13.4609992 131.6374990  11.8249997
  12.9662017 130.9224184  11.8456495  15.6359992 132.3544990  12.1859997
  15.4549992 133.2704990  11.9749997  15.8129992 131.9434990  11.3389997
  15.6351377 132.4243365  12.0427178   2.9419992 131.0414990   9.6509997
   2.9229992 130.6154990  10.5079997   3.7459992 130.7224990   9.2419997
   3.0481393 130.9400297   9.7130155   5.0829992 129.7514990   8.3059997
   4.8639992 128.8344990   8.4759997   5.9069992 129.8914990   8.7719997
   5.1644702 129.6450523   8.3922510   7.6199992 130.2214990   9.1549997
   7.8329992 129.3334990   8.8679997   7.6849992 130.1864990  10.1089997
   7.6579149 130.0953338   9.2447351  11.1289992 115.8854990   8.2989997
  10.4539992 115.2554990   8.5549997  11.6929992 115.4014990   7.6959997
  11.1129363 115.7338886   8.2524810  18.6109992  55.3114990  89.8989997
  18.1239992  54.5754990  89.5279997  19.1599992  54.9174990  90.5769997
  18.6186101  55.1576267  89.9399034  16.2709992 113.9924990   8.4119997
  16.8749992 114.5404990   7.9099997  15.4019992 114.3114990   8.1709997
  16.2360419 114.1105628   8.3107741  17.9979992 115.1314990   6.7449997
  18.6099992 114.6174990   6.2179997  18.3809992 116.0084990   6.7679997
  18.1333867 115.1797613   6.6760888   3.4549992 114.5194990   6.1209997
   2.6779992 114.2844990   5.6139997   3.9859992 113.7224990   6.1299997
   3.4203735 114.3796462   6.0528090   2.2919992 114.3174990   1.9249997
   2.7309992 114.9284990   1.3329997   1.6579992 114.8554990   2.3989997
   2.2663859 114.4739076   1.9080287   8.0349992 114.4454990   5.9339997
   8.9089992 114.8344990   5.9049997   7.8989992 114.2304990   6.8569997
   8.1361953 114.4696654   6.0547599  13.5909992 114.4754990   7.5839997
  13.6679992 114.5714990   6.6339997  13.3159992 113.5684990   7.7119997
  13.5643233 114.3659093   7.4713665  14.9449992 114.5014990   3.2759997
  14.2419992 115.1164990   3.0659997  14.4999992 113.6644990   3.4069997
  14.7886550 114.4724679   3.2649819   2.1929992 130.2654990   2.8219997
   1.5079992 130.2274990   2.1549997   2.1959992 131.1774990   3.1099997
   2.0996806 130.3836669   2.7696961   4.1529992 116.2334990   0.3669997
   4.6439992 115.6034990  -0.1600003   4.7759992 116.5294990   1.0299997
   4.3045304 116.1872387   0.3844922   9.1789992 116.5264990   2.8239997
   9.3569992 115.8794990   3.5069997   9.1249992 117.3604990   3.2909997
   9.1960678 116.5506615   2.9806283  17.0619992  51.1014990  94.5369997
  16.1959992  50.9964990  94.9309997  17.4379992  51.8594990  94.9839997
  16.9943768  51.1896151  94.6513258  11.0569992 131.4744990   1.2199997
  11.9229992 131.8414990   1.0419997  10.8099992 131.0354990   0.4059997
  11.1421853 131.4654021   1.0855813  17.7659992 131.0374990   3.8989997
  17.5719992 130.2894990   3.3339997  17.7269992 131.7954990   3.3159997
  17.7341645 131.0375797   3.7428131   3.4129992 115.0334990  15.6389997
   3.0469992 114.2674990  16.0809997   4.3259992 115.0624990  15.9249997
   3.4863172 114.9325335  15.7381872   5.3859992 114.3834990  17.1739997
   6.2849992 114.1094990  16.9899997   4.9999992 113.6414990  17.6389997
   5.4567307 114.2457207  17.2117080   4.0109992 131.1854990  -0.1530003
   3.7429992 131.4714990   0.7209997   4.7819992 130.6394990  -0.0000003
   4.0785926 131.1507790  -0.0128812  13.8069992 113.7164990  17.3569997
  13.8839992 113.2904990  18.2099997  14.7009992 113.7294990  17.0139997
  13.9383263 113.6599345  17.4274366  16.9839992 129.7884990  16.0489997
  16.2019992 129.6024990  15.5289997  16.9119992 130.7184990  16.2659997
  16.8672975 129.8886973  16.0071822  31.3899992 123.6754990   6.0799997
  31.4789992 124.6194990   5.9469997  30.7509992 123.4004990   5.4219997
  31.3158378 123.7673846   5.9729258  30.3229992 122.9304990   9.4989997
  30.2839992 122.2844990  10.2039997  29.9999992 122.4634990   8.7269997
  30.2740469 122.7790005   9.4912803  22.6909992 122.5444990  11.0919997
  22.7319992 121.9194990  11.8149997  23.3939992 123.1684990  11.2739997
  22.7916223 122.5432318  11.2156164  18.3629992  49.3574990  80.0509997
  19.2129992  49.7784990  80.1789997  18.3679992  48.6174990  80.6589997
  18.4799745  49.3151347  80.1506479  34.0289992 125.8694990   7.7999997
  33.5879992 125.1494990   8.2509997  34.0159992 126.5904990   8.4299997
  33.9669215 125.8684303   7.9468088  23.6149992 126.9944990   9.6269997
  23.2449992 126.1924990   9.2569997  24.5559992 126.8264990   9.6729997
  23.6915984 126.8619649   9.5825586  20.2249992 120.6544990   5.0189997
  19.7769992 121.5004990   5.0009997  19.6639992 120.0754990   4.5039997
  20.0878546 120.6919004   4.9468874  20.9349992 122.8164990   7.1449997
  21.1489992 122.0464990   7.6719997  21.6729992 122.9064990   6.5419997
  21.0640073 122.7233546   7.1355786  31.1399992 130.9734990   8.0119997
  31.7599992 130.2974990   7.7389997  30.9319992 130.7554990   8.9209997
  31.1967679 130.8515032   8.0974518  28.7119992 125.3624990   9.9049997
  29.0159992 124.6764990   9.3099997  29.4339992 125.4814990  10.5229997
  28.8511240 125.2847325   9.9070941  37.3749992 116.9644990  10.7649997
  37.4239992 117.5744990  11.5009997  37.8009992 117.4254990  10.0419997
  37.4392851 117.1103266  10.7680532  31.8529992 119.7564990  10.2319997
  31.9949992 118.8104990  10.2519997  31.7469992 119.9634990   9.3039997
  31.8581051 119.6549706  10.1092249  25.0079992 117.8584990   7.5049997
  25.0509992 118.7184990   7.0859997  24.5499992 117.3054990   6.8709997
  24.9520163 117.9014174   7.3620604  32.7299992 117.9894990   5.9049997
  33.3759992 117.6604990   6.5299997  33.2399992 118.5064990   5.2829997
  32.8874289 118.0144333   5.9063681  18.7569992  47.4114990  81.8749997
  18.0309992  46.9314990  82.2729997  19.3379992  47.6164990  82.6069997
  18.7362504  47.3735592  82.0284199  21.6279992 120.2554990   8.2669997
  22.2819992 119.7054990   8.6989997  21.6519992 119.9814990   7.3499997
  21.7207199 120.1432179   8.2021650  26.7839992 121.8054990   7.4819997
  27.3999992 121.2784990   7.9909997  26.1979992 121.1654990   7.0779997
  26.7890652 121.6468919   7.4970277  37.7669992 118.4424990  13.0009997
  37.0779992 119.1004990  12.9059997  37.7819992 118.2444990  13.9379997
  37.6747756 118.5057614  13.1145795  23.8179992 116.7764990  11.5789997
  23.5989992 117.3064990  10.8119997  23.1499992 117.0024990  12.2259997
  23.6976975 116.8795979  11.5615123  31.1869992 126.2764990   5.1229997
  30.8909992 125.9534990   4.2709997  30.8629992 127.1764990   5.1639997
  31.1027458 126.3539678   5.0120598  26.3869992 124.4514990  11.8659997
  25.6469992 125.0504990  11.9699997  27.1009992 125.0054990  11.5499997
  26.3823146 124.6082611  11.8375150  34.4939992 117.2804990   7.8859997
  34.2789992 116.5144990   8.4189997  35.1499992 117.7524990   8.3989997
  34.5532673 117.2395739   8.0281972  23.4119992 118.6684990   9.5309997
  24.0249992 119.3014990   9.9039997  23.9239992 118.1964990   8.8749997
  23.5651933 118.6913380   9.4933477  24.7939992 126.4164990  12.6529997
  24.7889992 127.2954990  12.2749997  23.9409992 126.3324990  13.0779997
  24.6779199 126.5255901  12.6586942  20.9159992 126.0874990   3.4349997
  20.6439992 126.3164990   2.5459997  20.9609992 126.9244990   3.8959997
  20.8848360 126.2321034   3.3756186  18.5159992  50.1964990  86.8229997
  19.3499992  49.8184990  86.5419997  18.6279992  51.1394990  86.7039997
  18.6451917  50.2722954  86.7684844  34.5409992 127.7084990  10.1479997
  33.5989992 127.7674990  10.3099997  34.8169992 128.6144990  10.0109997
  34.4495865 127.8390299  10.1516174  34.8409992 115.9954990  11.5649997
  34.1049992 116.6054990  11.5279997  35.5249992 116.4104990  11.0389997
  34.8325367 116.1352562  11.4888156  27.8439992 114.0814990   9.0309997
  27.7269992 113.1334990   8.9769997  26.9889992 114.4144990   9.3039997
  27.7123691 113.9965842   9.0605072  32.7929992 129.4894990   6.7729997
  33.2179992 128.7824990   6.2879997  33.1099992 130.2914990   6.3559997
  32.8940266 129.5010201   6.6502461  33.9519992 127.3904990   5.2819997
  33.6949992 126.7004990   4.6699997  34.0229992 126.9474990   6.1269997
  33.9264322 127.2361568   5.3125372  35.6379992 125.9574990  13.7589997
  35.7779992 125.3654990  13.0199997  35.8059992 126.8304990  13.4029997
  35.6798734 125.9944041  13.6096937  30.1109992 122.9194990   3.5319997
  29.3989992 123.4544990   3.1799997  30.8019992 122.9744990   2.8719997
  30.1069704 123.0001663   3.3945797  30.1649992 121.3764990   0.5699997
  30.8659992 121.3994990   1.2219997  30.4669992 120.7484990  -0.0860003
  30.3018202 121.2947223   0.5705591  37.4799992 122.2974990  11.8249997
  36.8279992 122.9914990  11.9139997  37.9449992 122.5074990  11.0149997
  37.4535357 122.4209544  11.7277056  33.5169992 123.1284990   4.4829997
  32.7849992 123.3574990   5.0559997  33.9639992 122.4154990   4.9379997
  33.4772753 123.0633984   4.6229698  17.0019992  53.0744990  89.1299997
  16.3549992  53.3994990  89.7549997  16.4849992  52.6334990  88.4549997
  16.8434068  53.0594726  89.1244918  33.4139992 121.3034990  13.5509997
  33.4939992 122.0664990  14.1229997  32.8129992 121.5824990  12.8609997
  33.3436547 121.4457468  13.5360029  25.1619992 123.7594990   6.3659997
  24.8319992 123.3884990   5.5479997  25.7499992 123.0884990   6.7129997
  25.1963182 123.6180648   6.3009898  26.5289992 127.1874990   9.0469997
  26.4339992 126.6084990   8.2909997  27.2579992 126.8164990   9.5429997
  26.6146011 127.0580572   9.0106011  25.5289992 122.5274990   9.9989997
  26.0939992 122.6494990   9.2369997  25.8469992 123.1654990  10.6379997
  25.6493619 122.6304388   9.9810019  31.8379992 128.0314990  10.7329997
  31.5969992 128.6934990  11.3809997  31.6399992 127.1964990  11.1579997
  31.7782662 128.0092704  10.8791008  26.4089992 126.9274990  14.7169997
  26.0969992 127.7094990  15.1719997  25.7589992 126.7744990  14.0309997
  26.2784858 127.0137882  14.6865344  32.3879992 122.2914990   2.1689997
  32.9669992 122.4414990   2.9149997  32.8019992 122.7614990   1.4449997
  32.5233358 122.3755966   2.1733935  23.3289992 123.1254990  13.9449997
  23.3989992 123.7764990  14.6439997  22.4379992 123.2284990  13.6099997
  23.2181690 123.2284261  13.9953026  30.1139992 129.0274990   5.6039997
  30.5879992 129.3234990   6.3809997  29.5509992 129.7664990   5.3709997
  30.1027890 129.1678047   5.6788084  24.6479992 128.9984990  15.4799997
  24.6559992 128.8624990  14.5329997  23.7319992 128.8814990  15.7319997
  24.5252528 128.9640475  15.3843226  16.5439992  45.9324990  82.4379997
  16.3939992  44.9874990  82.4179997  16.1899992  46.2134990  83.2819997
  16.4756351  45.8411656  82.5493202  36.0859992 114.0414990   1.9809997
  35.1859992 114.1794990   2.2769997  36.3379992 114.8724990   1.5799997
  35.9967727 114.1728705   1.9672935  24.1519992 122.8284990   3.9549997
  23.8599992 123.5964990   3.4639997  23.4779992 122.1694990   3.7919997
  24.0208843 122.8444537   3.8657695  37.2759992 128.4074990   0.3579997
  37.3489992 129.3464990   0.5279997  38.1809992 128.1024990   0.3019997
  37.4084170 128.4948294   0.3737045  20.2449992 125.1914990  12.7699997
  19.7439992 125.1634990  11.9549997  20.2509992 124.2864990  13.0799997
  20.1771690 125.0652234  12.7002770  19.9959992 127.9724990   9.6539997
  20.9419992 127.8274990   9.6349997  19.8829992 128.7564990  10.1909997
  20.1103578 128.0586708   9.7240300  38.1929992 128.6384990  15.3369997
  38.1439992 127.6824990  15.2989997  37.3669992 128.9054990  15.7379997
  38.0745096 128.5438416  15.3860698  29.1719992 128.2124990  14.2129997
  29.2589992 129.0384990  14.6879997  28.3079992 127.8824990  14.4619997
  29.0671944 128.2809871  14.3116558  29.5859992 131.9844990   4.0189997
  29.5109992 131.8634990   3.0719997  29.6189992 132.9334990   4.1369997
  29.5802083 132.0962639   3.9054973  23.2399992 130.7734990   5.7999997
  23.3919992 130.4254990   6.6779997  22.3889992 130.4164990   5.5439997
  23.1458344 130.6775891   5.8856851  32.6879992 131.1384990   1.0209997
  33.0629992 130.3944990   0.5499997  32.6919992 130.8684990   1.9389997
  32.7398969 131.0000920   1.0806475   1.5789992  48.0104990  86.4479997
   1.7629992  47.9284990  85.5129997   2.4279992  47.8864990  86.8719997
   1.7190259  47.9824915  86.3771771  32.3569992 131.0644990   3.7699997
  31.4219992 131.1644990   3.9489997  32.6369992 130.3544990   4.3489997
  32.2669471 130.9822944   3.8726678  35.3449992 120.1314990  15.8169997
  34.9379992 120.6114990  15.0959997  35.3859992 119.2254990  15.5089997
  35.2948403 120.0747989  15.6767253  22.4939992 126.5154990  13.8129997
  22.7099992 126.1534990  14.6729997  21.6389992 126.1404990  13.6039997
  22.4079082 126.4153377  13.9022396  25.1129992 114.9854990   9.8089997
  24.2509992 114.8984990   9.4009997  25.0909992 115.8414990  10.2369997
  24.9920557 115.0893078   9.8110202  29.7759992 114.7074990  13.1839997
  30.1959992 114.2924990  13.9369997  28.8429992 114.5284990  13.3009997
  29.7073736 114.6264921  13.3028950  33.1019992 118.4624990  14.0369997
  32.5879992 118.3374990  14.8349997  32.9469992 119.3754990  13.7929997
  33.0107802 118.5687433  14.1131504  33.8649992 123.3234990  -0.2020003
  33.9069992 123.1014990  -1.1320003  34.7139992 123.7224990  -0.0120003
  33.9855253 123.3470510  -0.3036196  29.4379992 117.1994990   0.4689997
  29.1839992 117.2184990   1.3909997  29.1809992 116.3284990   0.1669997
  29.3684508 117.0843292   0.5544786  25.2039992 119.9504990  10.9039997
  24.5619992 119.9104990  11.6129997  25.2409992 120.8774990  10.6659997
  25.1211659 120.0702540  10.9688463  25.2009992 120.1714990   5.8159997
  24.3079992 119.8314990   5.7569997  25.6519992 119.7944990   5.0599997
  25.1397185 120.0740220   5.7057698  17.3999992  47.9024990  92.0769997
  17.9829992  47.1674990  92.2679997  17.9639992  48.6744990  92.1229997
  17.5560326  47.9062746  92.1093579  30.7369992 120.5874990   4.6329997
  30.3279992 121.4024990   4.3409997  31.4569992 120.4474990   4.0189997
  30.7784439 120.6800383   4.5100098  29.8389992 120.7634990  16.1209997
  29.2759992 120.0584990  16.4419997  30.6649992 120.6424990  16.5889997
  29.8736674 120.6507176  16.2281734  31.7409992 120.0334990   7.4469997
  31.5459992 120.6394990   6.7319997  31.9229992 119.2004990   7.0129997
  31.7389195 120.0037936   7.2904079  22.9539992 120.2714990  12.7709997
  22.9159992 120.6714990  13.6399997  22.4629992 119.4544990  12.8609997
  22.8824374 120.2158228  12.9020980  26.3199992 117.6454990  -0.4300003
  25.8889992 117.2004990   0.2989997  25.6019992 118.0164990  -0.9430003
  26.1639176 117.6347063  -0.3995087  19.5619992 117.3874990   6.6219997
  20.1929992 117.3584990   7.3409997  20.0119992 116.9624990   5.8909997
  19.7091082 117.3261269   6.6216307  20.8359992 118.1334990   2.0459997
  21.3109992 118.7244990   1.4609997  20.1189992 118.6634990   2.3929997
  20.8040406 118.2861011   2.0128495  31.0049992 121.6714990  12.1179997
  31.3289992 121.0404990  11.4749997  30.5649992 121.1374990  12.7789997
  30.9898707 121.5128261  12.1193195  27.7829992 117.5994990   6.9019997
  26.8719992 117.6564990   7.1909997  28.2879992 117.5394990   7.7129997
  27.7266873 117.5991838   7.0511190  22.6109992 119.2284990   5.7289997
  21.7219992 119.3274990   5.3889997  22.9069992 118.3864990   5.3829997
  22.5294001 119.1282473   5.6357318  18.8969992  45.8054990  92.7609997
  18.0329992  45.4264990  92.5959997  19.5009992  45.0664990  92.6869997
  18.8604912  45.6537937  92.7284360  26.2639992 119.2284990   3.3859997
  27.1959992 119.3574990   3.5639997  26.0489992 119.8974990   2.7359997
  26.3624472 119.3365817   3.3224873  32.1879992 116.8344990  10.1659997
  31.5109992 116.9654990  10.8299997  31.7019992 116.6794990   9.3559997
  32.0297265 116.8314665  10.1473380  24.9379992 120.4224990   0.9519997
  24.3959992 120.0434990   0.2609997  25.7719992 120.6174990   0.5239997
  24.9764390 120.3969091   0.7994374  35.4749992 132.5054990  16.4429997
  35.6749992 132.9294990  15.6089997  36.1309992 132.8494990  17.0499997
  35.5909937 132.6099993  16.4108645  23.0729992 124.9794990  16.0509997
  23.8049992 125.2344990  16.6129997  22.2929992 125.1844990  16.5669997
  23.0676526 125.0420438  16.1975168  29.1029992 120.3864990   8.7889997
  29.6669992 119.8404990   8.2419997  28.9549992 119.8654990   9.5779997
  29.1603037 120.2411798   8.8207212  24.1049992 116.5234990   5.2079997
  23.7869992 115.6204990   5.1719997  24.8859992 116.5254990   4.6549997
  24.1671079 116.4002240   5.1282908  27.7289992 118.7754990  11.2029997
  26.8939992 119.2294990  11.3139997  28.2529992 119.0514990  11.9549997
  27.6856072 118.8748960  11.3198118  28.2729992 124.9884990   2.8879997
  27.5279992 124.4804990   2.5659997  28.1389992 125.0374990   3.8339997
  28.1529334 124.9256144   2.9718892  35.4229992 124.1214990  11.6749997
  36.0649992 124.5774990  11.1309997  34.5929992 124.2344990  11.2119997
  35.3986536 124.1991813  11.5379579  16.2539992  43.5144990  80.8999997
  16.5339992  42.6074990  81.0249997  17.0129992  43.9484990  80.5109997
  16.3949471  43.4490654  80.8645052  32.1709992 117.8024990   1.0869997
  31.2319992 117.9134990   0.9359997  32.4679992 118.6584990   1.3939997
  32.0826136 117.9334977   1.1078568  29.7929992 125.1724990  14.1249997
  29.4469992 124.7904990  14.9319997  29.5929992 126.1054990  14.1959997
  29.7185987 125.2464013  14.2450443  32.8889992 119.6694990   2.7479997
  33.7809992 119.5314990   3.0669997  32.9459992 120.4604990   2.2109997
  33.0187380 119.7574777   2.7190981  23.3979992 124.2834990   8.6579997
  24.1429992 124.2804990   8.0559997  23.4759992 123.4594990   9.1389997
  23.5103365 124.1717395   8.6407412  30.3989992 126.4464990   1.9129997
  30.1039992 127.2734990   2.2949997  29.6959992 125.8274990   2.1099997
  30.2636379 126.4759182   1.9918636  20.4059992 122.7434990  13.9729997
  20.6289992 122.3254990  14.8039997  19.8039992 122.1314990  13.5499997
  20.3551513 122.6034617  14.0296722  27.4229992 122.2604990  16.1859997
  27.1269992 122.0954990  15.2899997  28.3539992 122.0404990  16.1749997
  27.5084401 122.2081891  16.0620189  32.0429992 127.6344990  14.0749997
  31.1419992 127.8174990  13.8079997  32.0769992 127.8934990  14.9959997
  31.9243861 127.6945245  14.1629517  37.7739992 119.8784990   2.4429997
  37.2199992 119.4824990   1.7699997  37.8749992 120.7894990   2.1649997
  37.7118589 119.9473904   2.3133839  37.7369992 125.6794990  15.2799997
  36.8859992 125.9174990  14.9119997  38.3279992 125.6624990  14.5259997
  37.7003831 125.7097623  15.1278448  16.8659992  44.0964990  86.3359997
  17.7989992  44.3084990  86.3019997  16.6309992  44.1974990  87.2589997
  16.9618357  44.1391303  86.4560232  36.0689992 128.6644990   2.9079997
  35.6969992 127.8394990   3.2169997  36.3469992 128.4814990   2.0099997
  36.0555807 128.5267031   2.8290063  33.2299992 123.4724990   9.9289997
  32.3019992 123.2414990   9.9019997  33.6809992 122.6954990   9.5989997
  33.1638165 123.3357785   9.8806772  25.7729992 127.8014990   6.0619997
  26.2999992 128.5744990   5.8619997  24.8929992 128.0254990   5.7599997
  25.7262121 127.9377344   5.9937460  21.5279992 122.6634990   0.6489997
  22.1439992 123.2904990   1.0289997  20.6659992 122.9794990   0.9209997
  21.4957678 122.7919423   0.7377192  27.1999992 125.4644990   5.6379997
  26.9589992 126.3894990   5.6799997  26.4599992 125.0054990   6.0349997
  27.0669463 125.5290969   5.6974279  27.7149992 129.6134990  11.9529997
  28.0779992 130.4674990  11.7199997  28.2469992 129.3214990  12.6939997
  27.8365141 129.6908907  12.0212079  25.8829992 130.4854990   5.1839997
  24.9339992 130.5914990   5.2349997  26.2349992 131.3064990   5.5279997
  25.8005647 130.6110029   5.2374882  31.2589992 125.7124990  11.6539997
  30.8329992 125.4844990  12.4799997  31.8399992 124.9734990  11.4719997
  31.2792088 125.5814393  11.7424454  33.4619992 126.6414990   0.7279997
  33.8149992 126.2614990   1.5319997  32.5129992 126.5474990   0.8149997
  33.3820956 126.5767867   0.8498005  33.9179992 130.2644990  14.1229997
  33.3159992 129.7084990  13.6279997  34.1989992 130.9314990  13.4969997
  33.8735757 130.2785755  13.9705657  16.8949992  44.8334990  89.1119997
  16.0519992  45.1014990  89.4779997  17.3379992  45.6554990  88.9009997
  16.8394358  44.9813294  89.1335999  37.9649992 131.1204990   0.9289997
  38.7089992 131.7064990   0.7889997  37.2709992 131.6894990   1.2619997
  37.9729809 131.2775830   0.9548572  22.0399992 117.4974990  13.5309997
  21.1469992 117.8354990  13.4629997  21.9409992 116.6414990  13.9489997
  21.9044752 117.4280986  13.5781644  34.3279992 125.3134990   2.9549997
  34.0509992 124.5854990   3.5109997  35.2549992 125.4324990   3.1599997
  34.4154419 125.2299436   3.0588264  21.6909992 129.3014990  11.9659997
  21.9079992 128.3694990  11.9349997  21.9379992 129.5764990  12.8489997
  21.7540948 129.2110976  12.0811268  26.4899992 127.3234990   1.6309997
  26.6369992 126.8034990   2.4209997  26.4869992 128.2304990   1.9379997
  26.5097102 127.3748964   1.7805907  22.9429992 124.5754990   2.1419997
  22.2569992 124.9284990   2.7089997  23.4659992 125.3384990   1.8949997
  22.9198402 124.7268912   2.1861783  30.7739992 117.2384990  12.4209997
  31.4729992 117.3124990  13.0709997  30.3939992 116.3734990  12.5749997
  30.8182662 117.1317050  12.5307412  31.5589992 116.8904990   3.5179997
  31.7789992 117.3614990   2.7139997  32.1169992 117.2844990   4.1879997
  31.6646044 117.0082946   3.4985207  29.2279992 129.0204990   2.3809997
  28.4109992 129.5174990   2.4329997  29.7569992 129.4964990   1.7399997
  29.1878125 129.1527000   2.3015289  28.7589992 118.6184990   4.3529997
  29.5709992 119.1224990   4.3989997  28.5139992 118.4734990   5.2669997
  28.8371091 118.6679366   4.4828552   1.1759992  43.2804990  92.5889997
   2.0959992  43.1584990  92.8249997   0.7269992  42.5304990  92.9779997
   1.2411561  43.1623720  92.6739015  29.2949992 119.6044990  13.5369997
  29.4139992 120.1784990  14.2939997  29.9499992 118.9164990  13.6519997
  29.3998684 119.5900205  13.6561656  29.6429992 115.6994990   5.2909997
  29.2959992 116.3164990   5.9349997  30.3009992 116.2004990   4.8089997
  29.6844430 115.8516860   5.3140046  26.5659992 130.0644990   2.3619997
  26.7269992 130.8644990   1.8619997  26.3689992 130.3714990   3.2469997
  26.5613906 130.2153690   2.4132316  25.2999992 116.7624990   1.9779997
  25.2169992 117.6504990   2.3249997  26.1899992 116.4974990   2.2099997
  25.4089331 116.8481177   2.0568067  35.4989992 117.5114990  14.3719997
  34.5829992 117.7734990  14.2849997  35.8349992 117.5084990  13.4759997
  35.4188499 117.5470174  14.2388748  34.1009992 121.2614990   8.4679997
  33.3039992 120.8464990   8.1399997  34.5459992 120.5714990   8.9589997
  34.0520367 121.1113372   8.4894897  23.5589992 127.1894990   1.0379997
  24.1509992 127.8894990   1.3149997  24.0179992 126.7564990   0.3189997
  23.7021652 127.2267686   0.9786515  21.8749992 119.8544990   0.1539997
  21.8299992 120.7934990   0.3329997  20.9869992 119.6184990  -0.1150003
  21.7488166 119.9511698   0.1421507  35.1879992 130.5174990  10.0899997
  35.0319992 131.1964990   9.4329997  36.1199992 130.5894990  10.2929997
  35.2927328 130.6201586  10.0275529  22.6829992 114.6354990   8.8269997
  22.4539992 114.6944990   7.8999997  22.2399992 113.8444990   9.1339997
  22.5917387 114.5366412   8.7415223  19.1779992  38.8134990  94.4659997
  19.5279992  38.1594990  93.8599997  19.3249992  39.6504990  94.0259997
  19.2457192  38.8372545  94.3236712  21.6129992 128.5764990   4.9879997
  20.7809992 129.0484990   5.0149997  22.1589992 129.0864990   4.3889997
  21.5728710 128.7100317   4.9107570  20.9019992 131.1884990  16.3179997
  21.4419992 130.9724990  17.0779997  20.4199992 130.3834990  16.1279997
  20.9108485 131.0500463  16.3964870  25.4989992 130.1084990  17.9379997
  26.2669992 129.6494990  18.2789997  25.4779992 129.8824990  17.0079997
  25.6012135 130.0151680  17.8589473  29.5909992 129.6164990  -0.6870003
  28.9469992 128.9854990  -0.3650003  30.3529992 129.0854990  -0.9180003
  29.6058708 129.4583171  -0.6741539  32.0759992 128.4884990  16.6669997
  31.7249992 127.6314990  16.9099997  32.8019992 128.6304990  17.2739997
  32.1261590 128.3905189  16.7822889  34.1949992 129.4334990  -0.4530003
  34.4779992 128.6384990  -0.0000003  34.9349992 129.6664990  -1.0140003
  34.3337295 129.3562349  -0.4668531  20.8089992 124.9994990  17.2719997
  20.9529992 124.0974990  16.9859997  20.0359992 125.2854990  16.7849997
  20.7242266 124.9146548  17.1670102  25.1499992 125.3424990  -0.5950003
  25.2139992 124.5484990  -0.0650003  25.8029992 125.2244990  -1.2850003
  25.2470483 125.2177496  -0.6156593  27.4639992 124.9684990  16.7049997
  27.1359992 125.2394990  15.8479997  27.6159992 124.0274990  16.6169997
  27.4396412 124.8784058  16.5757804  33.1989992 124.8844990  14.0879997
  33.9439992 125.4734990  13.9689997  32.4409992 125.4664990  14.1509997
  33.1985289 125.0437067  14.0802292  16.8679992  40.7774990  80.9489997
  17.0499992  40.3284990  81.7739997  16.2679992  40.1934990  80.4849997
  16.8118187  40.6370563  80.9992721  21.6409992 122.1994990  16.6919997
  22.0489992 121.3424990  16.5709997  21.3809992 122.2134990  17.6129997
  21.6617082 122.0840596  16.7999469  26.2989992 123.3154990   1.7109997
  25.8399992 122.8314990   2.3959997  26.5539992 122.6464990   1.0749997
  26.2705997 123.1588491   1.7188734  25.5879992 121.2084990  14.0669997
  24.9699992 121.8824990  14.3469997  25.9319992 121.5294990  13.2329997
  25.5498078 121.3442298  13.9926609  27.3699992 121.5584990  -0.0270003
  27.1899992 121.4034990  -0.9540003  28.3199992 121.6664990   0.0179997
  27.4737804 121.5518821  -0.1478034  30.6079992 123.6794990  17.3439997
  31.5609992 123.7634990  17.3169997  30.4479992 122.9674990  17.9629997
  30.7167320 123.5947292  17.4239933  36.7599992 123.9124990  -0.5810003
  36.4869992 123.4884990  -1.3940003  36.7999992 124.8444990  -0.7980003
  36.7280201 123.9803523  -0.7216452  25.9279992 118.5634990  15.1489997
  26.0779992 117.8344990  14.5469997  25.9299992 119.3404990  14.5899997
  25.9487967 118.5687720  14.9910523  26.3399992 116.9324990  12.6419997
  26.8759992 117.3844990  11.9899997  25.4879992 116.8244990  12.2189997
  26.2981795 116.9797444  12.4956211  27.9219992 122.3724990  12.8809997
  28.6729992 122.2164990  12.3079997  27.5829992 123.2244990  12.6059997
  27.9789587 122.4663149  12.7654060  32.3379992 120.1874990  17.9099997
  32.5299992 119.2564990  17.7979997  33.1949992 120.6124990  17.8989997
  32.4802176 120.1175090  17.8931757   2.3979992  41.5934990  85.4799997
   2.8429992  40.8014990  85.7819997   2.8639992  42.3094990  85.9109997
   2.5219059  41.5819485  85.5796061  33.6539992 122.9764990  15.9869997
  33.3729992 123.6854990  15.4089997  34.5969992 122.9034990  15.8359997
  33.7429272 123.0636704  15.8874976  24.4059992 119.7614990  17.0599997
  23.6389992 119.2284990  16.8499997  25.0849992 119.4514990  16.4609997
  24.3928292 119.6466360  16.9502693  27.1459992 114.3894990  13.0729997
  27.0479992 115.3354990  12.9679997  26.4029992 114.0164990  12.5969997
  27.0322123 114.4686811  12.9943204  28.4099992 118.7104990  16.6369997
  28.1739992 118.4914990  17.5379997  27.6269992 118.5034990  16.1269997
  28.2718382 118.6525340  16.6913991  31.1259992 117.8384990  15.7119997
  30.1779992 117.8704990  15.8439997  31.4379992 117.2124990  16.3659997
  31.0385293 117.7582934  15.8184130  32.7599992 116.4724990  17.7169997
  32.6629992 115.5204990  17.7119997  32.4379992 116.7404990  18.5779997
  32.7032468 116.3785896  17.8326192  22.5869992 117.6814990  16.7649997
  22.7979992 116.9754990  16.1549997  22.4749992 117.2444990  17.6089997
  22.6007668 117.5256619  16.7955445  27.3679992 113.6834990  15.7439997
  28.0789992 113.0434990  15.7299997  27.2669992 113.9494990  14.8309997
  27.4516858 113.6318591  15.6185501  27.7209992 115.3654990  17.7979997
  27.5899992 114.8904990  16.9779997  27.1219992 116.1104990  17.7429997
  27.6220829 115.4010949  17.6781823  27.2679992 132.2484990   0.9739997
  28.2009992 132.4064990   1.1179997  27.0029992 132.9244990   0.3489997
  27.3599846 132.3614567   0.9092930   0.7019992  44.5924990  86.5489997
   1.1939992  44.3714990  85.7589997   1.0639992  45.4324990  86.8299997
   0.8183429  44.6758220  86.4787918  20.8359992 126.8854990   0.4569997
  21.7499992 126.9644990   0.7299997  20.8429992 126.1984990  -0.2090003
  20.9620624 126.8034074   0.4043045  19.4849992 132.2784990   5.5339997
  18.8379992 131.8164990   5.0019997  19.8399992 131.6064990   6.1169997
  19.4443741 132.1244785   5.5399157  20.3549992 130.3584990   7.3389997
  20.0209992 129.4784990   7.5109997  20.5769992 130.7044990   8.2039997
  20.3392565 130.2847410   7.4794263  37.9039992 131.1684990  10.3199997
  37.8819992 131.3534990  11.2579997  38.5939992 131.7364990   9.9789997
  37.9943383 131.2707104  10.4024580  37.4669992 130.7354990  13.2409997
  36.9799992 129.9994990  12.8699997  38.0159992 130.3414990  13.9189997
  37.4746101 130.5816267  13.2819034  35.9179992 126.5254990  17.8789997
  35.0519992 126.4204990  18.2739997  36.2939992 127.2834990  18.3259997
  35.8504940 126.6136141  17.9933958  37.2189992 124.7814990   3.3939997
  38.0689992 125.2024990   3.5209997  37.2239992 124.0414990   4.0009997
  37.3361143 124.7391106   3.4934732  37.6129992 122.8354990   5.2169997
  36.8869992 122.3554990   5.6149997  38.1939992 123.0404990   5.9489997
  37.5922504 122.7975592   5.3704199  37.3719992 125.6204990  10.1649997
  38.2059992 125.2424990   9.8839997  37.4839992 126.5634990  10.0459997
  37.5011917 125.6962954  10.1104844  35.8579992 128.4984990  12.4719997
  35.2109992 128.8234990  13.0969997  35.3409992 128.0574990  11.7979997
  35.6994112 128.4834133  12.4665272  18.6979992  40.9224990  92.8149997
  17.7809992  41.1934990  92.7789997  18.8209992  40.3874990  92.0309997
  18.5890828  40.8872711  92.7040767  37.8809992 122.7364990   1.6079997
  37.3599992 123.0924990   0.8899997  37.8479992 123.4114990   2.2869997
  37.8050955 122.8765023   1.6012634  36.2299992 119.9754990   0.1589997
  36.3269992 120.6424990  -0.5210003  36.0899992 119.1604990  -0.3220003
  36.2243407 119.9565670   0.0008312  35.3999992 121.3564990   5.7799997
  35.2499992 120.4114990   5.7599997  35.0459992 121.6374990   6.6239997
  35.3316351 121.2651656   5.8913202  20.4349992 123.4344990   9.7909997
  20.6189992 123.3524990   8.8549997  21.2839992 123.3104990  10.2139997
  20.5750132 123.4065066   9.7201460  36.2559992 123.3264990  15.4189997
  36.8389992 122.5914990  15.6109997  36.8199992 124.0984990  15.4659997
  36.4119781 123.3303156  15.4516146  37.7529992 121.2294990  16.1039997
  36.8889992 120.8504990  15.9379997  38.3569992 120.4904990  16.0289997
  37.7165394 121.0778378  16.0711778  35.1099992 118.9384990   4.2429997
  35.3899992 118.0314990   4.3669997  35.8689992 119.3724990   3.8539997
  35.2509258 118.8730935   4.2073691  35.7219992 119.5204990   9.6789997
  36.6549992 119.7324990   9.6439997  35.4869992 119.6214990  10.6009997
  35.8179517 119.5631844   9.7989113  35.7509992 120.2574990  12.4549997
  34.9079992 120.5254990  12.8199997  36.1939992 121.0794990  12.2439997
  35.6954035 120.4053351  12.4764770  20.0319992 118.7044990  15.9309997
  20.9519992 118.5824990  16.1679997  19.5829992 117.9544990  16.3209997
  20.0970500 118.5864576  16.0161016  15.7859992  55.8344990  82.5489997
  16.4379992  55.4864990  81.9409997  16.2969992  56.3224990  83.1949997
  15.9442872  55.8528248  82.5530964  38.0339992 114.2374990  17.8079997
  38.3839992 113.5834990  17.2019997  38.1809992 115.0744990  17.3679997
  38.1017192 114.2612545  17.6656712  35.7239992 116.2014990   4.2909997
  35.9059992 115.7524990   5.1159997  35.1239992 115.6174990   3.8269997
  35.6678187 116.0610563   4.3412721  21.2539992 117.0174990   8.8229997
  21.6989992 116.2254990   9.1249997  21.7199992 117.7334990   9.2529997
  21.3779718 117.0059546   8.9225247  19.5579992 120.0164990   9.8919997
  20.0499992 119.7954990   9.1009997  19.9199992 120.8564990  10.1729997
  19.6742923 120.0998480   9.8217389  37.5539992 116.3464990  16.1569997
  36.6369992 116.6174990  16.1209997  37.6769992 115.8114990  15.3729997
  37.4450828 116.3112711  16.0460767  37.5899992 116.2694990   0.8189997
  38.0029992 115.5484990   0.3439997  38.2719992 116.9384990   0.8769997
  37.7386060 116.2613741   0.7619233  19.8709992 116.2744990   3.9459997
  18.9459992 116.4824990   3.8169997  20.3249992 116.7584990   3.2559997
  19.8056298 116.3684311   3.8350433  34.6419992 131.2584990   5.8919997
  35.2939992 130.9104990   5.2839997  35.1529992 131.7464990   6.5379997
  34.8002872 131.2768248   5.8960964  19.8349992 115.0124990  12.2899997
  19.1699992 114.7664990  12.9329997  19.3919992 115.6344990  11.7129997
  19.6841168 115.0629225  12.2999830  22.0269992 128.1874990  16.4349997
  21.2059992 128.3624990  15.9739997  21.7749992 128.1144990  17.3549997
  21.8805594 128.2015728  16.4963593   0.9789992  39.5884990  88.9479997
   0.3139992  39.3424990  89.5909997   0.5359992  40.2104990  88.3709997
   0.8281168  39.6389225  88.9579830  24.9809992 129.1614990  12.6929997
  24.5559992 129.9714990  12.4109997  25.8849992 129.2474990  12.3909997
  25.0450706 129.2839557  12.6135836  29.2919992 130.5604990  15.6529997
  29.4769992 130.2274990  16.5309997  30.1389992 130.8704990  15.3309997
  29.4317291 130.5568214  15.7296140  31.6369992 131.8464990  14.8969997
  32.3139992 131.2134990  14.6569997  31.9589992 132.2474990  15.7039997
  31.7731618 131.8141147  14.9732802  36.5549992 114.4364990  13.9759997
  35.7419992 114.7614990  13.5889997  36.7879992 113.6754990  13.4429997
  36.4751347 114.3781891  13.8509824  22.3829992 132.4184990  12.7409997
  21.6619992 132.8584990  12.2899997  22.0169992 132.1674990  13.5889997
  22.2349632 132.4447235  12.7939649  24.8499992 132.0184990  11.7699997
  23.9849992 132.0904990  12.1739997  24.7949992 132.5654990  10.9869997
  24.7242290 132.1023242  11.7193749  29.5609992 131.9064990  10.9459997
  29.1039992 132.4354990  10.2919997  29.7229992 132.5094990  11.6709997
  29.5203919 132.0603990  10.9545740  31.8879992 130.7844990  11.8909997
  30.9839992 130.9494990  11.6249997  32.3169992 131.6374990  11.8249997
  31.8222017 130.9224184  11.8456495  34.4919992 132.3544990  12.1859997
  34.3109992 133.2704990  11.9749997  34.6689992 131.9434990  11.3389997
  34.4911377 132.4243365  12.0427178  21.7979992 131.0414990   9.6509997
  21.7789992 130.6154990  10.5079997  22.6019992 130.7224990   9.2419997
  21.9041393 130.9400297   9.7130155   3.1709992  52.7634990  93.0919997
   2.3499992  52.9384990  92.6319997   2.9189992  52.6904990  94.0129997
   3.0246173  52.7775806  93.1534954  23.9389992 129.7514990   8.3059997
  23.7199992 128.8344990   8.4759997  24.7629992 129.8914990   8.7719997
  24.0204702 129.6450523   8.3922510  26.4759992 130.2214990   9.1549997
  26.6889992 129.3334990   8.8679997  26.5409992 130.1864990  10.1089997
  26.5139149 130.0953338   9.2447351  29.9849992 115.8854990   8.2989997
  29.3099992 115.2554990   8.5549997  30.5489992 115.4014990   7.6959997
  29.9689363 115.7338886   8.2524810  35.1269992 113.9924990   8.4119997
  35.7309992 114.5404990   7.9099997  34.2579992 114.3114990   8.1709997
  35.0920419 114.1105628   8.3107741  36.8539992 115.1314990   6.7449997
  37.4659992 114.6174990   6.2179997  37.2369992 116.0084990   6.7679997
  36.9893867 115.1797613   6.6760888  22.3109992 114.5194990   6.1209997
  21.5339992 114.2844990   5.6139997  22.8419992 113.7224990   6.1299997
  22.2763735 114.3796462   6.0528090  21.1479992 114.3174990   1.9249997
  21.5869992 114.9284990   1.3329997  20.5139992 114.8554990   2.3989997
  21.1223859 114.4739076   1.9080287  26.8909992 114.4454990   5.9339997
  27.7649992 114.8344990   5.9049997  26.7549992 114.2304990   6.8569997
  26.9921953 114.4696654   6.0547599  32.4469992 114.4754990   7.5839997
  32.5239992 114.5714990   6.6339997  32.1719992 113.5684990   7.7119997
  32.4203233 114.3659093   7.4713665  33.8009992 114.5014990   3.2759997
  33.0979992 115.1164990   3.0659997  33.3559992 113.6644990   3.4069997
  33.6446550 114.4724679   3.2649819   6.1249992  53.7374990  89.3509997
   5.6999992  54.5474990  89.0679997   7.0289992  53.8234990  89.0489997
   6.1891002  53.8598728  89.2714798  21.0489992 130.2654990   2.8219997
  20.3639992 130.2274990   2.1549997  21.0519992 131.1774990   3.1099997
  20.9556806 130.3836669   2.7696961  23.0089992 116.2334990   0.3669997
  23.4999992 115.6034990  -0.1600003  23.6319992 116.5294990   1.0299997
  23.1605304 116.1872387   0.3844922  28.0349992 116.5264990   2.8239997
  28.2129992 115.8794990   3.5069997  27.9809992 117.3604990   3.2909997
  28.0520678 116.5506615   2.9806283  29.9129992 131.4744990   1.2199997
  30.7789992 131.8414990   1.0419997  29.6659992 131.0354990   0.4059997
  29.9981853 131.4654021   1.0855813  36.6219992 131.0374990   3.8989997
  36.4279992 130.2894990   3.3339997  36.5829992 131.7954990   3.3159997
  36.5901645 131.0375797   3.7428131  22.2689992 115.0334990  15.6389997
  21.9029992 114.2674990  16.0809997  23.1819992 115.0624990  15.9249997
  22.3423172 114.9325335  15.7381872  24.2419992 114.3834990  17.1739997
  25.1409992 114.1094990  16.9899997  23.8559992 113.6414990  17.6389997
  24.3127307 114.2457207  17.2117080  22.8669992 131.1854990  -0.1530003
  22.5989992 131.4714990   0.7209997  23.6379992 130.6394990  -0.0000003
  22.9345926 131.1507790  -0.0128812  32.6629992 113.7164990  17.3569997
  32.7399992 113.2904990  18.2099997  33.5569992 113.7294990  17.0139997
  32.7943263 113.6599345  17.4274366  35.8399992 129.7884990  16.0489997
  35.0579992 129.6024990  15.5289997  35.7679992 130.7184990  16.2659997
  35.7232975 129.8886973  16.0071822  10.4359992  55.1364990  92.3099997
  10.6209992  54.8034990  93.1879997  11.2829992  55.4464990  91.9879997
  10.5757291  55.1328214  92.3866140  50.2459992 123.6754990   6.0799997
  50.3349992 124.6194990   5.9469997  49.6069992 123.4004990   5.4219997
  50.1718378 123.7673846   5.9729258  49.1789992 122.9304990   9.4989997
  49.1399992 122.2844990  10.2039997  48.8559992 122.4634990   8.7269997
  49.1300469 122.7790005   9.4912803  41.5469992 122.5444990  11.0919997
  41.5879992 121.9194990  11.8149997  42.2499992 123.1684990  11.2739997
  41.6476223 122.5432318  11.2156164  52.8849992 125.8694990   7.7999997
  52.4439992 125.1494990   8.2509997  52.8719992 126.5904990   8.4299997
  52.8229215 125.8684303   7.9468088  42.4709992 126.9944990   9.6269997
  42.1009992 126.1924990   9.2569997  43.4119992 126.8264990   9.6729997
  42.5475984 126.8619649   9.5825586  39.0809992 120.6544990   5.0189997
  38.6329992 121.5004990   5.0009997  38.5199992 120.0754990   4.5039997
  38.9438546 120.6919004   4.9468874  39.7909992 122.8164990   7.1449997
  40.0049992 122.0464990   7.6719997  40.5289992 122.9064990   6.5419997
  39.9200073 122.7233546   7.1355786  49.9959992 130.9734990   8.0119997
  50.6159992 130.2974990   7.7389997  49.7879992 130.7554990   8.9209997
  50.0527679 130.8515032   8.0974518  47.5679992 125.3624990   9.9049997
  47.8719992 124.6764990   9.3099997  48.2899992 125.4814990  10.5229997
  47.7071240 125.2847325   9.9070941  56.2309992 116.9644990  10.7649997
  56.2799992 117.5744990  11.5009997  56.6569992 117.4254990  10.0419997
  56.2952851 117.1103266  10.7680532  12.7809992  56.4224990  91.5539997
  13.4579992  55.7894990  91.3139997  13.1029992  56.8234990  92.3619997
  12.9171280  56.3900638  91.6303190  50.7089992 119.7564990  10.2319997
  50.8509992 118.8104990  10.2519997  50.6029992 119.9634990   9.3039997
  50.7141051 119.6549706  10.1092249  43.8639992 117.8584990   7.5049997
  43.9069992 118.7184990   7.0859997  43.4059992 117.3054990   6.8709997
  43.8080163 117.9014174   7.3620604  51.5859992 117.9894990   5.9049997
  52.2319992 117.6604990   6.5299997  52.0959992 118.5064990   5.2829997
  51.7434289 118.0144333   5.9063681  40.4839992 120.2554990   8.2669997
  41.1379992 119.7054990   8.6989997  40.5079992 119.9814990   7.3499997
  40.5767199 120.1432178   8.2021650  45.6399992 121.8054990   7.4819997
  46.2559992 121.2784990   7.9909997  45.0539992 121.1654990   7.0779997
  45.6450652 121.6468919   7.4970277  56.6229992 118.4424990  13.0009997
  55.9339992 119.1004990  12.9059997  56.6379992 118.2444990  13.9379997
  56.5307756 118.5057614  13.1145795  42.6739992 116.7764990  11.5789997
  42.4549992 117.3064990  10.8119997  42.0059992 117.0024990  12.2259997
  42.5536975 116.8795979  11.5615123  50.0429992 126.2764990   5.1229997
  49.7469992 125.9534990   4.2709997  49.7189992 127.1764990   5.1639997
  49.9587458 126.3539678   5.0120598  45.2429992 124.4514990  11.8659997
  44.5029992 125.0504990  11.9699997  45.9569992 125.0054990  11.5499997
  45.2383146 124.6082611  11.8375150  53.3499992 117.2804990   7.8859997
  53.1349992 116.5144990   8.4189997  54.0059992 117.7524990   8.3989997
  53.4092673 117.2395739   8.0281972  17.6989992  39.0124990  90.6339997
  16.8859992  39.3374990  90.2459997  17.9319992  38.2514990  90.1009997
  17.6192566  38.9541570  90.5089196  42.2679992 118.6684990   9.5309997
  42.8809992 119.3014990   9.9039997  42.7799992 118.1964990   8.8749997
  42.4211933 118.6913380   9.4933477  43.6499992 126.4164990  12.6529997
  43.6449992 127.2954990  12.2749997  42.7969992 126.3324990  13.0779997
  43.5339199 126.5255901  12.6586942  39.7719992 126.0874990   3.4349997
  39.4999992 126.3164990   2.5459997  39.8169992 126.9244990   3.8959997
  39.7408360 126.2321034   3.3756186  53.3969992 127.7084990  10.1479997
  52.4549992 127.7674990  10.3099997  53.6729992 128.6144990  10.0109997
  53.3055865 127.8390299  10.1516174  53.6969992 115.9954990  11.5649997
  52.9609992 116.6054990  11.5279997  54.3809992 116.4104990  11.0389997
  53.6885367 116.1352562  11.4888156  46.6999992 114.0814990   9.0309997
  46.5829992 113.1334990   8.9769997  45.8449992 114.4144990   9.3039997
  46.5683691 113.9965842   9.0605072  51.6489992 129.4894990   6.7729997
  52.0739992 128.7824990   6.2879997  51.9659992 130.2914990   6.3559997
  51.7500266 129.5010201   6.6502461  52.8079992 127.3904990   5.2819997
  52.5509992 126.7004990   4.6699997  52.8789992 126.9474990   6.1269997
  52.7824322 127.2361568   5.3125372  54.4939992 125.9574990  13.7589997
  54.6339992 125.3654990  13.0199997  54.6619992 126.8304990  13.4029997
  54.5358734 125.9944041  13.6096937  48.9669992 122.9194990   3.5319997
  48.2549992 123.4544990   3.1799997  49.6579992 122.9744990   2.8719997
  48.9629704 123.0001663   3.3945797   3.5269992  56.9944990  89.3979997
   2.8059992  57.4344990  88.9469997   3.1609992  56.7434990  90.2469997
   3.3789785  57.0207691  89.4509849  49.0209992 121.3764990   0.5699997
  49.7219992 121.3994990   1.2219997  49.3229992 120.7484990  -0.0860003
  49.1578202 121.2947223   0.5705591  56.3359992 122.2974990  11.8249997
  55.6839992 122.9914990  11.9139997  56.8009992 122.5074990  11.0149997
  56.3095357 122.4209544  11.7277056  52.3729992 123.1284990   4.4829997
  51.6409992 123.3574990   5.0559997  52.8199992 122.4154990   4.9379997
  52.3332753 123.0633984   4.6229698  52.2699992 121.3034990  13.5509997
  52.3499992 122.0664990  14.1229997  51.6689992 121.5824990  12.8609997
  52.1996547 121.4457468  13.5360029  44.0179992 123.7594990   6.3659997
  43.6879992 123.3884990   5.5479997  44.6059992 123.0884990   6.7129997
  44.0523182 123.6180648   6.3009898  45.3849992 127.1874990   9.0469997
  45.2899992 126.6084990   8.2909997  46.1139992 126.8164990   9.5429997
  45.4706011 127.0580572   9.0106011  44.3849992 122.5274990   9.9989997
  44.9499992 122.6494990   9.2369997  44.7029992 123.1654990  10.6379997
  44.5053619 122.6304388   9.9810019  50.6939992 128.0314990  10.7329997
  50.4529992 128.6934990  11.3809997  50.4959992 127.1964990  11.1579997
  50.6342662 128.0092704  10.8791008  45.2649992 126.9274990  14.7169997
  44.9529992 127.7094990  15.1719997  44.6149992 126.7744990  14.0309997
  45.1344858 127.0137882  14.6865344  51.2439992 122.2914990   2.1689997
  51.8229992 122.4414990   2.9149997  51.6579992 122.7614990   1.4449997
  51.3793358 122.3755966   2.1733935   5.9939992  56.5944990  88.4279997
   5.1289992  56.6664990  88.8319997   5.9389992  57.1414990  87.6439997
   5.8682066  56.6782678  88.3773371  42.1849992 123.1254990  13.9449997
  42.2549992 123.7764990  14.6439997  41.2939992 123.2284990  13.6099997
  42.0741690 123.2284261  13.9953026  48.9699992 129.0274990   5.6039997
  49.4439992 129.3234990   6.3809997  48.4069992 129.7664990   5.3709997
  48.9587890 129.1678047   5.6788084  43.5039992 128.9984990  15.4799997
  43.5119992 128.8624990  14.5329997  42.5879992 128.8814990  15.7319997
  43.3812528 128.9640475  15.3843226  54.9419992 114.0414990   1.9809997
  54.0419992 114.1794990   2.2769997  55.1939992 114.8724990   1.5799997
  54.8527727 114.1728705   1.9672935  43.0079992 122.8284990   3.9549997
  42.7159992 123.5964990   3.4639997  42.3339992 122.1694990   3.7919997
  42.8768843 122.8444537   3.8657695  56.1319992 128.4074990   0.3579997
  56.2049992 129.3464990   0.5279997  57.0369992 128.1024990   0.3019997
  56.2644170 128.4948294   0.3737045  39.1009992 125.1914990  12.7699997
  38.5999992 125.1634990  11.9549997  39.1069992 124.2864990  13.0799997
  39.0331690 125.0652234  12.7002770  38.8519992 127.9724990   9.6539997
  39.7979992 127.8274990   9.6349997  38.7389992 128.7564990  10.1909997
  38.9663578 128.0586708   9.7240300  57.0489992 128.6384990  15.3369997
  56.9999992 127.6824990  15.2989997  56.2229992 128.9054990  15.7379997
  56.9305096 128.5438416  15.3860698  48.0279992 128.2124990  14.2129997
  48.1149992 129.0384990  14.6879997  47.1639992 127.8824990  14.4619997
  47.9231944 128.2809871  14.3116558  10.7049992  56.4824990  87.6039997
  10.2479992  57.0114990  86.9499997  10.8669992  57.0854990  88.3289997
  10.6643919  56.6363990  87.6125740  48.4419992 131.9844990   4.0189997
  48.3669992 131.8634990   3.0719997  48.4749992 132.9334990   4.1369997
  48.4362083 132.0962639   3.9054973  42.0959992 130.7734990   5.7999997
  42.2479992 130.4254990   6.6779997  41.2449992 130.4164990   5.5439997
  42.0018344 130.6775891   5.8856851  51.5439992 131.1384990   1.0209997
  51.9189992 130.3944990   0.5499997  51.5479992 130.8684990   1.9389997
  51.5958969 131.0000920   1.0806475  51.2129992 131.0644990   3.7699997
  50.2779992 131.1644990   3.9489997  51.4929992 130.3544990   4.3489997
  51.1229471 130.9822944   3.8726678  54.2009992 120.1314990  15.8169997
  53.7939992 120.6114990  15.0959997  54.2419992 119.2254990  15.5089997
  54.1508403 120.0747989  15.6767253  41.3499992 126.5154990  13.8129997
  41.5659992 126.1534990  14.6729997  40.4949992 126.1404990  13.6039997
  41.2639082 126.4153377  13.9022396  43.9689992 114.9854990   9.8089997
  43.1069992 114.8984990   9.4009997  43.9469992 115.8414990  10.2369997
  43.8480557 115.0893078   9.8110202  48.6319992 114.7074990  13.1839997
  49.0519992 114.2924990  13.9369997  47.6989992 114.5284990  13.3009997
  48.5633736 114.6264921  13.3028950  51.9579992 118.4624990  14.0369997
  51.4439992 118.3374990  14.8349997  51.8029992 119.3754990  13.7929997
  51.8667802 118.5687433  14.1131504  52.7209992 123.3234990  -0.2020003
  52.7629992 123.1014990  -1.1320003  53.5699992 123.7224990  -0.0120003
  52.8415253 123.3470510  -0.3036196  13.0319992  55.3604990  88.5489997
  12.1279992  55.5254990  88.2829997  13.4609992  56.2134990  88.4829997
  12.9662017  55.4984184  88.5036495  48.2939992 117.1994990   0.4689997
  48.0399992 117.2184990   1.3909997  48.0369992 116.3284990   0.1669997
  48.2244508 117.0843292   0.5544786  44.0599992 119.9504990  10.9039997
  43.4179992 119.9104990  11.6129997  44.0969992 120.8774990  10.6659997
  43.9771659 120.0702540  10.9688463  44.0569992 120.1714990   5.8159997
  43.1639992 119.8314990   5.7569997  44.5079992 119.7944990   5.0599997
  43.9957185 120.0740220   5.7057698  49.5929992 120.5874990   4.6329997
  49.1839992 121.4024990   4.3409997  50.3129992 120.4474990   4.0189997
  49.6344439 120.6800383   4.5100098  48.6949992 120.7634990  16.1209997
  48.1319992 120.0584990  16.4419997  49.5209992 120.6424990  16.5889997
  48.7296674 120.6507176  16.2281734  50.5969992 120.0334990   7.4469997
  50.4019992 120.6394990   6.7319997  50.7789992 119.2004990   7.0129997
  50.5949195 120.0037936   7.2904079  41.8099992 120.2714990  12.7709997
  41.7719992 120.6714990  13.6399997  41.3189992 119.4544990  12.8609997
  41.7384374 120.2158228  12.9020980  45.1759992 117.6454990  -0.4300003
  44.7449992 117.2004990   0.2989997  44.4579992 118.0164990  -0.9430003
  45.0199176 117.6347063  -0.3995087  38.4179992 117.3874990   6.6219997
  39.0489992 117.3584990   7.3409997  38.8679992 116.9624990   5.8909997
  38.5651082 117.3261269   6.6216307  39.6919992 118.1334990   2.0459997
  40.1669992 118.7244990   1.4609997  38.9749992 118.6634990   2.3929997
  39.6600406 118.2861011   2.0128495  15.6359992  56.9304990  88.8439997
  15.4549992  57.8464990  88.6329997  15.8129992  56.5194990  87.9969997
  15.6351377  57.0003365  88.7007178  49.8609992 121.6714990  12.1179997
  50.1849992 121.0404990  11.4749997  49.4209992 121.1374990  12.7789997
  49.8458707 121.5128261  12.1193195  46.6389992 117.5994990   6.9019997
  45.7279992 117.6564990   7.1909997  47.1439992 117.5394990   7.7129997
  46.5826873 117.5991838   7.0511190  41.4669992 119.2284990   5.7289997
  40.5779992 119.3274990   5.3889997  41.7629992 118.3864990   5.3829997
  41.3854001 119.1282473   5.6357318  45.1199992 119.2284990   3.3859997
  46.0519992 119.3574990   3.5639997  44.9049992 119.8974990   2.7359997
  45.2184472 119.3365817   3.3224873  51.0439992 116.8344990  10.1659997
  50.3669992 116.9654990  10.8299997  50.5579992 116.6794990   9.3559997
  50.8857265 116.8314665  10.1473380  43.7939992 120.4224990   0.9519997
  43.2519992 120.0434990   0.2609997  44.6279992 120.6174990   0.5239997
  43.8324390 120.3969091   0.7994374  54.3309992 132.5054990  16.4429997
  54.5309992 132.9294990  15.6089997  54.9869992 132.8494990  17.0499997
  54.4469937 132.6099993  16.4108645  41.9289992 124.9794990  16.0509997
  42.6609992 125.2344990  16.6129997  41.1489992 125.1844990  16.5669997
  41.9236526 125.0420438  16.1975168  47.9589992 120.3864990   8.7889997
  48.5229992 119.8404990   8.2419997  47.8109992 119.8654990   9.5779997
  48.0163037 120.2411798   8.8207212  42.9609992 116.5234990   5.2079997
  42.6429992 115.6204990   5.1719997  43.7419992 116.5254990   4.6549997
  43.0231079 116.4002240   5.1282908   2.9419992  55.6174990  86.3089997
   2.9229992  55.1914990  87.1659997   3.7459992  55.2984990  85.8999997
   3.0481393  55.5160297  86.3710155  46.5849992 118.7754990  11.2029997
  45.7499992 119.2294990  11.3139997  47.1089992 119.0514990  11.9549997
  46.5416072 118.8748960  11.3198118  47.1289992 124.9884990   2.8879997
  46.3839992 124.4804990   2.5659997  46.9949992 125.0374990   3.8339997
  47.0089334 124.9256144   2.9718892  54.2789992 124.1214990  11.6749997
  54.9209992 124.5774990  11.1309997  53.4489992 124.2344990  11.2119997
  54.2546536 124.1991813  11.5379579  51.0269992 117.8024990   1.0869997
  50.0879992 117.9134990   0.9359997  51.3239992 118.6584990   1.3939997
  50.9386136 117.9334977   1.1078568  48.6489992 125.1724990  14.1249997
  48.3029992 124.7904990  14.9319997  48.4489992 126.1054990  14.1959997
  48.5745987 125.2464013  14.2450443  51.7449992 119.6694990   2.7479997
  52.6369992 119.5314990   3.0669997  51.8019992 120.4604990   2.2109997
  51.8747380 119.7574777   2.7190981  42.2539992 124.2834990   8.6579997
  42.9989992 124.2804990   8.0559997  42.3319992 123.4594990   9.1389997
  42.3663365 124.1717395   8.6407412  49.2549992 126.4464990   1.9129997
  48.9599992 127.2734990   2.2949997  48.5519992 125.8274990   2.1099997
  49.1196379 126.4759182   1.9918636  39.2619992 122.7434990  13.9729997
  39.4849992 122.3254990  14.8039997  38.6599992 122.1314990  13.5499997
  39.2111513 122.6034617  14.0296722  46.2789992 122.2604990  16.1859997
  45.9829992 122.0954990  15.2899997  47.2099992 122.0404990  16.1749997
  46.3644401 122.2081891  16.0620189   5.0829992  54.3274990  84.9639997
   4.8639992  53.4104990  85.1329997   5.9069992  54.4674990  85.4299997
   5.1644637  54.2209586  85.0501414  50.8989992 127.6344990  14.0749997
  49.9979992 127.8174990  13.8079997  50.9329992 127.8934990  14.9959997
  50.7803861 127.6945245  14.1629517  56.6299992 119.8784990   2.4429997
  56.0759992 119.4824990   1.7699997  56.7309992 120.7894990   2.1649997
  56.5678589 119.9473904   2.3133839  56.5929992 125.6794990  15.2799997
  55.7419992 125.9174990  14.9119997  57.1839992 125.6624990  14.5259997
  56.5563831 125.7097623  15.1278448  54.9249992 128.6644990   2.9079997
  54.5529992 127.8394990   3.2169997  55.2029992 128.4814990   2.0099997
  54.9115807 128.5267031   2.8290063  52.0859992 123.4724990   9.9289997
  51.1579992 123.2414990   9.9019997  52.5369992 122.6954990   9.5989997
  52.0198165 123.3357785   9.8806772  44.6289992 127.8014990   6.0619997
  45.1559992 128.5744990   5.8619997  43.7489992 128.0254990   5.7599997
  44.5822121 127.9377344   5.9937460  40.3839992 122.6634990   0.6489997
  40.9999992 123.2904990   1.0289997  39.5219992 122.9794990   0.9209997
  40.3517678 122.7919423   0.7377192  46.0559992 125.4644990   5.6379997
  45.8149992 126.3894990   5.6799997  45.3159992 125.0054990   6.0349997
  45.9229463 125.5290969   5.6974279  46.5709992 129.6134990  11.9529997
  46.9339992 130.4674990  11.7199997  47.1029992 129.3214990  12.6939997
  46.6925141 129.6908907  12.0212079  44.7389992 130.4854990   5.1839997
  43.7899992 130.5914990   5.2349997  45.0909992 131.3064990   5.5279997
  44.6565647 130.6110029   5.2374883   7.6199992  54.7974990  85.8119997
   7.8329992  53.9094990  85.5249997   7.6849992  54.7624990  86.7669997
   7.6579075  54.6713318  85.9017355  50.1149992 125.7124990  11.6539997
  49.6889992 125.4844990  12.4799997  50.6959992 124.9734990  11.4719997
  50.1352088 125.5814393  11.7424454  52.3179992 126.6414990   0.7279997
  52.6709992 126.2614990   1.5319997  51.3689992 126.5474990   0.8149997
  52.2380956 126.5767867   0.8498005  52.7739992 130.2644990  14.1229997
  52.1719992 129.7084990  13.6279997  53.0549992 130.9314990  13.4969997
  52.7295757 130.2785755  13.9705657  56.8209992 131.1204990   0.9289997
  57.5649992 131.7064990   0.7889997  56.1269992 131.6894990   1.2619997
  56.8289809 131.2775830   0.9548572  40.8959992 117.4974990  13.5309997
  40.0029992 117.8354990  13.4629997  40.7969992 116.6414990  13.9489997
  40.7604752 117.4280986  13.5781644  53.1839992 125.3134990   2.9549997
  52.9069992 124.5854990   3.5109997  54.1109992 125.4324990   3.1599997
  53.2714419 125.2299436   3.0588264  40.5469992 129.3014990  11.9659997
  40.7639992 128.3694990  11.9349997  40.7939992 129.5764990  12.8489997
  40.6100948 129.2110976  12.0811268  45.3459992 127.3234990   1.6309997
  45.4929992 126.8034990   2.4209997  45.3429992 128.2304990   1.9379997
  45.3657102 127.3748964   1.7805907  41.7989992 124.5754990   2.1419997
  41.1129992 124.9284990   2.7089997  42.3219992 125.3384990   1.8949997
  41.7758402 124.7268912   2.1861783  49.6299992 117.2384990  12.4209997
  50.3289992 117.3124990  13.0709997  49.2499992 116.3734990  12.5749997
  49.6742662 117.1317050  12.5307412  11.1289992  40.4614990  84.9569997
  10.4539992  39.8314990  85.2119997  11.6929992  39.9774990  84.3539997
  11.1129558  40.3099283  84.9103451  50.4149992 116.8904990   3.5179997
  50.6349992 117.3614990   2.7139997  50.9729992 117.2844990   4.1879997
  50.5206044 117.0082946   3.4985207  48.0839992 129.0204990   2.3809997
  47.2669992 129.5174990   2.4329997  48.6129992 129.4964990   1.7399997
  48.0438125 129.1527000   2.3015289  47.6149992 118.6184990   4.3529997
  48.4269992 119.1224990   4.3989997  47.3699992 118.4734990   5.2669997
  47.6931091 118.6679366   4.4828552  48.1509992 119.6044990  13.5369997
  48.2699992 120.1784990  14.2939997  48.8059992 118.9164990  13.6519997
  48.2558684 119.5900205  13.6561656  48.4989992 115.6994990   5.2909997
  48.1519992 116.3164990   5.9349997  49.1569992 116.2004990   4.8089997
  48.5404430 115.8516860   5.3140046  45.4219992 130.0644990   2.3619997
  45.5829992 130.8644990   1.8619997  45.2249992 130.3714990   3.2469997
  45.4173906 130.2153690   2.4132316  44.1559992 116.7624990   1.9779997
  44.0729992 117.6504990   2.3249997  45.0459992 116.4974990   2.2099997
  44.2649331 116.8481177   2.0568067  54.3549992 117.5114990  14.3719997
  53.4389992 117.7734990  14.2849997  54.6909992 117.5084990  13.4759997
  54.2748499 117.5470174  14.2388748  52.9569992 121.2614990   8.4679997
  52.1599992 120.8464990   8.1399997  53.4019992 120.5714990   8.9589997
  52.9080367 121.1113372   8.4894897  42.4149992 127.1894990   1.0379997
  43.0069992 127.8894990   1.3149997  42.8739992 126.7564990   0.3189997
  42.5581652 127.2267686   0.9786515  16.2709992  38.5684990  85.0689997
  16.8749992  39.1164990  84.5679997  15.4019992  38.8874990  84.8289997
  16.2361126  38.6867070  84.9679180  40.7309992 119.8544990   0.1539997
  40.6859992 120.7934990   0.3329997  39.8429992 119.6184990  -0.1150003
  40.6048166 119.9511698   0.1421507  54.0439992 130.5174990  10.0899997
  53.8879992 131.1964990   9.4329997  54.9759992 130.5894990  10.2929997
  54.1487328 130.6201586  10.0275529  41.5389992 114.6354990   8.8269997
  41.3099992 114.6944990   7.8999997  41.0959992 113.8444990   9.1339997
  41.4477387 114.5366412   8.7415223  40.4689992 128.5764990   4.9879997
  39.6369992 129.0484990   5.0149997  41.0149992 129.0864990   4.3889997
  40.4288710 128.7100317   4.9107570  39.7579992 131.1884990  16.3179997
  40.2979992 130.9724990  17.0779997  39.2759992 130.3834990  16.1279997
  39.7668485 131.0500463  16.3964870  44.3549992 130.1084990  17.9379997
  45.1229992 129.6494990  18.2789997  44.3339992 129.8824990  17.0079997
  44.4572135 130.0151680  17.8589473  48.4469992 129.6164990  -0.6870003
  47.8029992 128.9854990  -0.3650003  49.2089992 129.0854990  -0.9180003
  48.4618708 129.4583171  -0.6741539  50.9319992 128.4884990  16.6669997
  50.5809992 127.6314990  16.9099997  51.6579992 128.6304990  17.2739997
  50.9821590 128.3905189  16.7822889  53.0509992 129.4334990  -0.4530003
  53.3339992 128.6384990  -0.0000003  53.7909992 129.6664990  -1.0140003
  53.1897295 129.3562349  -0.4668531  39.6649992 124.9994990  17.2719997
  39.8089992 124.0974990  16.9859997  38.8919992 125.2854990  16.7849997
  39.5802266 124.9146548  17.1670102  17.9979992  39.7074990  83.4029997
  18.6099992  39.1934990  82.8759997  18.3809992  40.5844990  83.4259997
  18.1333867  39.7557613  83.3340888  44.0059992 125.3424990  -0.5950003
  44.0699992 124.5484990  -0.0650003  44.6589992 125.2244990  -1.2850003
  44.1030483 125.2177496  -0.6156593  46.3199992 124.9684990  16.7049997
  45.9919992 125.2394990  15.8479997  46.4719992 124.0274990  16.6169997
  46.2956412 124.8784058  16.5757804  52.0549992 124.8844990  14.0879997
  52.7999992 125.4734990  13.9689997  51.2969992 125.4664990  14.1509997
  52.0545289 125.0437067  14.0802292  40.4969992 122.1994990  16.6919997
  40.9049992 121.3424990  16.5709997  40.2369992 122.2134990  17.6129997
  40.5177082 122.0840596  16.7999469  45.1549992 123.3154990   1.7109997
  44.6959992 122.8314990   2.3959997  45.4099992 122.6464990   1.0749997
  45.1265997 123.1588491   1.7188734  44.4439992 121.2084990  14.0669997
  43.8259992 121.8824990  14.3469997  44.7879992 121.5294990  13.2329997
  44.4058078 121.3442298  13.9926609  46.2259992 121.5584990  -0.0270003
  46.0459992 121.4034990  -0.9540003  47.1759992 121.6664990   0.0179997
  46.3297804 121.5518821  -0.1478034  49.4639992 123.6794990  17.3439997
  50.4169992 123.7634990  17.3169997  49.3039992 122.9674990  17.9629997
  49.5727320 123.5947292  17.4239933  55.6159992 123.9124990  -0.5810003
  55.3429992 123.4884990  -1.3940003  55.6559992 124.8444990  -0.7980003
  55.5840201 123.9803523  -0.7216452  44.7839992 118.5634990  15.1489997
  44.9339992 117.8344990  14.5469997  44.7859992 119.3404990  14.5899997
  44.8047967 118.5687720  14.9910523   3.4549992  39.0954990  82.7789997
   2.6779992  38.8604990  82.2709997   3.9859992  38.2984990  82.7879997
   3.4204443  38.9556721  82.7107200  45.1959992 116.9324990  12.6419997
  45.7319992 117.3844990  11.9899997  44.3439992 116.8244990  12.2189997
  45.1541795 116.9797444  12.4956211  46.7779992 122.3724990  12.8809997
  47.5289992 122.2164990  12.3079997  46.4389992 123.2244990  12.6059997
  46.8349587 122.4663149  12.7654060  51.1939992 120.1874990  17.9099997
  51.3859992 119.2564990  17.7979997  52.0509992 120.6124990  17.8989997
  51.3362176 120.1175090  17.8931757  52.5099992 122.9764990  15.9869997
  52.2289992 123.6854990  15.4089997  53.4529992 122.9034990  15.8359997
  52.5989272 123.0636704  15.8874976  43.2619992 119.7614990  17.0599997
  42.4949992 119.2284990  16.8499997  43.9409992 119.4514990  16.4609997
  43.2488292 119.6466360  16.9502693  46.0019992 114.3894990  13.0729997
  45.9039992 115.3354990  12.9679997  45.2589992 114.0164990  12.5969997
  45.8882123 114.4686811  12.9943204  47.2659992 118.7104990  16.6369997
  47.0299992 118.4914990  17.5379997  46.4829992 118.5034990  16.1269997
  47.1278382 118.6525340  16.6913991  49.9819992 117.8384990  15.7119997
  49.0339992 117.8704990  15.8439997  50.2939992 117.2124990  16.3659997
  49.8945293 117.7582934  15.8184130  51.6159992 116.4724990  17.7169997
  51.5189992 115.5204990  17.7119997  51.2939992 116.7404990  18.5779997
  51.5592468 116.3785896  17.8326192  41.4429992 117.6814990  16.7649997
  41.6539992 116.9754990  16.1549997  41.3309992 117.2444990  17.6089997
  41.4567668 117.5256619  16.7955445   8.0349992  39.0214990  82.5919997
   8.9089992  39.4104990  82.5619997   7.8989992  38.8064990  83.5149997
   8.1363125  39.0457120  82.7126523  46.2239992 113.6834990  15.7439997
  46.9349992 113.0434990  15.7299997  46.1229992 113.9494990  14.8309997
  46.3076858 113.6318591  15.6185501  46.5769992 115.3654990  17.7979997
  46.4459992 114.8904990  16.9779997  45.9779992 116.1104990  17.7429997
  46.4780829 115.4010949  17.6781823  46.1239992 132.2484990   0.9739997
  47.0569992 132.4064990   1.1179997  45.8589992 132.9244990   0.3489997
  46.2159846 132.3614567   0.9092930  39.6919992 126.8854990   0.4569997
  40.6059992 126.9644990   0.7299997  39.6989992 126.1984990  -0.2090003
  39.8180624 126.8034074   0.4043045  38.3409992 132.2784990   5.5339997
  37.6939992 131.8164990   5.0019997  38.6959992 131.6064990   6.1169997
  38.3003741 132.1244785   5.5399157  39.2109992 130.3584990   7.3389997
  38.8769992 129.4784990   7.5109997  39.4329992 130.7044990   8.2039997
  39.1952565 130.2847410   7.4794263  56.7599992 131.1684990  10.3199997
  56.7379992 131.3534990  11.2579997  57.4499992 131.7364990   9.9789997
  56.8503383 131.2707104  10.4024580  56.3229992 130.7354990  13.2409997
  55.8359992 129.9994990  12.8699997  56.8719992 130.3414990  13.9189997
  56.3306101 130.5816267  13.2819034  54.7739992 126.5254990  17.8789997
  53.9079992 126.4204990  18.2739997  55.1499992 127.2834990  18.3259997
  54.7064940 126.6136141  17.9933958  56.0749992 124.7814990   3.3939997
  56.9249992 125.2024990   3.5209997  56.0799992 124.0414990   4.0009997
  56.1921143 124.7391106   3.4934732  13.5909992  39.0514990  84.2409997
  13.6679992  39.1474990  83.2919997  13.3159992  38.1444990  84.3699997
  13.5643407  38.9419188  84.1283532  56.4689992 122.8354990   5.2169997
  55.7429992 122.3554990   5.6149997  57.0499992 123.0404990   5.9489997
  56.4482504 122.7975592   5.3704199  56.2279992 125.6204990  10.1649997
  57.0619992 125.2424990   9.8839997  56.3399992 126.5634990  10.0459997
  56.3571917 125.6962954  10.1104844  54.7139992 128.4984990  12.4719997
  54.0669992 128.8234990  13.0969997  54.1969992 128.0574990  11.7979997
  54.5554112 128.4834133  12.4665272  56.7369992 122.7364990   1.6079997
  56.2159992 123.0924990   0.8899997  56.7039992 123.4114990   2.2869997
  56.6610955 122.8765024   1.6012634  55.0859992 119.9754990   0.1589997
  55.1829992 120.6424990  -0.5210003  54.9459992 119.1604990  -0.3220003
  55.0803407 119.9565670   0.0008312  54.2559992 121.3564990   5.7799997
  54.1059992 120.4114990   5.7599997  53.9019992 121.6374990   6.6239997
  54.1876351 121.2651656   5.8913202  39.2909992 123.4344990   9.7909997
  39.4749992 123.3524990   8.8549997  40.1399992 123.3104990  10.2139997
  39.4310132 123.4065066   9.7201460  55.1119992 123.3264990  15.4189997
  55.6949992 122.5914990  15.6109997  55.6759992 124.0984990  15.4659997
  55.2679781 123.3303156  15.4516146  56.6089992 121.2294990  16.1039997
  55.7449992 120.8504990  15.9379997  57.2129992 120.4904990  16.0289997
  56.5725394 121.0778378  16.0711778  53.9659992 118.9384990   4.2429997
  54.2459992 118.0314990   4.3669997  54.7249992 119.3724990   3.8539997
  54.1069258 118.8730935   4.2073691  14.9449992  39.0774990  79.9339997
  14.2419992  39.6924990  79.7239997  14.4999992  38.2404990  80.0649997
  14.7886550  39.0484679  79.9229819  54.5779992 119.5204990   9.6789997
  55.5109992 119.7324990   9.6439997  54.3429992 119.6214990  10.6009997
  54.6739517 119.5631844   9.7989113  54.6069992 120.2574990  12.4549997
  53.7639992 120.5254990  12.8199997  55.0499992 121.0794990  12.2439997
  54.5514035 120.4053351  12.4764770  38.8879992 118.7044990  15.9309997
  39.8079992 118.5824990  16.1679997  38.4389992 117.9544990  16.3209997
  38.9530500 118.5864576  16.0161016  56.8899992 114.2374990  17.8079997
  57.2399992 113.5834990  17.2019997  57.0369992 115.0744990  17.3679997
  56.9577192 114.2612545  17.6656712  54.5799992 116.2014990   4.2909997
  54.7619992 115.7524990   5.1159997  53.9799992 115.6174990   3.8269997
  54.5238187 116.0610563   4.3412721  40.1099992 117.0174990   8.8229997
  40.5549992 116.2254990   9.1249997  40.5759992 117.7334990   9.2529997
  40.2339718 117.0059546   8.9225247  38.4139992 120.0164990   9.8919997
  38.9059992 119.7954990   9.1009997  38.7759992 120.8564990  10.1729997
  38.5302923 120.0998480   9.8217389  56.4099992 116.3464990  16.1569997
  55.4929992 116.6174990  16.1209997  56.5329992 115.8114990  15.3729997
  56.3010828 116.3112711  16.0460767  56.4459992 116.2694990   0.8189997
  56.8589992 115.5484990   0.3439997  57.1279992 116.9384990   0.8769997
  56.5946060 116.2613741   0.7619233  38.7269992 116.2744990   3.9459997
  37.8019992 116.4824990   3.8169997  39.1809992 116.7584990   3.2559997
  38.6616298 116.3684311   3.8350433   2.1929992  54.8414990  79.4799997
   1.5079992  54.8034990  78.8119997   2.1959992  55.7534990  79.7679997
   2.0997358  54.9596744  79.4276145  53.4979992 131.2584990   5.8919997
  54.1499992 130.9104990   5.2839997  54.0089992 131.7464990   6.5379997
  53.6562872 131.2768248   5.8960964  38.6909992 115.0124990  12.2899997
  38.0259992 114.7664990  12.9329997  38.2479992 115.6344990  11.7129997
  38.5401168 115.0629225  12.2999830  40.8829992 128.1874990  16.4349997
  40.0619992 128.3624990  15.9739997  40.6309992 128.1144990  17.3549997
  40.7365594 128.2015728  16.4963593  43.8369992 129.1614990  12.6929997
  43.4119992 129.9714990  12.4109997  44.7409992 129.2474990  12.3909997
  43.9010706 129.2839557  12.6135836  48.1479992 130.5604990  15.6529997
  48.3329992 130.2274990  16.5309997  48.9949992 130.8704990  15.3309997
  48.2877291 130.5568214  15.7296140  50.4929992 131.8464990  14.8969997
  51.1699992 131.2134990  14.6569997  50.8149992 132.2474990  15.7039997
  50.6291618 131.8141147  14.9732802  55.4109992 114.4364990  13.9759997
  54.5979992 114.7614990  13.5889997  55.6439992 113.6754990  13.4429997
  55.3311347 114.3781891  13.8509824  41.2389992 132.4184990  12.7409997
  40.5179992 132.8584990  12.2899997  40.8729992 132.1674990  13.5889997
  41.0909632 132.4447235  12.7939649  43.7059992 132.0184990  11.7699997
  42.8409992 132.0904990  12.1739997  43.6509992 132.5654990  10.9869997
  43.5802289 132.1023242  11.7193749  48.4169992 131.9064990  10.9459997
  47.9599992 132.4354990  10.2919997  48.5789992 132.5094990  11.6709997
  48.3763919 132.0603990  10.9545740   9.1789992  41.1024990  79.4819997
   9.3569992  40.4554990  80.1649997   9.1249992  41.9364990  79.9489997
   9.1960678  41.1266615  79.6386283  50.7439992 130.7844990  11.8909997
  49.8399992 130.9494990  11.6249997  51.1729992 131.6374990  11.8249997
  50.6782017 130.9224184  11.8456495  53.3479992 132.3544990  12.1859997
  53.1669992 133.2704990  11.9749997  53.5249992 131.9434990  11.3389997
  53.3471377 132.4243365  12.0427178  40.6539992 131.0414990   9.6509997
  40.6349992 130.6154990  10.5079997  41.4579992 130.7224990   9.2419997
  40.7601393 130.9400297   9.7130155  42.7949992 129.7514990   8.3059997
  42.5759992 128.8344990   8.4759997  43.6189992 129.8914990   8.7719997
  42.8764702 129.6450523   8.3922510  45.3319992 130.2214990   9.1549997
  45.5449992 129.3334990   8.8679997  45.3969992 130.1864990  10.1089997
  45.3699149 130.0953338   9.2447351  48.8409992 115.8854990   8.2989997
  48.1659992 115.2554990   8.5549997  49.4049992 115.4014990   7.6959997
  48.8249363 115.7338886   8.2524810  53.9829992 113.9924990   8.4119997
  54.5869992 114.5404990   7.9099997  53.1139992 114.3114990   8.1709997
  53.9480419 114.1105628   8.3107741  55.7099992 115.1314990   6.7449997
  56.3219992 114.6174990   6.2179997  56.0929992 116.0084990   6.7679997
  55.8453867 115.1797613   6.6760888  41.1669992 114.5194990   6.1209997
  40.3899992 114.2844990   5.6139997  41.6979992 113.7224990   6.1299997
  41.1323735 114.3796462   6.0528090  40.0039992 114.3174990   1.9249997
  40.4429992 114.9284990   1.3329997  39.3699992 114.8554990   2.3989997
  39.9783859 114.4739076   1.9080287  11.0569992  56.0504990  77.8769997
  11.9229992  56.4174990  77.6989997  10.8099992  55.6114990  77.0639997
  11.1422041  56.0413648  77.7425958  45.7469992 114.4454990   5.9339997
  46.6209992 114.8344990   5.9049997  45.6109992 114.2304990   6.8569997
  45.8481953 114.4696654   6.0547599  51.3029992 114.4754990   7.5839997
  51.3799992 114.5714990   6.6339997  51.0279992 113.5684990   7.7119997
  51.2763233 114.3659093   7.4713665  52.6569992 114.5014990   3.2759997
  51.9539992 115.1164990   3.0659997  52.2119992 113.6644990   3.4069997
  52.5006550 114.4724679   3.2649819  39.9049992 130.2654990   2.8219997
  39.2199992 130.2274990   2.1549997  39.9079992 131.1774990   3.1099997
  39.8116806 130.3836669   2.7696961  41.8649992 116.2334990   0.3669997
  42.3559992 115.6034990  -0.1600003  42.4879992 116.5294990   1.0299997
  42.0165304 116.1872387   0.3844922  46.8909992 116.5264990   2.8239997
  47.0689992 115.8794990   3.5069997  46.8369992 117.3604990   3.2909997
  46.9080678 116.5506615   2.9806283  48.7689992 131.4744990   1.2199997
  49.6349992 131.8414990   1.0419997  48.5219992 131.0354990   0.4059997
  48.8541853 131.4654021   1.0855813  55.4779992 131.0374990   3.8989997
  55.2839992 130.2894990   3.3339997  55.4389992 131.7954990   3.3159997
  55.4461645 131.0375797   3.7428131  41.1249992 115.0334990  15.6389997
  40.7589992 114.2674990  16.0809997  42.0379992 115.0624990  15.9249997
  41.1983172 114.9325335  15.7381872  43.0979992 114.3834990  17.1739997
  43.9969992 114.1094990  16.9899997  42.7119992 113.6414990  17.6389997
  43.1687307 114.2457207  17.2117080  17.7659992  55.6134990  80.5569997
  17.5719992  54.8654990  79.9919997  17.7269992  56.3714990  79.9729997
  17.7341907  55.6135770  80.4008077  41.7229992 131.1854990  -0.1530003
  41.4549992 131.4714990   0.7209997  42.4939992 130.6394990  -0.0000003
  41.7905926 131.1507790  -0.0128812  51.5189992 113.7164990  17.3569997
  51.5959992 113.2904990  18.2099997  52.4129992 113.7294990  17.0139997
  51.6503263 113.6599345  17.4274366  54.6959992 129.7884990  16.0489997
  53.9139992 129.6024990  15.5289997  54.6239992 130.7184990  16.2659997
  54.5792975 129.8886973  16.0071823  69.1019992 123.6754990   6.0799997
  69.1909992 124.6194990   5.9469997  68.4629992 123.4004990   5.4219997
  69.0278378 123.7673846   5.9729258  68.0349992 122.9304990   9.4989997
  67.9959992 122.2844990  10.2039997  67.7119992 122.4634990   8.7269997
  67.9860469 122.7790005   9.4912803  60.4029992 122.5444990  11.0919997
  60.4439992 121.9194990  11.8149997  61.1059992 123.1684990  11.2739997
  60.5036223 122.5432318  11.2156164  71.7409992 125.8694990   7.7999997
  71.2999992 125.1494990   8.2509997  71.7279992 126.5904990   8.4299997
  71.6789215 125.8684303   7.9468088  61.3269992 126.9944990   9.6269997
  60.9569992 126.1924990   9.2569997  62.2679992 126.8264990   9.6729997
  61.4035984 126.8619649   9.5825586  57.9369992 120.6544990   5.0189997
  57.4889992 121.5004990   5.0009997  57.3759992 120.0754990   4.5039997
  57.7998546 120.6919004   4.9468874  58.6469992 122.8164990   7.1449997
  58.8609992 122.0464990   7.6719997  59.3849992 122.9064990   6.5419997
  58.7760073 122.7233546   7.1355786   3.4129992  39.6094990  92.2959997
   3.0469992  38.8434990  92.7389997   4.3259992  39.6384990  92.5829997
   3.4863225  39.5086917  92.3953441  68.8519992 130.9734990   8.0119997
  69.4719992 130.2974990   7.7389997  68.6439992 130.7554990   8.9209997
  68.9087679 130.8515032   8.0974518  66.4239992 125.3624990   9.9049997
  66.7279992 124.6764990   9.3099997  67.1459992 125.4814990  10.5229997
  66.5631240 125.2847325   9.9070941  75.0869992 116.9644990  10.7649997
  75.1359992 117.5744990  11.5009997  75.5129992 117.4254990  10.0419997
  75.1512851 117.1103266  10.7680532  69.5649992 119.7564990  10.2319997
  69.7069992 118.8104990  10.2519997  69.4589992 119.9634990   9.3039997
  69.5701051 119.6549706  10.1092249  62.7199992 117.8584990   7.5049997
  62.7629992 118.7184990   7.0859997  62.2619992 117.3054990   6.8709997
  62.6640163 117.9014174   7.3620604  70.4419992 117.9894990   5.9049997
  71.0879992 117.6604990   6.5299997  70.9519992 118.5064990   5.2829997
  70.5994289 118.0144333   5.9063681  59.3399992 120.2554990   8.2669997
  59.9939992 119.7054990   8.6989997  59.3639992 119.9814990   7.3499997
  59.4327199 120.1432179   8.2021650  64.4959992 121.8054990   7.4819997
  65.1119992 121.2784990   7.9909997  63.9099992 121.1654990   7.0779997
  64.5010652 121.6468919   7.4970277  75.4789992 118.4424990  13.0009997
  74.7899992 119.1004990  12.9059997  75.4939992 118.2444990  13.9379997
  75.3867756 118.5057614  13.1145795  61.5299992 116.7764990  11.5789997
  61.3109992 117.3064990  10.8119997  60.8619992 117.0024990  12.2259997
  61.4096975 116.8795979  11.5615123   5.3859992  38.9594990  93.8319997
   6.2849992  38.6854990  93.6469997   4.9999992  38.2174990  94.2959997
   5.4567237  38.8216520  93.8694693  68.8989992 126.2764990   5.1229997
  68.6029992 125.9534990   4.2709997  68.5749992 127.1764990   5.1639997
  68.8147458 126.3539678   5.0120598  64.0989992 124.4514990  11.8659997
  63.3589992 125.0504990  11.9699997  64.8129992 125.0054990  11.5499997
  64.0943146 124.6082611  11.8375150  72.2059992 117.2804990   7.8859997
  71.9909992 116.5144990   8.4189997  72.8619992 117.7524990   8.3989997
  72.2652673 117.2395739   8.0281972  61.1239992 118.6684990   9.5309997
  61.7369992 119.3014990   9.9039997  61.6359992 118.1964990   8.8749997
  61.2771933 118.6913380   9.4933477  62.5059992 126.4164990  12.6529997
  62.5009992 127.2954990  12.2749997  61.6529992 126.3324990  13.0779997
  62.3899199 126.5255901  12.6586942  58.6279992 126.0874990   3.4349997
  58.3559992 126.3164990   2.5459997  58.6729992 126.9244990   3.8959997
  58.5968360 126.2321034   3.3756186  72.2529992 127.7084990  10.1479997
  71.3109992 127.7674990  10.3099997  72.5289992 128.6144990  10.0109997
  72.1615865 127.8390299  10.1516174  72.5529992 115.9954990  11.5649997
  71.8169992 116.6054990  11.5279997  73.2369992 116.4104990  11.0389997
  72.5445367 116.1352562  11.4888156  65.5559992 114.0814990   9.0309997
  65.4389992 113.1334990   8.9769997  64.7009992 114.4144990   9.3039997
  65.4243691 113.9965842   9.0605072  70.5049992 129.4894990   6.7729997
  70.9299992 128.7824990   6.2879997  70.8219992 130.2914990   6.3559997
  70.6060266 129.5010201   6.6502461  13.8069992  38.2924990  94.0139997
  13.8839992  37.8664990  94.8679997  14.7009992  38.3054990  93.6719997
  13.9383315  38.2360320  94.0845052  71.6639992 127.3904990   5.2819997
  71.4069992 126.7004990   4.6699997  71.7349992 126.9474990   6.1269997
  71.6384322 127.2361568   5.3125372  73.3499992 125.9574990  13.7589997
  73.4899992 125.3654990  13.0199997  73.5179992 126.8304990  13.4029997
  73.3918734 125.9944041  13.6096937  67.8229992 122.9194990   3.5319997
  67.1109992 123.4544990   3.1799997  68.5139992 122.9744990   2.8719997
  67.8189704 123.0001663   3.3945797  67.8769992 121.3764990   0.5699997
  68.5779992 121.3994990   1.2219997  68.1789992 120.7484990  -0.0860003
  68.0138202 121.2947223   0.5705591  75.1919992 122.2974990  11.8249997
  74.5399992 122.9914990  11.9139997  75.6569992 122.5074990  11.0149997
  75.1655357 122.4209544  11.7277056  71.2289992 123.1284990   4.4829997
  70.4969992 123.3574990   5.0559997  71.6759992 122.4154990   4.9379997
  71.1892753 123.0633984   4.6229698  71.1259992 121.3034990  13.5509997
  71.2059992 122.0664990  14.1229997  70.5249992 121.5824990  12.8609997
  71.0556547 121.4457468  13.5360029  62.8739992 123.7594990   6.3659997
  62.5439992 123.3884990   5.5479997  63.4619992 123.0884990   6.7129997
  62.9083182 123.6180648   6.3009898  64.2409992 127.1874990   9.0469997
  64.1459992 126.6084990   8.2909997  64.9699992 126.8164990   9.5429997
  64.3266011 127.0580572   9.0106011  63.2409992 122.5274990   9.9989997
  63.8059992 122.6494990   9.2369997  63.5589992 123.1654990  10.6379997
  63.3613619 122.6304388   9.9810019  16.9839992  54.3644990  92.7069997
  16.2019992  54.1784990  92.1869997  16.9119992  55.2944990  92.9239997
  16.8672975  54.4646973  92.6651822  69.5499992 128.0314990  10.7329997
  69.3089992 128.6934990  11.3809997  69.3519992 127.1964990  11.1579997
  69.4902662 128.0092704  10.8791008  64.1209992 126.9274990  14.7169997
  63.8089992 127.7094990  15.1719997  63.4709992 126.7744990  14.0309997
  63.9904858 127.0137882  14.6865344  70.0999992 122.2914990   2.1689997
  70.6789992 122.4414990   2.9149997  70.5139992 122.7614990   1.4449997
  70.2353358 122.3755966   2.1733935  61.0409992 123.1254990  13.9449997
  61.1109992 123.7764990  14.6439997  60.1499992 123.2284990  13.6099997
  60.9301690 123.2284261  13.9953026  67.8259992 129.0274990   5.6039997
  68.2999992 129.3234990   6.3809997  67.2629992 129.7664990   5.3709997
  67.8147890 129.1678047   5.6788084  62.3599992 128.9984990  15.4799997
  62.3679992 128.8624990  14.5329997  61.4439992 128.8814990  15.7319997
  62.2372528 128.9640475  15.3843226  73.7979992 114.0414990   1.9809997
  72.8979992 114.1794990   2.2769997  74.0499992 114.8724990   1.5799997
  73.7087727 114.1728705   1.9672935  61.8639992 122.8284990   3.9549997
  61.5719992 123.5964990   3.4639997  61.1899992 122.1694990   3.7919997
  61.7328843 122.8444537   3.8657695  74.9879992 128.4074990   0.3579997
  75.0609992 129.3464990   0.5279997  75.8929992 128.1024990   0.3019997
  75.1204170 128.4948294   0.3737045  57.9569992 125.1914990  12.7699997
  57.4559992 125.1634990  11.9549997  57.9629992 124.2864990  13.0799997
  57.8891690 125.0652234  12.7002770  31.3899992  48.2514990  82.7369997
  31.4789992  49.1954990  82.6049997  30.7509992  47.9764990  82.0789997
  31.3158319  48.3434984  82.6300276  57.7079992 127.9724990   9.6539997
  58.6539992 127.8274990   9.6349997  57.5949992 128.7564990  10.1909997
  57.8223578 128.0586708   9.7240300  75.9049992 128.6384990  15.3369997
  75.8559992 127.6824990  15.2989997  75.0789992 128.9054990  15.7379997
  75.7865096 128.5438416  15.3860698  66.8839992 128.2124990  14.2129997
  66.9709992 129.0384990  14.6879997  66.0199992 127.8824990  14.4619997
  66.7791944 128.2809871  14.3116558  67.2979992 131.9844990   4.0189997
  67.2229992 131.8634990   3.0719997  67.3309992 132.9334990   4.1369997
  67.2922083 132.0962639   3.9054973  60.9519992 130.7734990   5.7999997
  61.1039992 130.4254990   6.6779997  60.1009992 130.4164990   5.5439997
  60.8578344 130.6775891   5.8856851  70.3999992 131.1384990   1.0209997
  70.7749992 130.3944990   0.5499997  70.4039992 130.8684990   1.9389997
  70.4518969 131.0000920   1.0806475  70.0689992 131.0644990   3.7699997
  69.1339992 131.1644990   3.9489997  70.3489992 130.3544990   4.3489997
  69.9789471 130.9822944   3.8726678  73.0569992 120.1314990  15.8169997
  72.6499992 120.6114990  15.0959997  73.0979992 119.2254990  15.5089997
  73.0068403 120.0747989  15.6767253  60.2059992 126.5154990  13.8129997
  60.4219992 126.1534990  14.6729997  59.3509992 126.1404990  13.6039997
  60.1199082 126.4153377  13.9022396  62.8249992 114.9854990   9.8089997
  61.9629992 114.8984990   9.4009997  62.8029992 115.8414990  10.2369997
  62.7040557 115.0893078   9.8110202  30.3229992  47.5064990  86.1559997
  30.2839992  46.8604990  86.8609997  29.9999992  47.0394990  85.3849997
  30.2740199  47.3550089  86.1482865  67.4879992 114.7074990  13.1839997
  67.9079992 114.2924990  13.9369997  66.5549992 114.5284990  13.3009997
  67.4193736 114.6264921  13.3028950  70.8139992 118.4624990  14.0369997
  70.2999992 118.3374990  14.8349997  70.6589992 119.3754990  13.7929997
  70.7227802 118.5687433  14.1131504  71.5769992 123.3234990  -0.2020003
  71.6189992 123.1014990  -1.1320003  72.4259992 123.7224990  -0.0120003
  71.6975253 123.3470510  -0.3036196  67.1499992 117.1994990   0.4689997
  66.8959992 117.2184990   1.3909997  66.8929992 116.3284990   0.1669997
  67.0804508 117.0843292   0.5544786  62.9159992 119.9504990  10.9039997
  62.2739992 119.9104990  11.6129997  62.9529992 120.8774990  10.6659997
  62.8331659 120.0702540  10.9688463  62.9129992 120.1714990   5.8159997
  62.0199992 119.8314990   5.7569997  63.3639992 119.7944990   5.0599997
  62.8517185 120.0740220   5.7057698  68.4489992 120.5874990   4.6329997
  68.0399992 121.4024990   4.3409997  69.1689992 120.4474990   4.0189997
  68.4904439 120.6800383   4.5100098  67.5509992 120.7634990  16.1209997
  66.9879992 120.0584990  16.4419997  68.3769992 120.6424990  16.5889997
  67.5856674 120.6507176  16.2281734  69.4529992 120.0334990   7.4469997
  69.2579992 120.6394990   6.7319997  69.6349992 119.2004990   7.0129997
  69.4509195 120.0037936   7.2904079  60.6659992 120.2714990  12.7709997
  60.6279992 120.6714990  13.6399997  60.1749992 119.4544990  12.8609997
  60.5944374 120.2158228  12.9020980  22.6909992  47.1204990  87.7489997
  22.7319992  46.4954990  88.4729997  23.3939992  47.7444990  87.9309997
  22.7916054  47.1193262  87.8726311  64.0319992 117.6454990  -0.4300003
  63.6009992 117.2004990   0.2989997  63.3139992 118.0164990  -0.9430003
  63.8759176 117.6347063  -0.3995087  57.2739992 117.3874990   6.6219997
  57.9049992 117.3584990   7.3409997  57.7239992 116.9624990   5.8909997
  57.4211082 117.3261269   6.6216307  58.5479992 118.1334990   2.0459997
  59.0229992 118.7244990   1.4609997  57.8309992 118.6634990   2.3929997
  58.5160406 118.2861011   2.0128495  68.7169992 121.6714990  12.1179997
  69.0409992 121.0404990  11.4749997  68.2769992 121.1374990  12.7789997
  68.7018707 121.5128261  12.1193195  65.4949992 117.5994990   6.9019997
  64.5839992 117.6564990   7.1909997  65.9999992 117.5394990   7.7129997
  65.4386873 117.5991838   7.0511190  60.3229992 119.2284990   5.7289997
  59.4339992 119.3274990   5.3889997  60.6189992 118.3864990   5.3829997
  60.2414001 119.1282473   5.6357318  63.9759992 119.2284990   3.3859997
  64.9079992 119.3574990   3.5639997  63.7609992 119.8974990   2.7359997
  64.0744472 119.3365817   3.3224873  69.8999992 116.8344990  10.1659997
  69.2229992 116.9654990  10.8299997  69.4139992 116.6794990   9.3559997
  69.7417265 116.8314665  10.1473380  62.6499992 120.4224990   0.9519997
  62.1079992 120.0434990   0.2609997  63.4839992 120.6174990   0.5239997
  62.6884390 120.3969091   0.7994374  73.1869992 132.5054990  16.4429997
  73.3869992 132.9294990  15.6089997  73.8429992 132.8494990  17.0499997
  73.3029937 132.6099993  16.4108645  34.0289992  50.4454990  84.4579997
  33.5879992  49.7254990  84.9079997  34.0159992  51.1664990  85.0879997
  33.9668398  50.4443187  84.6047734  60.7849992 124.9794990  16.0509997
  61.5169992 125.2344990  16.6129997  60.0049992 125.1844990  16.5669997
  60.7796526 125.0420438  16.1975168  66.8149992 120.3864990   8.7889997
  67.3789992 119.8404990   8.2419997  66.6669992 119.8654990   9.5779997
  66.8723037 120.2411798   8.8207212  61.8169992 116.5234990   5.2079997
  61.4989992 115.6204990   5.1719997  62.5979992 116.5254990   4.6549997
  61.8791079 116.4002240   5.1282908  65.4409992 118.7754990  11.2029997
  64.6059992 119.2294990  11.3139997  65.9649992 119.0514990  11.9549997
  65.3976072 118.8748960  11.3198118  65.9849992 124.9884990   2.8879997
  65.2399992 124.4804990   2.5659997  65.8509992 125.0374990   3.8339997
  65.8649334 124.9256144   2.9718892  73.1349992 124.1214990  11.6749997
  73.7769992 124.5774990  11.1309997  72.3049992 124.2344990  11.2119997
  73.1106536 124.1991813  11.5379579  69.8829992 117.8024990   1.0869997
  68.9439992 117.9134990   0.9359997  70.1799992 118.6584990   1.3939997
  69.7946136 117.9334977   1.1078568  67.5049992 125.1724990  14.1249997
  67.1589992 124.7904990  14.9319997  67.3049992 126.1054990  14.1959997
  67.4305987 125.2464013  14.2450443  70.6009992 119.6694990   2.7479997
  71.4929992 119.5314990   3.0669997  70.6579992 120.4604990   2.2109997
  70.7307380 119.7574777   2.7190981  61.1099992 124.2834990   8.6579997
  61.8549992 124.2804990   8.0559997  61.1879992 123.4594990   9.1389997
  61.2223366 124.1717395   8.6407412  23.6149992  51.5704990  86.2839997
  23.2449992  50.7684990  85.9149997  24.5559992  51.4024990  86.3309997
  23.6915630  51.4378680  86.2397873  68.1109992 126.4464990   1.9129997
  67.8159992 127.2734990   2.2949997  67.4079992 125.8274990   2.1099997
  67.9756379 126.4759182   1.9918636  58.1179992 122.7434990  13.9729997
  58.3409992 122.3254990  14.8039997  57.5159992 122.1314990  13.5499997
  58.0671513 122.6034617  14.0296722  65.1349992 122.2604990  16.1859997
  64.8389992 122.0954990  15.2899997  66.0659992 122.0404990  16.1749997
  65.2204401 122.2081891  16.0620189  69.7549992 127.6344990  14.0749997
  68.8539992 127.8174990  13.8079997  69.7889992 127.8934990  14.9959997
  69.6363861 127.6945245  14.1629517  75.4859992 119.8784990   2.4429997
  74.9319992 119.4824990   1.7699997  75.5869992 120.7894990   2.1649997
  75.4238589 119.9473904   2.3133839  75.4489992 125.6794990  15.2799997
  74.5979992 125.9174990  14.9119997  76.0399992 125.6624990  14.5259997
  75.4123831 125.7097623  15.1278448  73.7809992 128.6644990   2.9079997
  73.4089992 127.8394990   3.2169997  74.0589992 128.4814990   2.0099997
  73.7675807 128.5267031   2.8290063  70.9419992 123.4724990   9.9289997
  70.0139992 123.2414990   9.9019997  71.3929992 122.6954990   9.5989997
  70.8758165 123.3357785   9.8806772  63.4849992 127.8014990   6.0619997
  64.0119992 128.5744990   5.8619997  62.6049992 128.0254990   5.7599997
  63.4382121 127.9377344   5.9937460  59.2399992 122.6634990   0.6489997
  59.8559992 123.2904990   1.0289997  58.3779992 122.9794990   0.9209997
  59.2077678 122.7919423   0.7377192  20.2249992  45.2304990  81.6769997
  19.7769992  46.0764990  81.6589997  19.6639992  44.6514990  81.1619997
  20.0878546  45.2679004  81.6048874  64.9119992 125.4644990   5.6379997
  64.6709992 126.3894990   5.6799997  64.1719992 125.0054990   6.0349997
  64.7789463 125.5290969   5.6974279  65.4269992 129.6134990  11.9529997
  65.7899992 130.4674990  11.7199997  65.9589992 129.3214990  12.6939997
  65.5485141 129.6908907  12.0212079  63.5949992 130.4854990   5.1839997
  62.6459992 130.5914990   5.2349997  63.9469992 131.3064990   5.5279997
  63.5125647 130.6110029   5.2374882  68.9709992 125.7124990  11.6539997
  68.5449992 125.4844990  12.4799997  69.5519992 124.9734990  11.4719997
  68.9912088 125.5814393  11.7424454  71.1739992 126.6414990   0.7279997
  71.5269992 126.2614990   1.5319997  70.2249992 126.5474990   0.8149997
  71.0940956 126.5767867   0.8498005  71.6299992 130.2644990  14.1229997
  71.0279992 129.7084990  13.6279997  71.9109992 130.9314990  13.4969997
  71.5855757 130.2785755  13.9705657  75.6769992 131.1204990   0.9289997
  76.4209992 131.7064990   0.7889997  74.9829992 131.6894990   1.2619997
  75.6849809 131.2775830   0.9548572  59.7519992 117.4974990  13.5309997
  58.8589992 117.8354990  13.4629997  59.6529992 116.6414990  13.9489997
  59.6164752 117.4280986  13.5781644  72.0399992 125.3134990   2.9549997
  71.7629992 124.5854990   3.5109997  72.9669992 125.4324990   3.1599997
  72.1274419 125.2299436   3.0588264  59.4029992 129.3014990  11.9659997
  59.6199992 128.3694990  11.9349997  59.6499992 129.5764990  12.8489997
  59.4660948 129.2110976  12.0811268  20.9349992  47.3924990  83.8029997
  21.1489992  46.6224990  84.3299997  21.6729992  47.4824990  83.1999997
  21.0640073  47.2993546  83.7935786  64.2019992 127.3234990   1.6309997
  64.3489992 126.8034990   2.4209997  64.1989992 128.2304990   1.9379997
  64.2217102 127.3748964   1.7805907  60.6549992 124.5754990   2.1419997
  59.9689992 124.9284990   2.7089997  61.1779992 125.3384990   1.8949997
  60.6318402 124.7268912   2.1861783  68.4859992 117.2384990  12.4209997
  69.1849992 117.3124990  13.0709997  68.1059992 116.3734990  12.5749997
  68.5302662 117.1317050  12.5307412  69.2709992 116.8904990   3.5179997
  69.4909992 117.3614990   2.7139997  69.8289992 117.2844990   4.1879997
  69.3766044 117.0082946   3.4985207  66.9399992 129.0204990   2.3809997
  66.1229992 129.5174990   2.4329997  67.4689992 129.4964990   1.7399997
  66.8998125 129.1527000   2.3015289  66.4709992 118.6184990   4.3529997
  67.2829992 119.1224990   4.3989997  66.2259992 118.4734990   5.2669997
  66.5491091 118.6679366   4.4828552  67.0069992 119.6044990  13.5369997
  67.1259992 120.1784990  14.2939997  67.6619992 118.9164990  13.6519997
  67.1118684 119.5900205  13.6561656  67.3549992 115.6994990   5.2909997
  67.0079992 116.3164990   5.9349997  68.0129992 116.2004990   4.8089997
  67.3964430 115.8516860   5.3140046  64.2779992 130.0644990   2.3619997
  64.4389992 130.8644990   1.8619997  64.0809992 130.3714990   3.2469997
  64.2733906 130.2153690   2.4132316  63.0119992 116.7624990   1.9779997
  62.9289992 117.6504990   2.3249997  63.9019992 116.4974990   2.2099997
  63.1209331 116.8481177   2.0568067  31.1399992  55.5494990  84.6699997
  31.7599992  54.8734990  84.3969997  30.9319992  55.3314990  85.5779997
  31.1967360  55.4274792  84.7554387  73.2109992 117.5114990  14.3719997
  72.2949992 117.7734990  14.2849997  73.5469992 117.5084990  13.4759997
  73.1308499 117.5470174  14.2388748  71.8129992 121.2614990   8.4679997
  71.0159992 120.8464990   8.1399997  72.2579992 120.5714990   8.9589997
  71.7640367 121.1113372   8.4894897  61.2709992 127.1894990   1.0379997
  61.8629992 127.8894990   1.3149997  61.7299992 126.7564990   0.3189997
  61.4141652 127.2267686   0.9786515  59.5869992 119.8544990   0.1539997
  59.5419992 120.7934990   0.3329997  58.6989992 119.6184990  -0.1150003
  59.4608166 119.9511698   0.1421507  72.8999992 130.5174990  10.0899997
  72.7439992 131.1964990   9.4329997  73.8319992 130.5894990  10.2929997
  73.0047328 130.6201586  10.0275529  60.3949992 114.6354990   8.8269997
  60.1659992 114.6944990   7.8999997  59.9519992 113.8444990   9.1339997
  60.3037387 114.5366412   8.7415223  59.3249992 128.5764990   4.9879997
  58.4929992 129.0484990   5.0149997  59.8709992 129.0864990   4.3889997
  59.2848710 128.7100317   4.9107570  58.6139992 131.1884990  16.3179997
  59.1539992 130.9724990  17.0779997  58.1319992 130.3834990  16.1279997
  58.6228485 131.0500463  16.3964870  63.2109992 130.1084990  17.9379997
  63.9789992 129.6494990  18.2789997  63.1899992 129.8824990  17.0079997
  63.3132135 130.0151680  17.8589473  67.3029992 129.6164990  -0.6870003
  66.6589992 128.9854990  -0.3650003  68.0649992 129.0854990  -0.9180003
  67.3178708 129.4583171  -0.6741539  28.7119992  49.9384990  86.5619997
  29.0159992  49.2524990  85.9679997  29.4339992  50.0574990  87.1799997
  28.8511152  49.8607201  86.5642106  69.7879992 128.4884990  16.6669997
  69.4369992 127.6314990  16.9099997  70.5139992 128.6304990  17.2739997
  69.8381590 128.3905189  16.7822889  71.9069992 129.4334990  -0.4530003
  72.1899992 128.6384990  -0.0000003  72.6469992 129.6664990  -1.0140003
  72.0457295 129.3562349  -0.4668531  58.5209992 124.9994990  17.2719997
  58.6649992 124.0974990  16.9859997  57.7479992 125.2854990  16.7849997
  58.4362266 124.9146548  17.1670102  62.8619992 125.3424990  -0.5950003
  62.9259992 124.5484990  -0.0650003  63.5149992 125.2244990  -1.2850003
  62.9590483 125.2177496  -0.6156593  65.1759992 124.9684990  16.7049997
  64.8479992 125.2394990  15.8479997  65.3279992 124.0274990  16.6169997
  65.1516412 124.8784058  16.5757804  70.9109992 124.8844990  14.0879997
  71.6559992 125.4734990  13.9689997  70.1529992 125.4664990  14.1509997
  70.9105289 125.0437067  14.0802292  59.3529992 122.1994990  16.6919997
  59.7609992 121.3424990  16.5709997  59.0929992 122.2134990  17.6129997
  59.3737082 122.0840596  16.7999469  64.0109992 123.3154990   1.7109997
  63.5519992 122.8314990   2.3959997  64.2659992 122.6464990   1.0749997
  63.9825997 123.1588491   1.7188734  63.2999992 121.2084990  14.0669997
  62.6819992 121.8824990  14.3469997  63.6439992 121.5294990  13.2329997
  63.2618078 121.3442298  13.9926609  65.0819992 121.5584990  -0.0270003
  64.9019992 121.4034990  -0.9540003  66.0319992 121.6664990   0.0179997
  65.1857804 121.5518821  -0.1478034  37.3749992  41.5404990  87.4229997
  37.4239992  42.1504990  88.1589997  37.8009992  42.0014990  86.6999997
  37.4392851  41.6863266  87.4260532  68.3199992 123.6794990  17.3439997
  69.2729992 123.7634990  17.3169997  68.1599992 122.9674990  17.9629997
  68.4287320 123.5947292  17.4239933  74.4719992 123.9124990  -0.5810003
  74.1989992 123.4884990  -1.3940003  74.5119992 124.8444990  -0.7980003
  74.4400201 123.9803523  -0.7216452  63.6399992 118.5634990  15.1489997
  63.7899992 117.8344990  14.5469997  63.6419992 119.3404990  14.5899997
  63.6607967 118.5687720  14.9910523  64.0519992 116.9324990  12.6419997
  64.5879992 117.3844990  11.9899997  63.1999992 116.8244990  12.2189997
  64.0101795 116.9797444  12.4956211  65.6339992 122.3724990  12.8809997
  66.3849992 122.2164990  12.3079997  65.2949992 123.2244990  12.6059997
  65.6909587 122.4663149  12.7654060  70.0499992 120.1874990  17.9099997
  70.2419992 119.2564990  17.7979997  70.9069992 120.6124990  17.8989997
  70.1922176 120.1175090  17.8931757  71.3659992 122.9764990  15.9869997
  71.0849992 123.6854990  15.4089997  72.3089992 122.9034990  15.8359997
  71.4549272 123.0636704  15.8874976  62.1179992 119.7614990  17.0599997
  61.3509992 119.2284990  16.8499997  62.7969992 119.4514990  16.4609997
  62.1048292 119.6466360  16.9502693  64.8579992 114.3894990  13.0729997
  64.7599992 115.3354990  12.9679997  64.1149992 114.0164990  12.5969997
  64.7442123 114.4686811  12.9943204  66.1219992 118.7104990  16.6369997
  65.8859992 118.4914990  17.5379997  65.3389992 118.5034990  16.1269997
  65.9838382 118.6525340  16.6913991  31.8529992  44.3324990  86.8899997
  31.9949992  43.3864990  86.9099997  31.7469992  44.5394990  85.9609997
  31.8581158  44.2309722  86.7672241  68.8379992 117.8384990  15.7119997
  67.8899992 117.8704990  15.8439997  69.1499992 117.2124990  16.3659997
  68.7505293 117.7582934  15.8184130  70.4719992 116.4724990  17.7169997
  70.3749992 115.5204990  17.7119997  70.1499992 116.7404990  18.5779997
  70.4152468 116.3785896  17.8326192  60.2989992 117.6814990  16.7649997
  60.5099992 116.9754990  16.1549997  60.1869992 117.2444990  17.6089997
  60.3127668 117.5256619  16.7955445  65.0799992 113.6834990  15.7439997
  65.7909992 113.0434990  15.7299997  64.9789992 113.9494990  14.8309997
  65.1636858 113.6318591  15.6185501  65.4329992 115.3654990  17.7979997
  65.3019992 114.8904990  16.9779997  64.8339992 116.1104990  17.7429997
  65.3340829 115.4010949  17.6781823  64.9799992 132.2484990   0.9739997
  65.9129992 132.4064990   1.1179997  64.7149992 132.9244990   0.3489997
  65.0719846 132.3614567   0.9092930  58.5479992 126.8854990   0.4569997
  59.4619992 126.9644990   0.7299997  58.5549992 126.1984990  -0.2090003
  58.6740624 126.8034074   0.4043045  57.1969992 132.2784990   5.5339997
  56.5499992 131.8164990   5.0019997  57.5519992 131.6064990   6.1169997
  57.1563741 132.1244785   5.5399157  58.0669992 130.3584990   7.3389997
  57.7329992 129.4784990   7.5109997  58.2889992 130.7044990   8.2039997
  58.0512565 130.2847410   7.4794263  75.6159992 131.1684990  10.3199997
  75.5939992 131.3534990  11.2579997  76.3059992 131.7364990   9.9789997
  75.7063383 131.2707104  10.4024580  25.0079992  42.4344990  84.1619997
  25.0509992  43.2944990  83.7439997  24.5499992  41.8814990  83.5289997
  24.9519613  42.4775689  84.0191276  75.1789992 130.7354990  13.2409997
  74.6919992 129.9994990  12.8699997  75.7279992 130.3414990  13.9189997
  75.1866101 130.5816267  13.2819034  73.6299992 126.5254990  17.8789997
  72.7639992 126.4204990  18.2739997  74.0059992 127.2834990  18.3259997
  73.5624940 126.6136141  17.9933958  74.9309992 124.7814990   3.3939997
  75.7809992 125.2024990   3.5209997  74.9359992 124.0414990   4.0009997
  75.0481143 124.7391106   3.4934732  75.3249992 122.8354990   5.2169997
  74.5989992 122.3554990   5.6149997  75.9059992 123.0404990   5.9489997
  75.3042504 122.7975592   5.3704199  75.0839992 125.6204990  10.1649997
  75.9179992 125.2424990   9.8839997  75.1959992 126.5634990  10.0459997
  75.2131917 125.6962954  10.1104844  73.5699992 128.4984990  12.4719997
  72.9229992 128.8234990  13.0969997  73.0529992 128.0574990  11.7979997
  73.4114112 128.4834133  12.4665272  75.5929992 122.7364990   1.6079997
  75.0719992 123.0924990   0.8899997  75.5599992 123.4114990   2.2869997
  75.5170955 122.8765023   1.6012634  73.9419992 119.9754990   0.1589997
  74.0389992 120.6424990  -0.5210003  73.8019992 119.1604990  -0.3220003
  73.9363407 119.9565670   0.0008312  73.1119992 121.3564990   5.7799997
  72.9619992 120.4114990   5.7599997  72.7579992 121.6374990   6.6239997
  73.0436351 121.2651656   5.8913202  58.1469992 123.4344990   9.7909997
  58.3309992 123.3524990   8.8549997  58.9959992 123.3104990  10.2139997
  58.2870132 123.4065066   9.7201460  32.7299992  42.5654990  82.5629997
  33.3759992  42.2364990  83.1879997  33.2399992  43.0824990  81.9399997
  32.8874392  42.5903710  82.5643248  73.9679992 123.3264990  15.4189997
  74.5509992 122.5914990  15.6109997  74.5319992 124.0984990  15.4659997
  74.1239781 123.3303156  15.4516146  75.4649992 121.2294990  16.1039997
  74.6009992 120.8504990  15.9379997  76.0689992 120.4904990  16.0289997
  75.4285394 121.0778378  16.0711778  72.8219992 118.9384990   4.2429997
  73.1019992 118.0314990   4.3669997  73.5809992 119.3724990   3.8539997
  72.9629258 118.8730935   4.2073691  73.4339992 119.5204990   9.6789997
  74.3669992 119.7324990   9.6439997  73.1989992 119.6214990  10.6009997
  73.5299517 119.5631844   9.7989113  73.4629992 120.2574990  12.4549997
  72.6199992 120.5254990  12.8199997  73.9059992 121.0794990  12.2439997
  73.4074035 120.4053351  12.4764770  57.7439992 118.7044990  15.9309997
  58.6639992 118.5824990  16.1679997  57.2949992 117.9544990  16.3209997
  57.8090500 118.5864576  16.0161016  75.7459992 114.2374990  17.8079997
  76.0959992 113.5834990  17.2019997  75.8929992 115.0744990  17.3679997
  75.8137192 114.2612545  17.6656712  73.4359992 116.2014990   4.2909997
  73.6179992 115.7524990   5.1159997  72.8359992 115.6174990   3.8269997
  73.3798187 116.0610563   4.3412721  58.9659992 117.0174990   8.8229997
  59.4109992 116.2254990   9.1249997  59.4319992 117.7334990   9.2529997
  59.0899718 117.0059546   8.9225247  57.2699992 120.0164990   9.8919997
  57.7619992 119.7954990   9.1009997  57.6319992 120.8564990  10.1729997
  57.3862923 120.0998480   9.8217389  21.6279992  44.8314990  84.9239997
  22.2819992  44.2814990  85.3559997  21.6519992  44.5574990  84.0079997
  21.7207022  44.7192005  84.8591698  75.2659992 116.3464990  16.1569997
  74.3489992 116.6174990  16.1209997  75.3889992 115.8114990  15.3729997
  75.1570828 116.3112711  16.0460767  75.3019992 116.2694990   0.8189997
  75.7149992 115.5484990   0.3439997  75.9839992 116.9384990   0.8769997
  75.4506060 116.2613741   0.7619233  57.5829992 116.2744990   3.9459997
  56.6579992 116.4824990   3.8169997  58.0369992 116.7584990   3.2559997
  57.5176298 116.3684311   3.8350433  72.3539992 131.2584990   5.8919997
  73.0059992 130.9104990   5.2839997  72.8649992 131.7464990   6.5379997
  72.5122872 131.2768248   5.8960964  57.5469992 115.0124990  12.2899997
  56.8819992 114.7664990  12.9329997  57.1039992 115.6344990  11.7129997
  57.3961168 115.0629225  12.2999830  59.7389992 128.1874990  16.4349997
  58.9179992 128.3624990  15.9739997  59.4869992 128.1144990  17.3549997
  59.5925594 128.2015728  16.4963593  62.6929992 129.1614990  12.6929997
  62.2679992 129.9714990  12.4109997  63.5969992 129.2474990  12.3909997
  62.7570706 129.2839557  12.6135836  67.0039992 130.5604990  15.6529997
  67.1889992 130.2274990  16.5309997  67.8509992 130.8704990  15.3309997
  67.1437291 130.5568214  15.7296140  69.3489992 131.8464990  14.8969997
  70.0259992 131.2134990  14.6569997  69.6709992 132.2474990  15.7039997
  69.4851618 131.8141147  14.9732802  74.2669992 114.4364990  13.9759997
  73.4539992 114.7614990  13.5889997  74.4999992 113.6754990  13.4429997
  74.1871347 114.3781891  13.8509824  26.7839992  46.3814990  84.1399997
  27.3999992  45.8544990  84.6489997  26.1979992  45.7414990  83.7359997
  26.7890652  46.2228919  84.1550277  60.0949992 132.4184990  12.7409997
  59.3739992 132.8584990  12.2899997  59.7289992 132.1674990  13.5889997
  59.9469632 132.4447235  12.7939649  62.5619992 132.0184990  11.7699997
  61.6969992 132.0904990  12.1739997  62.5069992 132.5654990  10.9869997
  62.4362289 132.1023242  11.7193749  67.2729992 131.9064990  10.9459997
  66.8159992 132.4354990  10.2919997  67.4349992 132.5094990  11.6709997
  67.2323919 132.0603990  10.9545740  69.5999992 130.7844990  11.8909997
  68.6959992 130.9494990  11.6249997  70.0289992 131.6374990  11.8249997
  69.5342017 130.9224184  11.8456495  72.2039992 132.3544990  12.1859997
  72.0229992 133.2704990  11.9749997  72.3809992 131.9434990  11.3389997
  72.2031377 132.4243365  12.0427178  59.5099992 131.0414990   9.6509997
  59.4909992 130.6154990  10.5079997  60.3139992 130.7224990   9.2419997
  59.6161393 130.9400297   9.7130155  61.6509992 129.7514990   8.3059997
  61.4319992 128.8344990   8.4759997  62.4749992 129.8914990   8.7719997
  61.7324702 129.6450523   8.3922510  64.1879992 130.2214990   9.1549997
  64.4009992 129.3334990   8.8679997  64.2529992 130.1864990  10.1089997
  64.2259149 130.0953338   9.2447351  67.6969992 115.8854990   8.2989997
  67.0219992 115.2554990   8.5549997  68.2609992 115.4014990   7.6959997
  67.6809363 115.7338886   8.2524810  72.8389992 113.9924990   8.4119997
  73.4429992 114.5404990   7.9099997  71.9699992 114.3114990   8.1709997
  72.8040419 114.1105628   8.3107741  37.7669992  43.0184990  89.6589997
  37.0779992  43.6764990  89.5639997  37.7819992  42.8204990  90.5959997
  37.6747756  43.0817614  89.7725795  74.5659992 115.1314990   6.7449997
  75.1779992 114.6174990   6.2179997  74.9489992 116.0084990   6.7679997
  74.7013867 115.1797613   6.6760888  60.0229992 114.5194990   6.1209997
  59.2459992 114.2844990   5.6139997  60.5539992 113.7224990   6.1299997
  59.9883735 114.3796462   6.0528090  58.8599992 114.3174990   1.9249997
  59.2989992 114.9284990   1.3329997  58.2259992 114.8554990   2.3989997
  58.8343859 114.4739076   1.9080287  64.6029992 114.4454990   5.9339997
  65.4769992 114.8344990   5.9049997  64.4669992 114.2304990   6.8569997
  64.7041953 114.4696654   6.0547599  70.1589992 114.4754990   7.5839997
  70.2359992 114.5714990   6.6339997  69.8839992 113.5684990   7.7119997
  70.1323233 114.3659093   7.4713665  71.5129992 114.5014990   3.2759997
  70.8099992 115.1164990   3.0659997  71.0679992 113.6644990   3.4069997
  71.3566550 114.4724679   3.2649819  58.7609992 130.2654990   2.8219997
  58.0759992 130.2274990   2.1549997  58.7639992 131.1774990   3.1099997
  58.6676806 130.3836669   2.7696961  60.7209992 116.2334990   0.3669997
  61.2119992 115.6034990  -0.1600003  61.3439992 116.5294990   1.0299997
  60.8725304 116.1872387   0.3844922  65.7469992 116.5264990   2.8239997
  65.9249992 115.8794990   3.5069997  65.6929992 117.3604990   3.2909997
  65.7640678 116.5506615   2.9806283  67.6249992 131.4744990   1.2199997
  68.4909992 131.8414990   1.0419997  67.3779992 131.0354990   0.4059997
  67.7101853 131.4654021   1.0855813  23.8179992  41.3524990  88.2359997
  23.5989992  41.8824990  87.4699997  23.1499992  41.5784990  88.8839997
  23.6977271  41.4556508  88.2186206  74.3339992 131.0374990   3.8989997
  74.1399992 130.2894990   3.3339997  74.2949992 131.7954990   3.3159997
  74.3021645 131.0375797   3.7428131  59.9809992 115.0334990  15.6389997
  59.6149992 114.2674990  16.0809997  60.8939992 115.0624990  15.9249997
  60.0543172 114.9325335  15.7381872  61.9539992 114.3834990  17.1739997
  62.8529992 114.1094990  16.9899997  61.5679992 113.6414990  17.6389997
  62.0247307 114.2457207  17.2117080  60.5789992 131.1854990  -0.1530003
  60.3109992 131.4714990   0.7209997  61.3499992 130.6394990  -0.0000003
  60.6465926 131.1507790  -0.0128812  70.3749992 113.7164990  17.3569997
  70.4519992 113.2904990  18.2099997  71.2689992 113.7294990  17.0139997
  70.5063263 113.6599345  17.4274366  73.5519992 129.7884990  16.0489997
  72.7699992 129.6024990  15.5289997  73.4799992 130.7184990  16.2659997
  73.4352975 129.8886973  16.0071823  87.9579992 123.6754990   6.0799997
  88.0469992 124.6194990   5.9469997  87.3189992 123.4004990   5.4219997
  87.8838378 123.7673846   5.9729258  86.8909992 122.9304990   9.4989997
  86.8519992 122.2844990  10.2039997  86.5679992 122.4634990   8.7269997
  86.8420469 122.7790005   9.4912803  79.2589992 122.5444990  11.0919997
  79.2999992 121.9194990  11.8149997  79.9619992 123.1684990  11.2739997
  79.3596223 122.5432318  11.2156164  90.5969992 125.8694990   7.7999997
  90.1559992 125.1494990   8.2509997  90.5839992 126.5904990   8.4299997
  90.5349215 125.8684303   7.9468088  31.1869992  50.8524990  81.7799997
  30.8909992  50.5294990  80.9289997  30.8629992  51.7524990  81.8219997
  31.1026501  50.9299058  81.6690893  80.1829992 126.9944990   9.6269997
  79.8129992 126.1924990   9.2569997  81.1239992 126.8264990   9.6729997
  80.2595984 126.8619649   9.5825586  76.7929992 120.6544990   5.0189997
  76.3449992 121.5004990   5.0009997  76.2319992 120.0754990   4.5039997
  76.6558546 120.6919004   4.9468874  77.5029992 122.8164990   7.1449997
  77.7169992 122.0464990   7.6719997  78.2409992 122.9064990   6.5419997
  77.6320073 122.7233546   7.1355786  87.7079992 130.9734990   8.0119997
  88.3279992 130.2974990   7.7389997  87.4999992 130.7554990   8.9209997
  87.7647679 130.8515032   8.0974518  85.2799992 125.3624990   9.9049997
  85.5839992 124.6764990   9.3099997  86.0019992 125.4814990  10.5229997
  85.4191240 125.2847325   9.9070941  93.9429992 116.9644990  10.7649997
  93.9919992 117.5744990  11.5009997  94.3689992 117.4254990  10.0419997
  94.0072851 117.1103266  10.7680532  88.4209992 119.7564990  10.2319997
  88.5629992 118.8104990  10.2519997  88.3149992 119.9634990   9.3039997
  88.4261051 119.6549706  10.1092249  81.5759992 117.8584990   7.5049997
  81.6189992 118.7184990   7.0859997  81.1179992 117.3054990   6.8709997
  81.5200163 117.9014174   7.3620604  89.2979992 117.9894990   5.9049997
  89.9439992 117.6604990   6.5299997  89.8079992 118.5064990   5.2829997
  89.4554289 118.0144333   5.9063681  78.1959992 120.2554990   8.2669997
  78.8499992 119.7054990   8.6989997  78.2199992 119.9814990   7.3499997
  78.2887199 120.1432178   8.2021650  26.3869992  49.0274990  88.5239997
  25.6469992  49.6264990  88.6269997  27.1009992  49.5814990  88.2079997
  26.3823288  49.1842368  88.4953787  83.3519992 121.8054990   7.4819997
  83.9679992 121.2784990   7.9909997  82.7659992 121.1654990   7.0779997
  83.3570652 121.6468919   7.4970277  94.3349992 118.4424990  13.0009997
  93.6459992 119.1004990  12.9059997  94.3499992 118.2444990  13.9379997
  94.2427756 118.5057614  13.1145795  80.3859992 116.7764990  11.5789997
  80.1669992 117.3064990  10.8119997  79.7179992 117.0024990  12.2259997
  80.2656975 116.8795979  11.5615123  87.7549992 126.2764990   5.1229997
  87.4589992 125.9534990   4.2709997  87.4309992 127.1764990   5.1639997
  87.6707458 126.3539678   5.0120598  82.9549992 124.4514990  11.8659997
  82.2149992 125.0504990  11.9699997  83.6689992 125.0054990  11.5499997
  82.9503146 124.6082611  11.8375150  91.0619992 117.2804990   7.8859997
  90.8469992 116.5144990   8.4189997  91.7179992 117.7524990   8.3989997
  91.1212673 117.2395739   8.0281972  79.9799992 118.6684990   9.5309997
  80.5929992 119.3014990   9.9039997  80.4919992 118.1964990   8.8749997
  80.1331933 118.6913380   9.4933477  81.3619992 126.4164990  12.6529997
  81.3569992 127.2954990  12.2749997  80.5089992 126.3324990  13.0779997
  81.2459199 126.5255901  12.6586942  77.4839992 126.0874990   3.4349997
  77.2119992 126.3164990   2.5459997  77.5289992 126.9244990   3.8959997
  77.4528360 126.2321034   3.3756186  91.1089992 127.7084990  10.1479997
  90.1669992 127.7674990  10.3099997  91.3849992 128.6144990  10.0109997
  91.0175865 127.8390299  10.1516174  34.4939992  41.8564990  84.5439997
  34.2789992  41.0904990  85.0759997  35.1499992  42.3284990  85.0569997
  34.5532451  41.8154472  84.6861699  91.4089992 115.9954990  11.5649997
  90.6729992 116.6054990  11.5279997  92.0929992 116.4104990  11.0389997
  91.4005367 116.1352562  11.4888156  84.4119992 114.0814990   9.0309997
  84.2949992 113.1334990   8.9769997  83.5569992 114.4144990   9.3039997
  84.2803691 113.9965842   9.0605072  89.3609992 129.4894990   6.7729997
  89.7859992 128.7824990   6.2879997  89.6779992 130.2914990   6.3559997
  89.4620266 129.5010201   6.6502461  90.5199992 127.3904990   5.2819997
  90.2629992 126.7004990   4.6699997  90.5909992 126.9474990   6.1269997
  90.4944322 127.2361568   5.3125372  92.2059992 125.9574990  13.7589997
  92.3459992 125.3654990  13.0199997  92.3739992 126.8304990  13.4029997
  92.2478734 125.9944041  13.6096937  86.6789992 122.9194990   3.5319997
  85.9669992 123.4544990   3.1799997  87.3699992 122.9744990   2.8719997
  86.6749704 123.0001663   3.3945797  86.7329992 121.3764990   0.5699997
  87.4339992 121.3994990   1.2219997  87.0349992 120.7484990  -0.0860003
  86.8698202 121.2947223   0.5705591  94.0479992 122.2974990  11.8249997
  93.3959992 122.9914990  11.9139997  94.5129992 122.5074990  11.0149997
  94.0215357 122.4209544  11.7277056  90.0849992 123.1284990   4.4829997
  89.3529992 123.3574990   5.0559997  90.5319992 122.4154990   4.9379997
  90.0452753 123.0633984   4.6229698  89.9819992 121.3034990  13.5509997
  90.0619992 122.0664990  14.1229997  89.3809992 121.5824990  12.8609997
  89.9116547 121.4457468  13.5360029  23.4119992  43.2444990  86.1889997
  24.0249992  43.8774990  86.5619997  23.9239992  42.7724990  85.5319997
  23.5651680  43.2674006  86.1512830  81.7299992 123.7594990   6.3659997
  81.3999992 123.3884990   5.5479997  82.3179992 123.0884990   6.7129997
  81.7643182 123.6180648   6.3009898  83.0969992 127.1874990   9.0469997
  83.0019992 126.6084990   8.2909997  83.8259992 126.8164990   9.5429997
  83.1826011 127.0580572   9.0106011  82.0969992 122.5274990   9.9989997
  82.6619992 122.6494990   9.2369997  82.4149992 123.1654990  10.6379997
  82.2173619 122.6304388   9.9810019  88.4059992 128.0314990  10.7329997
  88.1649992 128.6934990  11.3809997  88.2079992 127.1964990  11.1579997
  88.3462662 128.0092704  10.8791008  82.9769992 126.9274990  14.7169997
  82.6649992 127.7094990  15.1719997  82.3269992 126.7744990  14.0309997
  82.8464858 127.0137882  14.6865344  88.9559992 122.2914990   2.1689997
  89.5349992 122.4414990   2.9149997  89.3699992 122.7614990   1.4449997
  89.0913358 122.3755966   2.1733935  79.8969992 123.1254990  13.9449997
  79.9669992 123.7764990  14.6439997  79.0059992 123.2284990  13.6099997
  79.7861690 123.2284261  13.9953026  86.6819992 129.0274990   5.6039997
  87.1559992 129.3234990   6.3809997  86.1189992 129.7664990   5.3709997
  86.6707890 129.1678047   5.6788084  81.2159992 128.9984990  15.4799997
  81.2239992 128.8624990  14.5329997  80.2999992 128.8814990  15.7319997
  81.0932528 128.9640475  15.3843226  92.6539992 114.0414990   1.9809997
  91.7539992 114.1794990   2.2769997  92.9059992 114.8724990   1.5799997
  92.5647727 114.1728705   1.9672935  24.7939992  50.9924990  89.3109997
  24.7889992  51.8714990  88.9329997  23.9409992  50.9084990  89.7359997
  24.6779199  51.1015901  89.3166942  80.7199992 122.8284990   3.9549997
  80.4279992 123.5964990   3.4639997  80.0459992 122.1694990   3.7919997
  80.5888843 122.8444537   3.8657695  93.8439992 128.4074990   0.3579997
  93.9169992 129.3464990   0.5279997  94.7489992 128.1024990   0.3019997
  93.9764170 128.4948294   0.3737045  76.8129992 125.1914990  12.7699997
  76.3119992 125.1634990  11.9549997  76.8189992 124.2864990  13.0799997
  76.7451690 125.0652234  12.7002770  76.5639992 127.9724990   9.6539997
  77.5099992 127.8274990   9.6349997  76.4509992 128.7564990  10.1909997
  76.6783578 128.0586708   9.7240300  94.7609992 128.6384990  15.3369997
  94.7119992 127.6824990  15.2989997  93.9349992 128.9054990  15.7379997
  94.6425096 128.5438416  15.3860698  85.7399992 128.2124990  14.2129997
  85.8269992 129.0384990  14.6879997  84.8759992 127.8824990  14.4619997
  85.6351944 128.2809871  14.3116558  86.1539992 131.9844990   4.0189997
  86.0789992 131.8634990   3.0719997  86.1869992 132.9334990   4.1369997
  86.1482083 132.0962639   3.9054973  79.8079992 130.7734990   5.7999997
  79.9599992 130.4254990   6.6779997  78.9569992 130.4164990   5.5439997
  79.7138344 130.6775891   5.8856851  89.2559992 131.1384990   1.0209997
  89.6309992 130.3944990   0.5499997  89.2599992 130.8684990   1.9389997
  89.3078969 131.0000920   1.0806475  88.9249992 131.0644990   3.7699997
  87.9899992 131.1644990   3.9489997  89.2049992 130.3544990   4.3489997
  88.8349471 130.9822944   3.8726678  20.9159992  50.6634990  80.0929997
  20.6439992  50.8924990  79.2039997  20.9609992  51.5004990  80.5529997
  20.8848709  50.8081069  80.0336089  91.9129992 120.1314990  15.8169997
  91.5059992 120.6114990  15.0959997  91.9539992 119.2254990  15.5089997
  91.8628403 120.0747989  15.6767253  79.0619992 126.5154990  13.8129997
  79.2779992 126.1534990  14.6729997  78.2069992 126.1404990  13.6039997
  78.9759082 126.4153377  13.9022396  81.6809992 114.9854990   9.8089997
  80.8189992 114.8984990   9.4009997  81.6589992 115.8414990  10.2369997
  81.5600557 115.0893078   9.8110202  86.3439992 114.7074990  13.1839997
  86.7639992 114.2924990  13.9369997  85.4109992 114.5284990  13.3009997
  86.2753736 114.6264921  13.3028950  89.6699992 118.4624990  14.0369997
  89.1559992 118.3374990  14.8349997  89.5149992 119.3754990  13.7929997
  89.5787802 118.5687433  14.1131504  90.4329992 123.3234990  -0.2020003
  90.4749992 123.1014990  -1.1320003  91.2819992 123.7224990  -0.0120003
  90.5535253 123.3470510  -0.3036196  86.0059992 117.1994990   0.4689997
  85.7519992 117.2184990   1.3909997  85.7489992 116.3284990   0.1669997
  85.9364508 117.0843292   0.5544786  81.7719992 119.9504990  10.9039997
  81.1299992 119.9104990  11.6129997  81.8089992 120.8774990  10.6659997
  81.6891659 120.0702540  10.9688463  81.7689992 120.1714990   5.8159997
  80.8759992 119.8314990   5.7569997  82.2199992 119.7944990   5.0599997
  81.7077185 120.0740220   5.7057698  87.3049992 120.5874990   4.6329997
  86.8959992 121.4024990   4.3409997  88.0249992 120.4474990   4.0189997
  87.3464439 120.6800383   4.5100098  34.5409992  52.2844990  86.8059997
  33.5989992  52.3434990  86.9669997  34.8169992  53.1904990  86.6689997
  34.4495771  52.4150270  86.8094827  86.4069992 120.7634990  16.1209997
  85.8439992 120.0584990  16.4419997  87.2329992 120.6424990  16.5889997
  86.4416674 120.6507176  16.2281734  88.3089992 120.0334990   7.4469997
  88.1139992 120.6394990   6.7319997  88.4909992 119.2004990   7.0129997
  88.3069195 120.0037936   7.2904079  79.5219992 120.2714990  12.7709997
  79.4839992 120.6714990  13.6399997  79.0309992 119.4544990  12.8609997
  79.4504374 120.2158228  12.9020980  82.8879992 117.6454990  -0.4300003
  82.4569992 117.2004990   0.2989997  82.1699992 118.0164990  -0.9430003
  82.7319176 117.6347063  -0.3995087  76.1299992 117.3874990   6.6219997
  76.7609992 117.3584990   7.3409997  76.5799992 116.9624990   5.8909997
  76.2771082 117.3261269   6.6216307  77.4039992 118.1334990   2.0459997
  77.8789992 118.7244990   1.4609997  76.6869992 118.6634990   2.3929997
  77.3720406 118.2861011   2.0128495  87.5729992 121.6714990  12.1179997
  87.8969992 121.0404990  11.4749997  87.1329992 121.1374990  12.7789997
  87.5578707 121.5128261  12.1193195  84.3509992 117.5994990   6.9019997
  83.4399992 117.6564990   7.1909997  84.8559992 117.5394990   7.7129997
  84.2946873 117.5991838   7.0511190  79.1789992 119.2284990   5.7289997
  78.2899992 119.3274990   5.3889997  79.4749992 118.3864990   5.3829997
  79.0974001 119.1282473   5.6357318  82.8319992 119.2284990   3.3859997
  83.7639992 119.3574990   3.5639997  82.6169992 119.8974990   2.7359997
  82.9304472 119.3365817   3.3224873  34.8409992  40.5714990  88.2229997
  34.1049992  41.1814990  88.1849997  35.5249992  40.9864990  87.6969997
  34.8325885  40.7111924  88.1466931  88.7559992 116.8344990  10.1659997
  88.0789992 116.9654990  10.8299997  88.2699992 116.6794990   9.3559997
  88.5977265 116.8314665  10.1473380  81.5059992 120.4224990   0.9519997
  80.9639992 120.0434990   0.2609997  82.3399992 120.6174990   0.5239997
  81.5444390 120.3969091   0.7994374  92.0429992 132.5054990  16.4429997
  92.2429992 132.9294990  15.6089997  92.6989992 132.8494990  17.0499997
  92.1589937 132.6099993  16.4108645  79.6409992 124.9794990  16.0509997
  80.3729992 125.2344990  16.6129997  78.8609992 125.1844990  16.5669997
  79.6356526 125.0420438  16.1975168  85.6709992 120.3864990   8.7889997
  86.2349992 119.8404990   8.2419997  85.5229992 119.8654990   9.5779997
  85.7283037 120.2411798   8.8207212  80.6729992 116.5234990   5.2079997
  80.3549992 115.6204990   5.1719997  81.4539992 116.5254990   4.6549997
  80.7351079 116.4002240   5.1282908  84.2969992 118.7754990  11.2029997
  83.4619992 119.2294990  11.3139997  84.8209992 119.0514990  11.9549997
  84.2536072 118.8748960  11.3198118  84.8409992 124.9884990   2.8879997
  84.0959992 124.4804990   2.5659997  84.7069992 125.0374990   3.8339997
  84.7209334 124.9256144   2.9718892  91.9909992 124.1214990  11.6749997
  92.6329992 124.5774990  11.1309997  91.1609992 124.2344990  11.2119997
  91.9666536 124.1991813  11.5379579  88.7389992 117.8024990   1.0869997
  87.7999992 117.9134990   0.9359997  89.0359992 118.6584990   1.3939997
  88.6506136 117.9334977   1.1078568  27.8439992  38.6574990  85.6889997
  27.7269992  37.7094990  85.6349997  26.9889992  38.9904990  85.9619997
  27.7123691  38.5725842  85.7185072  86.3609992 125.1724990  14.1249997
  86.0149992 124.7904990  14.9319997  86.1609992 126.1054990  14.1959997
  86.2865987 125.2464013  14.2450443  89.4569992 119.6694990   2.7479997
  90.3489992 119.5314990   3.0669997  89.5139992 120.4604990   2.2109997
  89.5867380 119.7574777   2.7190981  79.9659992 124.2834990   8.6579997
  80.7109992 124.2804990   8.0559997  80.0439992 123.4594990   9.1389997
  80.0783366 124.1717395   8.6407412  86.9669992 126.4464990   1.9129997
  86.6719992 127.2734990   2.2949997  86.2639992 125.8274990   2.1099997
  86.8316379 126.4759182   1.9918636  76.9739992 122.7434990  13.9729997
  77.1969992 122.3254990  14.8039997  76.3719992 122.1314990  13.5499997
  76.9231513 122.6034617  14.0296722  83.9909992 122.2604990  16.1859997
  83.6949992 122.0954990  15.2899997  84.9219992 122.0404990  16.1749997
  84.0764401 122.2081891  16.0620189  88.6109992 127.6344990  14.0749997
  87.7099992 127.8174990  13.8079997  88.6449992 127.8934990  14.9959997
  88.4923861 127.6945245  14.1629517  94.3419992 119.8784990   2.4429997
  93.7879992 119.4824990   1.7699997  94.4429992 120.7894990   2.1649997
  94.2798589 119.9473904   2.3133839  94.3049992 125.6794990  15.2799997
  93.4539992 125.9174990  14.9119997  94.8959992 125.6624990  14.5259997
  94.2683831 125.7097623  15.1278448  92.6369992 128.6644990   2.9079997
  92.2649992 127.8394990   3.2169997  92.9149992 128.4814990   2.0099997
  92.6235807 128.5267031   2.8290063  32.7929992  54.0654990  83.4309997
  33.2179992  53.3584990  82.9459997  33.1099992  54.8674990  83.0139997
  32.8940266  54.0770201  83.3082461  89.7979992 123.4724990   9.9289997
  88.8699992 123.2414990   9.9019997  90.2489992 122.6954990   9.5989997
  89.7318165 123.3357785   9.8806772  82.3409992 127.8014990   6.0619997
  82.8679992 128.5744990   5.8619997  81.4609992 128.0254990   5.7599997
  82.2942121 127.9377344   5.9937460  78.0959992 122.6634990   0.6489997
  78.7119992 123.2904990   1.0289997  77.2339992 122.9794990   0.9209997
  78.0637678 122.7919423   0.7377192  83.7679992 125.4644990   5.6379997
  83.5269992 126.3894990   5.6799997  83.0279992 125.0054990   6.0349997
  83.6349463 125.5290969   5.6974279  84.2829992 129.6134990  11.9529997
  84.6459992 130.4674990  11.7199997  84.8149992 129.3214990  12.6939997
  84.4045141 129.6908907  12.0212079  82.4509992 130.4854990   5.1839997
  81.5019992 130.5914990   5.2349997  82.8029992 131.3064990   5.5279997
  82.3685647 130.6110029   5.2374882  87.8269992 125.7124990  11.6539997
  87.4009992 125.4844990  12.4799997  88.4079992 124.9734990  11.4719997
  87.8472088 125.5814393  11.7424454  90.0299992 126.6414990   0.7279997
  90.3829992 126.2614990   1.5319997  89.0809992 126.5474990   0.8149997
  89.9500956 126.5767867   0.8498005  90.4859992 130.2644990  14.1229997
  89.8839992 129.7084990  13.6279997  90.7669992 130.9314990  13.4969997
  90.4415757 130.2785755  13.9705657  94.5329992 131.1204990   0.9289997
  95.2769992 131.7064990   0.7889997  93.8389992 131.6894990   1.2619997
  94.5409809 131.2775830   0.9548572  33.9519992  51.9664990  81.9399997
  33.6949992  51.2764990  81.3279997  34.0229992  51.5234990  82.7849997
  33.9264322  51.8121568  81.9705372  78.6079992 117.4974990  13.5309997
  77.7149992 117.8354990  13.4629997  78.5089992 116.6414990  13.9489997
  78.4724752 117.4280986  13.5781644  90.8959992 125.3134990   2.9549997
  90.6189992 124.5854990   3.5109997  91.8229992 125.4324990   3.1599997
  90.9834419 125.2299436   3.0588264  78.2589992 129.3014990  11.9659997
  78.4759992 128.3694990  11.9349997  78.5059992 129.5764990  12.8489997
  78.3220948 129.2110976  12.0811268  83.0579992 127.3234990   1.6309997
  83.2049992 126.8034990   2.4209997  83.0549992 128.2304990   1.9379997
  83.0777102 127.3748964   1.7805907  79.5109992 124.5754990   2.1419997
  78.8249992 124.9284990   2.7089997  80.0339992 125.3384990   1.8949997
  79.4878402 124.7268912   2.1861783  87.3419992 117.2384990  12.4209997
  88.0409992 117.3124990  13.0709997  86.9619992 116.3734990  12.5749997
  87.3862662 117.1317050  12.5307412  88.1269992 116.8904990   3.5179997
  88.3469992 117.3614990   2.7139997  88.6849992 117.2844990   4.1879997
  88.2326044 117.0082946   3.4985207  85.7959992 129.0204990   2.3809997
  84.9789992 129.5174990   2.4329997  86.3249992 129.4964990   1.7399997
  85.7558125 129.1527000   2.3015289  85.3269992 118.6184990   4.3529997
  86.1389992 119.1224990   4.3989997  85.0819992 118.4734990   5.2669997
  85.4051091 118.6679366   4.4828552  85.8629992 119.6044990  13.5369997
  85.9819992 120.1784990  14.2939997  86.5179992 118.9164990  13.6519997
  85.9678684 119.5900205  13.6561656  35.6379992  50.5334990  90.4169997
  35.7779992  49.9414990  89.6779997  35.8059992  51.4064990  90.0609997
  35.6798734  50.5704041  90.2676937  86.2109992 115.6994990   5.2909997
  85.8639992 116.3164990   5.9349997  86.8689992 116.2004990   4.8089997
  86.2524430 115.8516860   5.3140046  83.1339992 130.0644990   2.3619997
  83.2949992 130.8644990   1.8619997  82.9369992 130.3714990   3.2469997
  83.1293906 130.2153690   2.4132316  81.8679992 116.7624990   1.9779997
  81.7849992 117.6504990   2.3249997  82.7579992 116.4974990   2.2099997
  81.9769331 116.8481177   2.0568067  92.0669992 117.5114990  14.3719997
  91.1509992 117.7734990  14.2849997  92.4029992 117.5084990  13.4759997
  91.9868499 117.5470174  14.2388748  90.6689992 121.2614990   8.4679997
  89.8719992 120.8464990   8.1399997  91.1139992 120.5714990   8.9589997
  90.6200367 121.1113372   8.4894897  80.1269992 127.1894990   1.0379997
  80.7189992 127.8894990   1.3149997  80.5859992 126.7564990   0.3189997
  80.2701652 127.2267686   0.9786515  78.4429992 119.8544990   0.1539997
  78.3979992 120.7934990   0.3329997  77.5549992 119.6184990  -0.1150003
  78.3168166 119.9511698   0.1421507  91.7559992 130.5174990  10.0899997
  91.5999992 131.1964990   9.4329997  92.6879992 130.5894990  10.2929997
  91.8607328 130.6201586  10.0275529  79.2509992 114.6354990   8.8269997
  79.0219992 114.6944990   7.8999997  78.8079992 113.8444990   9.1339997
  79.1597387 114.5366412   8.7415223  78.1809992 128.5764990   4.9879997
  77.3489992 129.0484990   5.0149997  78.7269992 129.0864990   4.3889997
  78.1408710 128.7100317   4.9107570  30.1109992  47.4954990  80.1889997
  29.3989992  48.0304990  79.8379997  30.8019992  47.5504990  79.5289997
  30.1068696  47.5762591  80.0516372  77.4699992 131.1884990  16.3179997
  78.0099992 130.9724990  17.0779997  76.9879992 130.3834990  16.1279997
  77.4788485 131.0500463  16.3964870  82.0669992 130.1084990  17.9379997
  82.8349992 129.6494990  18.2789997  82.0459992 129.8824990  17.0079997
  82.1692135 130.0151680  17.8589473  86.1589992 129.6164990  -0.6870003
  85.5149992 128.9854990  -0.3650003  86.9209992 129.0854990  -0.9180003
  86.1738708 129.4583171  -0.6741539  88.6439992 128.4884990  16.6669997
  88.2929992 127.6314990  16.9099997  89.3699992 128.6304990  17.2739997
  88.6941590 128.3905189  16.7822889  90.7629992 129.4334990  -0.4530003
  91.0459992 128.6384990  -0.0000003  91.5029992 129.6664990  -1.0140003
  90.9017295 129.3562349  -0.4668531  77.3769992 124.9994990  17.2719997
  77.5209992 124.0974990  16.9859997  76.6039992 125.2854990  16.7849997
  77.2922266 124.9146548  17.1670102  81.7179992 125.3424990  -0.5950003
  81.7819992 124.5484990  -0.0650003  82.3709992 125.2244990  -1.2850003
  81.8150483 125.2177496  -0.6156593  84.0319992 124.9684990  16.7049997
  83.7039992 125.2394990  15.8479997  84.1839992 124.0274990  16.6169997
  84.0076412 124.8784058  16.5757804  89.7669992 124.8844990  14.0879997
  90.5119992 125.4734990  13.9689997  89.0089992 125.4664990  14.1509997
  89.7665289 125.0437067  14.0802292  78.2089992 122.1994990  16.6919997
  78.6169992 121.3424990  16.5709997  77.9489992 122.2134990  17.6129997
  78.2297082 122.0840596  16.7999469  30.1649992  45.9524990  77.2279997
  30.8659992  45.9754990  77.8789997  30.4669992  45.3244990  76.5719997
  30.3018282  45.8707350  77.2284478  82.8669992 123.3154990   1.7109997
  82.4079992 122.8314990   2.3959997  83.1219992 122.6464990   1.0749997
  82.8385997 123.1588491   1.7188734  82.1559992 121.2084990  14.0669997
  81.5379992 121.8824990  14.3469997  82.4999992 121.5294990  13.2329997
  82.1178078 121.3442298  13.9926609  83.9379992 121.5584990  -0.0270003
  83.7579992 121.4034990  -0.9540003  84.8879992 121.6664990   0.0179997
  84.0417804 121.5518821  -0.1478034  87.1759992 123.6794990  17.3439997
  88.1289992 123.7634990  17.3169997  87.0159992 122.9674990  17.9629997
  87.2847320 123.5947292  17.4239933  93.3279992 123.9124990  -0.5810003
  93.0549992 123.4884990  -1.3940003  93.3679992 124.8444990  -0.7980003
  93.2960201 123.9803523  -0.7216452  82.4959992 118.5634990  15.1489997
  82.6459992 117.8344990  14.5469997  82.4979992 119.3404990  14.5899997
  82.5167967 118.5687720  14.9910523  82.9079992 116.9324990  12.6419997
  83.4439992 117.3844990  11.9899997  82.0559992 116.8244990  12.2189997
  82.8661795 116.9797444  12.4956211  84.4899992 122.3724990  12.8809997
  85.2409992 122.2164990  12.3079997  84.1509992 123.2244990  12.6059997
  84.5469587 122.4663149  12.7654060  88.9059992 120.1874990  17.9099997
  89.0979992 119.2564990  17.7979997  89.7629992 120.6124990  17.8989997
  89.0482176 120.1175090  17.8931757  90.2219992 122.9764990  15.9869997
  89.9409992 123.6854990  15.4089997  91.1649992 122.9034990  15.8359997
  90.3109272 123.0636704  15.8874976  37.4799992  46.8734990  88.4829997
  36.8279992  47.5674990  88.5719997  37.9449992  47.0834990  87.6729997
  37.4535357  46.9969544  88.3857056  80.9739992 119.7614990  17.0599997
  80.2069992 119.2284990  16.8499997  81.6529992 119.4514990  16.4609997
  80.9608292 119.6466360  16.9502693  83.7139992 114.3894990  13.0729997
  83.6159992 115.3354990  12.9679997  82.9709992 114.0164990  12.5969997
  83.6002123 114.4686811  12.9943204  84.9779992 118.7104990  16.6369997
  84.7419992 118.4914990  17.5379997  84.1949992 118.5034990  16.1269997
  84.8398382 118.6525340  16.6913991  87.6939992 117.8384990  15.7119997
  86.7459992 117.8704990  15.8439997  88.0059992 117.2124990  16.3659997
  87.6065293 117.7582934  15.8184130  89.3279992 116.4724990  17.7169997
  89.2309992 115.5204990  17.7119997  89.0059992 116.7404990  18.5779997
  89.2712468 116.3785896  17.8326192  79.1549992 117.6814990  16.7649997
  79.3659992 116.9754990  16.1549997  79.0429992 117.2444990  17.6089997
  79.1687668 117.5256619  16.7955445  83.9359992 113.6834990  15.7439997
  84.6469992 113.0434990  15.7299997  83.8349992 113.9494990  14.8309997
  84.0196858 113.6318591  15.6185501  84.2889992 115.3654990  17.7979997
  84.1579992 114.8904990  16.9779997  83.6899992 116.1104990  17.7429997
  84.1900829 115.4010949  17.6781823  83.8359992 132.2484990   0.9739997
  84.7689992 132.4064990   1.1179997  83.5709992 132.9244990   0.3489997
  83.9279846 132.3614567   0.9092930  77.4039992 126.8854990   0.4569997
  78.3179992 126.9644990   0.7299997  77.4109992 126.1984990  -0.2090003
  77.5300624 126.8034074   0.4043045  33.5169992  47.7044990  81.1409997
  32.7849992  47.9334990  81.7139997  33.9639992  46.9914990  81.5959997
  33.4772753  47.6393984  81.2809698  76.0529992 132.2784990   5.5339997
  75.4059992 131.8164990   5.0019997  76.4079992 131.6064990   6.1169997
  76.0123741 132.1244785   5.5399157  76.9229992 130.3584990   7.3389997
  76.5889992 129.4784990   7.5109997  77.1449992 130.7044990   8.2039997
  76.9072565 130.2847410   7.4794263  94.4719992 131.1684990  10.3199997
  94.4499992 131.3534990  11.2579997  95.1619992 131.7364990   9.9789997
  94.5623383 131.2707104  10.4024580  94.0349992 130.7354990  13.2409997
  93.5479992 129.9994990  12.8699997  94.5839992 130.3414990  13.9189997
  94.0426101 130.5816267  13.2819034  92.4859992 126.5254990  17.8789997
  91.6199992 126.4204990  18.2739997  92.8619992 127.2834990  18.3259997
  92.4184940 126.6136141  17.9933958  93.7869992 124.7814990   3.3939997
  94.6369992 125.2024990   3.5209997  93.7919992 124.0414990   4.0009997
  93.9041143 124.7391106   3.4934732  94.1809992 122.8354990   5.2169997
  93.4549992 122.3554990   5.6149997  94.7619992 123.0404990   5.9489997
  94.1602504 122.7975592   5.3704199  93.9399992 125.6204990  10.1649997
  94.7739992 125.2424990   9.8839997  94.0519992 126.5634990  10.0459997
  94.0691917 125.6962954  10.1104844  92.4259992 128.4984990  12.4719997
  91.7789992 128.8234990  13.0969997  91.9089992 128.0574990  11.7979997
  92.2674112 128.4834133  12.4665272  94.4489992 122.7364990   1.6079997
  93.9279992 123.0924990   0.8899997  94.4159992 123.4114990   2.2869997
  94.3730955 122.8765023   1.6012634  33.4139992  45.8794990  90.2089997
  33.4939992  46.6424990  90.7809997  32.8129992  46.1584990  89.5179997
  33.3437115  46.0217707  90.1939631  92.7979992 119.9754990   0.1589997
  92.8949992 120.6424990  -0.5210003  92.6579992 119.1604990  -0.3220003
  92.7923407 119.9565670   0.0008312  91.9679992 121.3564990   5.7799997
  91.8179992 120.4114990   5.7599997  91.6139992 121.6374990   6.6239997
  91.8996351 121.2651656   5.8913202  77.0029992 123.4344990   9.7909997
  77.1869992 123.3524990   8.8549997  77.8519992 123.3104990  10.2139997
  77.1430132 123.4065066   9.7201460  92.8239992 123.3264990  15.4189997
  93.4069992 122.5914990  15.6109997  93.3879992 124.0984990  15.4659997
  92.9799781 123.3303156  15.4516146  94.3209992 121.2294990  16.1039997
  93.4569992 120.8504990  15.9379997  94.9249992 120.4904990  16.0289997
  94.2845394 121.0778378  16.0711778  91.6779992 118.9384990   4.2429997
  91.9579992 118.0314990   4.3669997  92.4369992 119.3724990   3.8539997
  91.8189258 118.8730935   4.2073691  92.2899992 119.5204990   9.6789997
  93.2229992 119.7324990   9.6439997  92.0549992 119.6214990  10.6009997
  92.3859517 119.5631844   9.7989113  92.3189992 120.2574990  12.4549997
  91.4759992 120.5254990  12.8199997  92.7619992 121.0794990  12.2439997
  92.2634035 120.4053351  12.4764770  76.5999992 118.7044990  15.9309997
  77.5199992 118.5824990  16.1679997  76.1509992 117.9544990  16.3209997
  76.6650500 118.5864576  16.0161016  94.6019992 114.2374990  17.8079997
  94.9519992 113.5834990  17.2019997  94.7489992 115.0744990  17.3679997
  94.6697192 114.2612545  17.6656712  25.1619992  48.3354990  83.0239997
  24.8319992  47.9644990  82.2049997  25.7499992  47.6644990  83.3699997
  25.1964056  48.1941257  82.9589035  92.2919992 116.2014990   4.2909997
  92.4739992 115.7524990   5.1159997  91.6919992 115.6174990   3.8269997
  92.2358187 116.0610563   4.3412721  77.8219992 117.0174990   8.8229997
  78.2669992 116.2254990   9.1249997  78.2879992 117.7334990   9.2529997
  77.9459718 117.0059546   8.9225247  76.1259992 120.0164990   9.8919997
  76.6179992 119.7954990   9.1009997  76.4879992 120.8564990  10.1729997
  76.2422923 120.0998480   9.8217389  94.1219992 116.3464990  16.1569997
  93.2049992 116.6174990  16.1209997  94.2449992 115.8114990  15.3729997
  94.0130828 116.3112711  16.0460767  94.1579992 116.2694990   0.8189997
  94.5709992 115.5484990   0.3439997  94.8399992 116.9384990   0.8769997
  94.3066060 116.2613741   0.7619233  76.4389992 116.2744990   3.9459997
  75.5139992 116.4824990   3.8169997  76.8929992 116.7584990   3.2559997
  76.3736298 116.3684311   3.8350433  91.2099992 131.2584990   5.8919997
  91.8619992 130.9104990   5.2839997  91.7209992 131.7464990   6.5379997
  91.3682872 131.2768248   5.8960964  76.4029992 115.0124990  12.2899997
  75.7379992 114.7664990  12.9329997  75.9599992 115.6344990  11.7129997
  76.2521168 115.0629225  12.2999830  78.5949992 128.1874990  16.4349997
  77.7739992 128.3624990  15.9739997  78.3429992 128.1144990  17.3549997
  78.4485594 128.2015728  16.4963593  81.5489992 129.1614990  12.6929997
  81.1239992 129.9714990  12.4109997  82.4529992 129.2474990  12.3909997
  81.6130706 129.2839557  12.6135836  26.5289992  51.7634990  85.7049997
  26.4339992  51.1844990  84.9479997  27.2579992  51.3924990  86.2009997
  26.6146161  51.6340902  85.6685191  85.8599992 130.5604990  15.6529997
  86.0449992 130.2274990  16.5309997  86.7069992 130.8704990  15.3309997
  85.9997291 130.5568214  15.7296140  88.2049992 131.8464990  14.8969997
  88.8819992 131.2134990  14.6569997  88.5269992 132.2474990  15.7039997
  88.3411618 131.8141147  14.9732802  93.1229992 114.4364990  13.9759997
  92.3099992 114.7614990  13.5889997  93.3559992 113.6754990  13.4429997
  93.0431347 114.3781891  13.8509824  78.9509992 132.4184990  12.7409997
  78.2299992 132.8584990  12.2899997  78.5849992 132.1674990  13.5889997
  78.8029632 132.4447235  12.7939649  81.4179992 132.0184990  11.7699997
  80.5529992 132.0904990  12.1739997  81.3629992 132.5654990  10.9869997
  81.2922289 132.1023242  11.7193749  86.1289992 131.9064990  10.9459997
  85.6719992 132.4354990  10.2919997  86.2909992 132.5094990  11.6709997
  86.0883919 132.0603990  10.9545740  88.4559992 130.7844990  11.8909997
  87.5519992 130.9494990  11.6249997  88.8849992 131.6374990  11.8249997
  88.3902017 130.9224184  11.8456495  91.0599992 132.3544990  12.1859997
  90.8789992 133.2704990  11.9749997  91.2369992 131.9434990  11.3389997
  91.0591377 132.4243365  12.0427178  78.3659992 131.0414990   9.6509997
  78.3469992 130.6154990  10.5079997  79.1699992 130.7224990   9.2419997
  78.4721393 130.9400297   9.7130155  80.5069992 129.7514990   8.3059997
  80.2879992 128.8344990   8.4759997  81.3309992 129.8914990   8.7719997
  80.5884702 129.6450523   8.3922510  25.5289992  47.1034990  86.6569997
  26.0939992  47.2254990  85.8939997  25.8469992  47.7414990  87.2959997
  25.6493430  47.2064448  86.6389094  83.0439992 130.2214990   9.1549997
  83.2569992 129.3334990   8.8679997  83.1089992 130.1864990  10.1089997
  83.0819149 130.0953338   9.2447351  86.5529992 115.8854990   8.2989997
  85.8779992 115.2554990   8.5549997  87.1169992 115.4014990   7.6959997
  86.5369363 115.7338886   8.2524810  91.6949992 113.9924990   8.4119997
  92.2989992 114.5404990   7.9099997  90.8259992 114.3114990   8.1709997
  91.6600419 114.1105628   8.3107741  93.4219992 115.1314990   6.7449997
  94.0339992 114.6174990   6.2179997  93.8049992 116.0084990   6.7679997
  93.5573867 115.1797613   6.6760888  78.8789992 114.5194990   6.1209997
  78.1019992 114.2844990   5.6139997  79.4099992 113.7224990   6.1299997
  78.8443735 114.3796462   6.0528090  77.7159992 114.3174990   1.9249997
  78.1549992 114.9284990   1.3329997  77.0819992 114.8554990   2.3989997
  77.6903859 114.4739076   1.9080287  83.4589992 114.4454990   5.9339997
  84.3329992 114.8344990   5.9049997  83.3229992 114.2304990   6.8569997
  83.5601953 114.4696654   6.0547599  89.0149992 114.4754990   7.5839997
  89.0919992 114.5714990   6.6339997  88.7399992 113.5684990   7.7119997
  88.9883233 114.3659093   7.4713665  90.3689992 114.5014990   3.2759997
  89.6659992 115.1164990   3.0659997  89.9239992 113.6644990   3.4069997
  90.2126550 114.4724679   3.2649819  77.6169992 130.2654990   2.8219997
  76.9319992 130.2274990   2.1549997  77.6199992 131.1774990   3.1099997
  77.5236806 130.3836669   2.7696961  31.8379992  52.6074990  87.3909997
  31.5969992  53.2694990  88.0389997  31.6399992  51.7724990  87.8159997
  31.7782662  52.5852704  87.5371008  79.5769992 116.2334990   0.3669997
  80.0679992 115.6034990  -0.1600003  80.1999992 116.5294990   1.0299997
  79.7285304 116.1872387   0.3844922  84.6029992 116.5264990   2.8239997
  84.7809992 115.8794990   3.5069997  84.5489992 117.3604990   3.2909997
  84.6200678 116.5506615   2.9806283  86.4809992 131.4744990   1.2199997
  87.3469992 131.8414990   1.0419997  86.2339992 131.0354990   0.4059997
  86.5661853 131.4654021   1.0855813  93.1899992 131.0374990   3.8989997
  92.9959992 130.2894990   3.3339997  93.1509992 131.7954990   3.3159997
  93.1581645 131.0375797   3.7428131  78.8369992 115.0334990  15.6389997
  78.4709992 114.2674990  16.0809997  79.7499992 115.0624990  15.9249997
  78.9103172 114.9325335  15.7381872  80.8099992 114.3834990  17.1739997
  81.7089992 114.1094990  16.9899997  80.4239992 113.6414990  17.6389997
  80.8807307 114.2457207  17.2117080  79.4349992 131.1854990  -0.1530003
  79.1669992 131.4714990   0.7209997  80.2059992 130.6394990  -0.0000003
  79.5025926 131.1507790  -0.0128812  89.2309992 113.7164990  17.3569997
  89.3079992 113.2904990  18.2099997  90.1249992 113.7294990  17.0139997
  89.3623263 113.6599345  17.4274366  92.4079992 129.7884990  16.0489997
  91.6259992 129.6024990  15.5289997  92.3359992 130.7184990  16.2659997
  92.2912975 129.8886973  16.0071822 106.8139992 123.6754990   6.0799997
 106.9029992 124.6194990   5.9469997 106.1749992 123.4004990   5.4219997
 106.7398378 123.7673846   5.9729258  26.4089992  51.5034990  91.3739997
  26.0969992  52.2854990  91.8299997  25.7589992  51.3504990  90.6879997
  26.2784643  51.5898019  91.3436657 105.7469992 122.9304990   9.4989997
 105.7079992 122.2844990  10.2039997 105.4239992 122.4634990   8.7269997
 105.6980469 122.7790005   9.4912803  98.1149992 122.5444990  11.0919997
  98.1559992 121.9194990  11.8149997  98.8179992 123.1684990  11.2739997
  98.2156223 122.5432318  11.2156164 109.4529992 125.8694990   7.7999997
 109.0119992 125.1494990   8.2509997 109.4399992 126.5904990   8.4299997
 109.3909215 125.8684303   7.9468088  99.0389992 126.9944990   9.6269997
  98.6689992 126.1924990   9.2569997  99.9799992 126.8264990   9.6729997
  99.1155984 126.8619649   9.5825586  95.6489992 120.6544990   5.0189997
  95.2009992 121.5004990   5.0009997  95.0879992 120.0754990   4.5039997
  95.5118546 120.6919004   4.9468874  96.3589992 122.8164990   7.1449997
  96.5729992 122.0464990   7.6719997  97.0969992 122.9064990   6.5419997
  96.4880073 122.7233546   7.1355786 106.5639992 130.9734990   8.0119997
 107.1839992 130.2974990   7.7389997 106.3559992 130.7554990   8.9209997
 106.6207679 130.8515032   8.0974518 104.1359992 125.3624990   9.9049997
 104.4399992 124.6764990   9.3099997 104.8579992 125.4814990  10.5229997
 104.2751240 125.2847325   9.9070941 112.7989992 116.9644990  10.7649997
 112.8479992 117.5744990  11.5009997 113.2249992 117.4254990  10.0419997
 112.8632851 117.1103266  10.7680532 107.2769992 119.7564990  10.2319997
 107.4189992 118.8104990  10.2519997 107.1709992 119.9634990   9.3039997
 107.2821051 119.6549706  10.1092249  32.3879992  46.8674990  78.8259997
  32.9669992  47.0174990  79.5729997  32.8019992  47.3374990  78.1029997
  32.5233122  46.9516288  78.8305024 100.4319992 117.8584990   7.5049997
 100.4749992 118.7184990   7.0859997  99.9739992 117.3054990   6.8709997
 100.3760163 117.9014174   7.3620604 108.1539992 117.9894990   5.9049997
 108.7999992 117.6604990   6.5299997 108.6639992 118.5064990   5.2829997
 108.3114289 118.0144333   5.9063681  97.0519992 120.2554990   8.2669997
  97.7059992 119.7054990   8.6989997  97.0759992 119.9814990   7.3499997
  97.1447199 120.1432178   8.2021650 102.2079992 121.8054990   7.4819997
 102.8239992 121.2784990   7.9909997 101.6219992 121.1654990   7.0779997
 102.2130652 121.6468919   7.4970277 113.1909992 118.4424990  13.0009997
 112.5019992 119.1004990  12.9059997 113.2059992 118.2444990  13.9379997
 113.0987756 118.5057614  13.1145795  99.2419992 116.7764990  11.5789997
  99.0229992 117.3064990  10.8119997  98.5739992 117.0024990  12.2259997
  99.1216975 116.8795979  11.5615123 106.6109992 126.2764990   5.1229997
 106.3149992 125.9534990   4.2709997 106.2869992 127.1764990   5.1639997
 106.5267458 126.3539678   5.0120598 101.8109992 124.4514990  11.8659997
 101.0709992 125.0504990  11.9699997 102.5249992 125.0054990  11.5499997
 101.8063146 124.6082611  11.8375150 109.9179992 117.2804990   7.8859997
 109.7029992 116.5144990   8.4189997 110.5739992 117.7524990   8.3989997
 109.9772673 117.2395739   8.0281972  98.8359992 118.6684990   9.5309997
  99.4489992 119.3014990   9.9039997  99.3479992 118.1964990   8.8749997
  98.9891933 118.6913380   9.4933477  23.3289992  47.7014990  90.6029997
  23.3989992  48.3524990  91.3009997  22.4379992  47.8044990  90.2679997
  23.2181802  47.8044769  90.6532231 100.2179992 126.4164990  12.6529997
 100.2129992 127.2954990  12.2749997  99.3649992 126.3324990  13.0779997
 100.1019199 126.5255901  12.6586942  96.3399992 126.0874990   3.4349997
  96.0679992 126.3164990   2.5459997  96.3849992 126.9244990   3.8959997
  96.3088360 126.2321034   3.3756186 109.9649992 127.7084990  10.1479997
 109.0229992 127.7674990  10.3099997 110.2409992 128.6144990  10.0109997
 109.8735865 127.8390299  10.1516174 110.2649992 115.9954990  11.5649997
 109.5289992 116.6054990  11.5279997 110.9489992 116.4104990  11.0389997
 110.2565367 116.1352562  11.4888156 103.2679992 114.0814990   9.0309997
 103.1509992 113.1334990   8.9769997 102.4129992 114.4144990   9.3039997
 103.1363691 113.9965842   9.0605072 108.2169992 129.4894990   6.7729997
 108.6419992 128.7824990   6.2879997 108.5339992 130.2914990   6.3559997
 108.3180266 129.5010201   6.6502461 109.3759992 127.3904990   5.2819997
 109.1189992 126.7004990   4.6699997 109.4469992 126.9474990   6.1269997
 109.3504322 127.2361568   5.3125372 111.0619992 125.9574990  13.7589997
 111.2019992 125.3654990  13.0199997 111.2299992 126.8304990  13.4029997
 111.1038734 125.9944041  13.6096937 105.5349992 122.9194990   3.5319997
 104.8229992 123.4544990   3.1799997 106.2259992 122.9744990   2.8719997
 105.5309704 123.0001663   3.3945797 105.5889992 121.3764990   0.5699997
 106.2899992 121.3994990   1.2219997 105.8909992 120.7484990  -0.0860003
 105.7258202 121.2947223   0.5705591  30.1139992  53.6034990  82.2619997
  30.5879992  53.8994990  83.0389997  29.5509992  54.3424990  82.0279997
  30.1028460  53.7438336  82.3367626 112.9039992 122.2974990  11.8249997
 112.2519992 122.9914990  11.9139997 113.3689992 122.5074990  11.0149997
 112.8775357 122.4209544  11.7277056 108.9409992 123.1284990   4.4829997
 108.2089992 123.3574990   5.0559997 109.3879992 122.4154990   4.9379997
 108.9012753 123.0633984   4.6229698 108.8379992 121.3034990  13.5509997
 108.9179992 122.0664990  14.1229997 108.2369992 121.5824990  12.8609997
 108.7676547 121.4457468  13.5360029 100.5859992 123.7594990   6.3659997
 100.2559992 123.3884990   5.5479997 101.1739992 123.0884990   6.7129997
 100.6203182 123.6180648   6.3009898 101.9529992 127.1874990   9.0469997
 101.8579992 126.6084990   8.2909997 102.6819992 126.8164990   9.5429997
 102.0386011 127.0580572   9.0106011 100.9529992 122.5274990   9.9989997
 101.5179992 122.6494990   9.2369997 101.2709992 123.1654990  10.6379997
 101.0733619 122.6304388   9.9810019 107.2619992 128.0314990  10.7329997
 107.0209992 128.6934990  11.3809997 107.0639992 127.1964990  11.1579997
 107.2022662 128.0092704  10.8791008 101.8329992 126.9274990  14.7169997
 101.5209992 127.7094990  15.1719997 101.1829992 126.7744990  14.0309997
 101.7024858 127.0137882  14.6865344 107.8119992 122.2914990   2.1689997
 108.3909992 122.4414990   2.9149997 108.2259992 122.7614990   1.4449997
 107.9473358 122.3755966   2.1733935  98.7529992 123.1254990  13.9449997
  98.8229992 123.7764990  14.6439997  97.8619992 123.2284990  13.6099997
  98.6421690 123.2284261  13.9953026  24.6479992  53.5744990  92.1379997
  24.6559992  53.4384990  91.1899997  23.7319992  53.4574990  92.3899997
  24.5252512  53.5400663  92.0423179 105.5379992 129.0274990   5.6039997
 106.0119992 129.3234990   6.3809997 104.9749992 129.7664990   5.3709997
 105.5267890 129.1678047   5.6788084 100.0719992 128.9984990  15.4799997
 100.0799992 128.8624990  14.5329997  99.1559992 128.8814990  15.7319997
  99.9492528 128.9640475  15.3843226 111.5099992 114.0414990   1.9809997
 110.6099992 114.1794990   2.2769997 111.7619992 114.8724990   1.5799997
 111.4207727 114.1728705   1.9672935  99.5759992 122.8284990   3.9549997
  99.2839992 123.5964990   3.4639997  98.9019992 122.1694990   3.7919997
  99.4448843 122.8444537   3.8657695 112.6999992 128.4074990   0.3579997
 112.7729992 129.3464990   0.5279997 113.6049992 128.1024990   0.3019997
 112.8324170 128.4948294   0.3737045  95.6689992 125.1914990  12.7699997
  95.1679992 125.1634990  11.9549997  95.6749992 124.2864990  13.0799997
  95.6011690 125.0652234  12.7002770  95.4199992 127.9724990   9.6539997
  96.3659992 127.8274990   9.6349997  95.3069992 128.7564990  10.1909997
  95.5343578 128.0586708   9.7240300 113.6169992 128.6384990  15.3369997
 113.5679992 127.6824990  15.2989997 112.7909992 128.9054990  15.7379997
 113.4985096 128.5438416  15.3860698 104.5959992 128.2124990  14.2129997
 104.6829992 129.0384990  14.6879997 103.7319992 127.8824990  14.4619997
 104.4911944 128.2809871  14.3116558 105.0099992 131.9844990   4.0189997
 104.9349992 131.8634990   3.0719997 105.0429992 132.9334990   4.1369997
 105.0042083 132.0962639   3.9054973  36.0859992  38.6174990  78.6389997
  35.1859992  38.7554990  78.9339997  36.3379992  39.4484990  78.2369997
  35.9967355  38.7488200  78.6250539  98.6639992 130.7734990   5.7999997
  98.8159992 130.4254990   6.6779997  97.8129992 130.4164990   5.5439997
  98.5698344 130.6775891   5.8856851 108.1119992 131.1384990   1.0209997
 108.4869992 130.3944990   0.5499997 108.1159992 130.8684990   1.9389997
 108.1638969 131.0000920   1.0806475 107.7809992 131.0644990   3.7699997
 106.8459992 131.1644990   3.9489997 108.0609992 130.3544990   4.3489997
 107.6909471 130.9822944   3.8726678 110.7689992 120.1314990  15.8169997
 110.3619992 120.6114990  15.0959997 110.8099992 119.2254990  15.5089997
 110.7188403 120.0747989  15.6767253  97.9179992 126.5154990  13.8129997
  98.1339992 126.1534990  14.6729997  97.0629992 126.1404990  13.6039997
  97.8319082 126.4153377  13.9022396 100.5369992 114.9854990   9.8089997
  99.6749992 114.8984990   9.4009997 100.5149992 115.8414990  10.2369997
 100.4160557 115.0893078   9.8110202 105.1999992 114.7074990  13.1839997
 105.6199992 114.2924990  13.9369997 104.2669992 114.5284990  13.3009997
 105.1313736 114.6264921  13.3028950 108.5259992 118.4624990  14.0369997
 108.0119992 118.3374990  14.8349997 108.3709992 119.3754990  13.7929997
 108.4347802 118.5687433  14.1131504 109.2889992 123.3234990  -0.2020003
 109.3309992 123.1014990  -1.1320003 110.1379992 123.7224990  -0.0120003
 109.4095253 123.3470510  -0.3036196 104.8619992 117.1994990   0.4689997
 104.6079992 117.2184990   1.3909997 104.6049992 116.3284990   0.1669997
 104.7924508 117.0843292   0.5544786  24.1519992  47.4044990  80.6129997
  23.8599992  48.1724990  80.1219997  23.4779992  46.7454990  80.4499997
  24.0208843  47.4204537  80.5237695 100.6279992 119.9504990  10.9039997
  99.9859992 119.9104990  11.6129997 100.6649992 120.8774990  10.6659997
 100.5451659 120.0702540  10.9688463 100.6249992 120.1714990   5.8159997
  99.7319992 119.8314990   5.7569997 101.0759992 119.7944990   5.0599997
 100.5637185 120.0740220   5.7057698 106.1609992 120.5874990   4.6329997
 105.7519992 121.4024990   4.3409997 106.8809992 120.4474990   4.0189997
 106.2024439 120.6800383   4.5100098 105.2629992 120.7634990  16.1209997
 104.6999992 120.0584990  16.4419997 106.0889992 120.6424990  16.5889997
 105.2976674 120.6507176  16.2281734 107.1649992 120.0334990   7.4469997
 106.9699992 120.6394990   6.7319997 107.3469992 119.2004990   7.0129997
 107.1629195 120.0037936   7.2904079  98.3779992 120.2714990  12.7709997
  98.3399992 120.6714990  13.6399997  97.8869992 119.4544990  12.8609997
  98.3064374 120.2158228  12.9020980 101.7439992 117.6454990  -0.4300003
 101.3129992 117.2004990   0.2989997 101.0259992 118.0164990  -0.9430003
 101.5879176 117.6347063  -0.3995087  94.9859992 117.3874990   6.6219997
  95.6169992 117.3584990   7.3409997  95.4359992 116.9624990   5.8909997
  95.1331082 117.3261269   6.6216307  96.2599992 118.1334990   2.0459997
  96.7349992 118.7244990   1.4609997  95.5429992 118.6634990   2.3929997
  96.2280406 118.2861011   2.0128495 106.4289992 121.6714990  12.1179997
 106.7529992 121.0404990  11.4749997 105.9889992 121.1374990  12.7789997
 106.4138707 121.5128261  12.1193195  20.2449992  49.7674990  89.4279997
  19.7439992  49.7394990  88.6129997  20.2509992  48.8624990  89.7379997
  20.1771690  49.6412234  89.3582770 103.2069992 117.5994990   6.9019997
 102.2959992 117.6564990   7.1909997 103.7119992 117.5394990   7.7129997
 103.1506873 117.5991838   7.0511190  98.0349992 119.2284990   5.7289997
  97.1459992 119.3274990   5.3889997  98.3309992 118.3864990   5.3829997
  97.9534001 119.1282473   5.6357318 101.6879992 119.2284990   3.3859997
 102.6199992 119.3574990   3.5639997 101.4729992 119.8974990   2.7359997
 101.7864472 119.3365817   3.3224873 107.6119992 116.8344990  10.1659997
 106.9349992 116.9654990  10.8299997 107.1259992 116.6794990   9.3559997
 107.4537265 116.8314665  10.1473380 100.3619992 120.4224990   0.9519997
  99.8199992 120.0434990   0.2609997 101.1959992 120.6174990   0.5239997
 100.4004390 120.3969091   0.7994374 110.8989992 132.5054990  16.4429997
 111.0989992 132.9294990  15.6089997 111.5549992 132.8494990  17.0499997
 111.0149937 132.6099993  16.4108645  98.4969992 124.9794990  16.0509997
  99.2289992 125.2344990  16.6129997  97.7169992 125.1844990  16.5669997
  98.4916526 125.0420438  16.1975168 104.5269992 120.3864990   8.7889997
 105.0909992 119.8404990   8.2419997 104.3789992 119.8654990   9.5779997
 104.5843037 120.2411798   8.8207212  99.5289992 116.5234990   5.2079997
  99.2109992 115.6204990   5.1719997 100.3099992 116.5254990   4.6549997
  99.5911079 116.4002240   5.1282908 103.1529992 118.7754990  11.2029997
 102.3179992 119.2294990  11.3139997 103.6769992 119.0514990  11.9549997
 103.1096072 118.8748960  11.3198118  19.9959992  52.5484990  86.3119997
  20.9419992  52.4034990  86.2929997  19.8829992  53.3324990  86.8489997
  20.1103578  52.6346708  86.3820300 103.6969992 124.9884990   2.8879997
 102.9519992 124.4804990   2.5659997 103.5629992 125.0374990   3.8339997
 103.5769334 124.9256144   2.9718892 110.8469992 124.1214990  11.6749997
 111.4889992 124.5774990  11.1309997 110.0169992 124.2344990  11.2119997
 110.8226536 124.1991813  11.5379579 107.5949992 117.8024990   1.0869997
 106.6559992 117.9134990   0.9359997 107.8919992 118.6584990   1.3939997
 107.5066136 117.9334977   1.1078568 105.2169992 125.1724990  14.1249997
 104.8709992 124.7904990  14.9319997 105.0169992 126.1054990  14.1959997
 105.1425987 125.2464013  14.2450443 108.3129992 119.6694990   2.7479997
 109.2049992 119.5314990   3.0669997 108.3699992 120.4604990   2.2109997
 108.4427380 119.7574777   2.7190981  98.8219992 124.2834990   8.6579997
  99.5669992 124.2804990   8.0559997  98.8999992 123.4594990   9.1389997
  98.9343365 124.1717395   8.6407412 105.8229992 126.4464990   1.9129997
 105.5279992 127.2734990   2.2949997 105.1199992 125.8274990   2.1099997
 105.6876379 126.4759182   1.9918636  95.8299992 122.7434990  13.9729997
  96.0529992 122.3254990  14.8039997  95.2279992 122.1314990  13.5499997
  95.7791513 122.6034617  14.0296722 102.8469992 122.2604990  16.1859997
 102.5509992 122.0954990  15.2899997 103.7779992 122.0404990  16.1749997
 102.9324401 122.2081891  16.0620189 107.4669992 127.6344990  14.0749997
 106.5659992 127.8174990  13.8079997 107.5009992 127.8934990  14.9959997
 107.3483861 127.6945245  14.1629517  38.1929992  53.2144990  91.9939997
  38.1439992  52.2584990  91.9569997  37.3669992  53.4814990  92.3959997
  38.0745767  53.1198841  92.0433133 113.1979992 119.8784990   2.4429997
 112.6439992 119.4824990   1.7699997 113.2989992 120.7894990   2.1649997
 113.1358589 119.9473904   2.3133839 113.1609992 125.6794990  15.2799997
 112.3099992 125.9174990  14.9119997 113.7519992 125.6624990  14.5259997
 113.1243831 125.7097623  15.1278448 111.4929992 128.6644990   2.9079997
 111.1209992 127.8394990   3.2169997 111.7709992 128.4814990   2.0099997
 111.4795807 128.5267031   2.8290063 108.6539992 123.4724990   9.9289997
 107.7259992 123.2414990   9.9019997 109.1049992 122.6954990   9.5989997
 108.5878165 123.3357785   9.8806772 101.1969992 127.8014990   6.0619997
 101.7239992 128.5744990   5.8619997 100.3169992 128.0254990   5.7599997
 101.1502121 127.9377344   5.9937460  96.9519992 122.6634990   0.6489997
  97.5679992 123.2904990   1.0289997  96.0899992 122.9794990   0.9209997
  96.9197678 122.7919423   0.7377192 102.6239992 125.4644990   5.6379997
 102.3829992 126.3894990   5.6799997 101.8839992 125.0054990   6.0349997
 102.4909463 125.5290969   5.6974279 103.1389992 129.6134990  11.9529997
 103.5019992 130.4674990  11.7199997 103.6709992 129.3214990  12.6939997
 103.2605141 129.6908907  12.0212079 101.3069992 130.4854990   5.1839997
 100.3579992 130.5914990   5.2349997 101.6589992 131.3064990   5.5279997
 101.2245647 130.6110029   5.2374883 106.6829992 125.7124990  11.6539997
 106.2569992 125.4844990  12.4799997 107.2639992 124.9734990  11.4719997
 106.7032088 125.5814393  11.7424454  29.1719992  52.7884990  90.8699997
  29.2589992  53.6144990  91.3449997  28.3079992  52.4584990  91.1189997
  29.0671944  52.8569871  90.9686558 108.8859992 126.6414990   0.7279997
 109.2389992 126.2614990   1.5319997 107.9369992 126.5474990   0.8149997
 108.8060956 126.5767867   0.8498005 109.3419992 130.2644990  14.1229997
 108.7399992 129.7084990  13.6279997 109.6229992 130.9314990  13.4969997
 109.2975757 130.2785755  13.9705657 113.3889992 131.1204990   0.9289997
 114.1329992 131.7064990   0.7889997 112.6949992 131.6894990   1.2619997
 113.3969809 131.2775830   0.9548572  97.4639992 117.4974990  13.5309997
  96.5709992 117.8354990  13.4629997  97.3649992 116.6414990  13.9489997
  97.3284752 117.4280986  13.5781644 109.7519992 125.3134990   2.9549997
 109.4749992 124.5854990   3.5109997 110.6789992 125.4324990   3.1599997
 109.8394419 125.2299436   3.0588264  97.1149992 129.3014990  11.9659997
  97.3319992 128.3694990  11.9349997  97.3619992 129.5764990  12.8489997
  97.1780948 129.2110976  12.0811268 101.9139992 127.3234990   1.6309997
 102.0609992 126.8034990   2.4209997 101.9109992 128.2304990   1.9379997
 101.9337102 127.3748964   1.7805907  98.3669992 124.5754990   2.1419997
  97.6809992 124.9284990   2.7089997  98.8899992 125.3384990   1.8949997
  98.3438402 124.7268912   2.1861783 106.1979992 117.2384990  12.4209997
 106.8969992 117.3124990  13.0709997 105.8179992 116.3734990  12.5749997
 106.2422662 117.1317050  12.5307412 106.9829992 116.8904990   3.5179997
 107.2029992 117.3614990   2.7139997 107.5409992 117.2844990   4.1879997
 107.0886044 117.0082946   3.4985207  29.5859992  56.5604990  80.6759997
  29.5109992  56.4394990  79.7299997  29.6189992  57.5094990  80.7949997
  29.5801862  56.6722492  80.5624840 104.6519992 129.0204990   2.3809997
 103.8349992 129.5174990   2.4329997 105.1809992 129.4964990   1.7399997
 104.6118125 129.1527000   2.3015289 104.1829992 118.6184990   4.3529997
 104.9949992 119.1224990   4.3989997 103.9379992 118.4734990   5.2669997
 104.2611091 118.6679366   4.4828552 104.7189992 119.6044990  13.5369997
 104.8379992 120.1784990  14.2939997 105.3739992 118.9164990  13.6519997
 104.8238684 119.5900205  13.6561656 105.0669992 115.6994990   5.2909997
 104.7199992 116.3164990   5.9349997 105.7249992 116.2004990   4.8089997
 105.1084430 115.8516860   5.3140046 101.9899992 130.0644990   2.3619997
 102.1509992 130.8644990   1.8619997 101.7929992 130.3714990   3.2469997
 101.9853906 130.2153690   2.4132316 100.7239992 116.7624990   1.9779997
 100.6409992 117.6504990   2.3249997 101.6139992 116.4974990   2.2099997
 100.8329331 116.8481177   2.0568067 110.9229992 117.5114990  14.3719997
 110.0069992 117.7734990  14.2849997 111.2589992 117.5084990  13.4759997
 110.8428499 117.5470174  14.2388748 109.5249992 121.2614990   8.4679997
 108.7279992 120.8464990   8.1399997 109.9699992 120.5714990   8.9589997
 109.4760367 121.1113372   8.4894897  98.9829992 127.1894990   1.0379997
  99.5749992 127.8894990   1.3149997  99.4419992 126.7564990   0.3189997
  99.1261652 127.2267686   0.9786515  97.2989992 119.8544990   0.1539997
  97.2539992 120.7934990   0.3329997  96.4109992 119.6184990  -0.1150003
  97.1728166 119.9511698   0.1421507  23.2399992  55.3494990  82.4569997
  23.3919992  55.0014990  83.3359997  22.3889992  54.9924990  82.2019997
  23.1457899  55.2536749  82.5427322 110.6119992 130.5174990  10.0899997
 110.4559992 131.1964990   9.4329997 111.5439992 130.5894990  10.2929997
 110.7167328 130.6201586  10.0275529  98.1069992 114.6354990   8.8269997
  97.8779992 114.6944990   7.8999997  97.6639992 113.8444990   9.1339997
  98.0157387 114.5366412   8.7415223  97.0369992 128.5764990   4.9879997
  96.2049992 129.0484990   5.0149997  97.5829992 129.0864990   4.3889997
  96.9968710 128.7100317   4.9107570  96.3259992 131.1884990  16.3179997
  96.8659992 130.9724990  17.0779997  95.8439992 130.3834990  16.1279997
  96.3348485 131.0500463  16.3964870 100.9229992 130.1084990  17.9379997
 101.6909992 129.6494990  18.2789997 100.9019992 129.8824990  17.0079997
 101.0252135 130.0151680  17.8589473 105.0149992 129.6164990  -0.6870003
 104.3709992 128.9854990  -0.3650003 105.7769992 129.0854990  -0.9180003
 105.0298708 129.4583171  -0.6741539 107.4999992 128.4884990  16.6669997
 107.1489992 127.6314990  16.9099997 108.2259992 128.6304990  17.2739997
 107.5501590 128.3905189  16.7822889 109.6189992 129.4334990  -0.4530003
 109.9019992 128.6384990  -0.0000003 110.3589992 129.6664990  -1.0140003
 109.7577295 129.3562349  -0.4668531  96.2329992 124.9994990  17.2719997
  96.3769992 124.0974990  16.9859997  95.4599992 125.2854990  16.7849997
  96.1482266 124.9146548  17.1670102 100.5739992 125.3424990  -0.5950003
 100.6379992 124.5484990  -0.0650003 101.2269992 125.2244990  -1.2850003
 100.6710483 125.2177496  -0.6156593  32.6879992  55.7144990  77.6789997
  33.0629992  54.9704990  77.2079997  32.6919992  55.4444990  78.5969997
  32.7398969  55.5760920  77.7386475 102.8879992 124.9684990  16.7049997
 102.5599992 125.2394990  15.8479997 103.0399992 124.0274990  16.6169997
 102.8636412 124.8784058  16.5757804 108.6229992 124.8844990  14.0879997
 109.3679992 125.4734990  13.9689997 107.8649992 125.4664990  14.1509997
 108.6225289 125.0437067  14.0802292  97.0649992 122.1994990  16.6919997
  97.4729992 121.3424990  16.5709997  96.8049992 122.2134990  17.6129997
  97.0857082 122.0840596  16.7999469 101.7229992 123.3154990   1.7109997
 101.2639992 122.8314990   2.3959997 101.9779992 122.6464990   1.0749997
 101.6945997 123.1588491   1.7188734 101.0119992 121.2084990  14.0669997
 100.3939992 121.8824990  14.3469997 101.3559992 121.5294990  13.2329997
 100.9738078 121.3442298  13.9926609 102.7939992 121.5584990  -0.0270003
 102.6139992 121.4034990  -0.9540003 103.7439992 121.6664990   0.0179997
 102.8977804 121.5518821  -0.1478034 106.0319992 123.6794990  17.3439997
 106.9849992 123.7634990  17.3169997 105.8719992 122.9674990  17.9629997
 106.1407320 123.5947292  17.4239933 112.1839992 123.9124990  -0.5810003
 111.9109992 123.4884990  -1.3940003 112.2239992 124.8444990  -0.7980003
 112.1520201 123.9803523  -0.7216452 101.3519992 118.5634990  15.1489997
 101.5019992 117.8344990  14.5469997 101.3539992 119.3404990  14.5899997
 101.3727967 118.5687720  14.9910523 101.7639992 116.9324990  12.6419997
 102.2999992 117.3844990  11.9899997 100.9119992 116.8244990  12.2189997
 101.7221795 116.9797444  12.4956211  32.3569992  55.6404990  80.4279997
  31.4219992  55.7404990  80.6069997  32.6369992  54.9304990  81.0059997
  32.2669270  55.5582300  80.5305984 103.3459992 122.3724990  12.8809997
 104.0969992 122.2164990  12.3079997 103.0069992 123.2244990  12.6059997
 103.4029587 122.4663149  12.7654060 107.7619992 120.1874990  17.9099997
 107.9539992 119.2564990  17.7979997 108.6189992 120.6124990  17.8989997
 107.9042176 120.1175090  17.8931757 109.0779992 122.9764990  15.9869997
 108.7969992 123.6854990  15.4089997 110.0209992 122.9034990  15.8359997
 109.1669272 123.0636704  15.8874976  99.8299992 119.7614990  17.0599997
  99.0629992 119.2284990  16.8499997 100.5089992 119.4514990  16.4609997
  99.8168292 119.6466360  16.9502693 102.5699992 114.3894990  13.0729997
 102.4719992 115.3354990  12.9679997 101.8269992 114.0164990  12.5969997
 102.4562123 114.4686811  12.9943204 103.8339992 118.7104990  16.6369997
 103.5979992 118.4914990  17.5379997 103.0509992 118.5034990  16.1269997
 103.6958382 118.6525340  16.6913991 106.5499992 117.8384990  15.7119997
 105.6019992 117.8704990  15.8439997 106.8619992 117.2124990  16.3659997
 106.4625293 117.7582934  15.8184130 108.1839992 116.4724990  17.7169997
 108.0869992 115.5204990  17.7119997 107.8619992 116.7404990  18.5779997
 108.1272468 116.3785896  17.8326192  98.0109992 117.6814990  16.7649997
  98.2219992 116.9754990  16.1549997  97.8989992 117.2444990  17.6089997
  98.0247668 117.5256619  16.7955445 102.7919992 113.6834990  15.7439997
 103.5029992 113.0434990  15.7299997 102.6909992 113.9494990  14.8309997
 102.8756858 113.6318591  15.6185501  35.3449992  44.7074990  92.4739997
  34.9379992  45.1874990  91.7539997  35.3859992  43.8014990  92.1669997
  35.2947178  44.6508609  92.3337441 103.1449992 115.3654990  17.7979997
 103.0139992 114.8904990  16.9779997 102.5459992 116.1104990  17.7429997
 103.0460829 115.4010949  17.6781823 102.6919992 132.2484990   0.9739997
 103.6249992 132.4064990   1.1179997 102.4269992 132.9244990   0.3489997
 102.7839846 132.3614567   0.9092930  96.2599992 126.8854990   0.4569997
  97.1739992 126.9644990   0.7299997  96.2669992 126.1984990  -0.2090003
  96.3860624 126.8034074   0.4043045  94.9089992 132.2784990   5.5339997
  94.2619992 131.8164990   5.0019997  95.2639992 131.6064990   6.1169997
  94.8683741 132.1244785   5.5399157  95.7789992 130.3584990   7.3389997
  95.4449992 129.4784990   7.5109997  96.0009992 130.7044990   8.2039997
  95.7632565 130.2847410   7.4794263 113.3279992 131.1684990  10.3199997
 113.3059992 131.3534990  11.2579997 114.0179992 131.7364990   9.9789997
 113.4183383 131.2707104  10.4024580 112.8909992 130.7354990  13.2409997
 112.4039992 129.9994990  12.8699997 113.4399992 130.3414990  13.9189997
 112.8986101 130.5816267  13.2819034 111.3419992 126.5254990  17.8789997
 110.4759992 126.4204990  18.2739997 111.7179992 127.2834990  18.3259997
 111.2744940 126.6136141  17.9933958 112.6429992 124.7814990   3.3939997
 113.4929992 125.2024990   3.5209997 112.6479992 124.0414990   4.0009997
 112.7601143 124.7391106   3.4934732 113.0369992 122.8354990   5.2169997
 112.3109992 122.3554990   5.6149997 113.6179992 123.0404990   5.9489997
 113.0162504 122.7975592   5.3704199  22.4939992  51.0914990  90.4709997
  22.7099992  50.7294990  91.3309997  21.6389992  50.7164990  90.2609997
  22.4079349  50.9912914  90.5602134 112.7959992 125.6204990  10.1649997
 113.6299992 125.2424990   9.8839997 112.9079992 126.5634990  10.0459997
 112.9251917 125.6962954  10.1104844 111.2819992 128.4984990  12.4719997
 110.6349992 128.8234990  13.0969997 110.7649992 128.0574990  11.7979997
 111.1234112 128.4834133  12.4665272 113.3049992 122.7364990   1.6079997
 112.7839992 123.0924990   0.8899997 113.2719992 123.4114990   2.2869997
 113.2290955 122.8765023   1.6012634 111.6539992 119.9754990   0.1589997
 111.7509992 120.6424990  -0.5210003 111.5139992 119.1604990  -0.3220003
 111.6483407 119.9565670   0.0008312 110.8239992 121.3564990   5.7799997
 110.6739992 120.4114990   5.7599997 110.4699992 121.6374990   6.6239997
 110.7556351 121.2651656   5.8913202  95.8589992 123.4344990   9.7909997
  96.0429992 123.3524990   8.8549997  96.7079992 123.3104990  10.2139997
  95.9990132 123.4065066   9.7201460 111.6799992 123.3264990  15.4189997
 112.2629992 122.5914990  15.6109997 112.2439992 124.0984990  15.4659997
 111.8359781 123.3303156  15.4516146 113.1769992 121.2294990  16.1039997
 112.3129992 120.8504990  15.9379997 113.7809992 120.4904990  16.0289997
 113.1405394 121.0778378  16.0711778 110.5339992 118.9384990   4.2429997
 110.8139992 118.0314990   4.3669997 111.2929992 119.3724990   3.8539997
 110.6749258 118.8730935   4.2073691 111.1459992 119.5204990   9.6789997
 112.0789992 119.7324990   9.6439997 110.9109992 119.6214990  10.6009997
 111.2419517 119.5631844   9.7989113  25.1129992  39.5614990  86.4669997
  24.2509992  39.4744990  86.0589997  25.0909992  40.4174990  86.8939997
  24.9920953  39.6653558  86.4689262 111.1749992 120.2574990  12.4549997
 110.3319992 120.5254990  12.8199997 111.6179992 121.0794990  12.2439997
 111.1194035 120.4053351  12.4764770  95.4559992 118.7044990  15.9309997
  96.3759992 118.5824990  16.1679997  95.0069992 117.9544990  16.3209997
  95.5210500 118.5864576  16.0161016 113.4579992 114.2374990  17.8079997
 113.8079992 113.5834990  17.2019997 113.6049992 115.0744990  17.3679997
 113.5257192 114.2612545  17.6656712 111.1479992 116.2014990   4.2909997
 111.3299992 115.7524990   5.1159997 110.5479992 115.6174990   3.8269997
 111.0918187 116.0610563   4.3412721  96.6779992 117.0174990   8.8229997
  97.1229992 116.2254990   9.1249997  97.1439992 117.7334990   9.2529997
  96.8019718 117.0059546   8.9225247  94.9819992 120.0164990   9.8919997
  95.4739992 119.7954990   9.1009997  95.3439992 120.8564990  10.1729997
  95.0982923 120.0998480   9.8217389 112.9779992 116.3464990  16.1569997
 112.0609992 116.6174990  16.1209997 113.1009992 115.8114990  15.3729997
 112.8690828 116.3112711  16.0460767 113.0139992 116.2694990   0.8189997
 113.4269992 115.5484990   0.3439997 113.6959992 116.9384990   0.8769997
 113.1626060 116.2613741   0.7619233  95.2949992 116.2744990   3.9459997
  94.3699992 116.4824990   3.8169997  95.7489992 116.7584990   3.2559997
  95.2296298 116.3684311   3.8350433 110.0659992 131.2584990   5.8919997
 110.7179992 130.9104990   5.2839997 110.5769992 131.7464990   6.5379997
 110.2242872 131.2768248   5.8960964  29.7759992  39.2834990  89.8409997
  30.1959992  38.8684990  90.5939997  28.8429992  39.1044990  89.9579997
  29.7073736  39.2024921  89.9598950  95.2589992 115.0124990  12.2899997
  94.5939992 114.7664990  12.9329997  94.8159992 115.6344990  11.7129997
  95.1081168 115.0629225  12.2999830  97.4509992 128.1874990  16.4349997
  96.6299992 128.3624990  15.9739997  97.1989992 128.1144990  17.3549997
  97.3045594 128.2015728  16.4963593 100.4049992 129.1614990  12.6929997
  99.9799992 129.9714990  12.4109997 101.3089992 129.2474990  12.3909997
 100.4690706 129.2839557  12.6135836 104.7159992 130.5604990  15.6529997
 104.9009992 130.2274990  16.5309997 105.5629992 130.8704990  15.3309997
 104.8557291 130.5568214  15.7296140 107.0609992 131.8464990  14.8969997
 107.7379992 131.2134990  14.6569997 107.3829992 132.2474990  15.7039997
 107.1971618 131.8141147  14.9732802 111.9789992 114.4364990  13.9759997
 111.1659992 114.7614990  13.5889997 112.2119992 113.6754990  13.4429997
 111.8991347 114.3781891  13.8509824  97.8069992 132.4184990  12.7409997
  97.0859992 132.8584990  12.2899997  97.4409992 132.1674990  13.5889997
  97.6589632 132.4447235  12.7939649 100.2739992 132.0184990  11.7699997
  99.4089992 132.0904990  12.1739997 100.2189992 132.5654990  10.9869997
 100.1482289 132.1023242  11.7193749 104.9849992 131.9064990  10.9459997
 104.5279992 132.4354990  10.2919997 105.1469992 132.5094990  11.6709997
 104.9443919 132.0603990  10.9545740 107.3119992 130.7844990  11.8909997
 106.4079992 130.9494990  11.6249997 107.7409992 131.6374990  11.8249997
 107.2462017 130.9224184  11.8456495  33.1019992  43.0384990  90.6949997
  32.5879992  42.9134990  91.4919997  32.9469992  43.9514990  90.4499997
  33.0106643  43.1447068  90.7710624 109.9159992 132.3544990  12.1859997
 109.7349992 133.2704990  11.9749997 110.0929992 131.9434990  11.3389997
 109.9151377 132.4243365  12.0427178  97.2219992 131.0414990   9.6509997
  97.2029992 130.6154990  10.5079997  98.0259992 130.7224990   9.2419997
  97.3281393 130.9400297   9.7130155  99.3629992 129.7514990   8.3059997
  99.1439992 128.8344990   8.4759997 100.1869992 129.8914990   8.7719997
  99.4444702 129.6450523   8.3922510 101.8999992 130.2214990   9.1549997
 102.1129992 129.3334990   8.8679997 101.9649992 130.1864990  10.1089997
 101.9379149 130.0953338   9.2447351 105.4089992 115.8854990   8.2989997
 104.7339992 115.2554990   8.5549997 105.9729992 115.4014990   7.6959997
 105.3929363 115.7338886   8.2524810 110.5509992 113.9924990   8.4119997
 111.1549992 114.5404990   7.9099997 109.6819992 114.3114990   8.1709997
 110.5160419 114.1105628   8.3107741 112.2779992 115.1314990   6.7449997
 112.8899992 114.6174990   6.2179997 112.6609992 116.0084990   6.7679997
 112.4133867 115.1797613   6.6760888  97.7349992 114.5194990   6.1209997
  96.9579992 114.2844990   5.6139997  98.2659992 113.7224990   6.1299997
  97.7003735 114.3796462   6.0528090  96.5719992 114.3174990   1.9249997
  97.0109992 114.9284990   1.3329997  95.9379992 114.8554990   2.3989997
  96.5463859 114.4739076   1.9080287 102.3149992 114.4454990   5.9339997
 103.1889992 114.8344990   5.9049997 102.1789992 114.2304990   6.8569997
 102.4161953 114.4696654   6.0547599  33.8649992  47.8994990  76.4559997
  33.9069992  47.6774990  75.5259997  34.7139992  48.2984990  76.6459997
  33.9855253  47.9230510  76.3543804 107.8709992 114.4754990   7.5839997
 107.9479992 114.5714990   6.6339997 107.5959992 113.5684990   7.7119997
 107.8443233 114.3659093   7.4713665 109.2249992 114.5014990   3.2759997
 108.5219992 115.1164990   3.0659997 108.7799992 113.6644990   3.4069997
 109.0686550 114.4724679   3.2649819  96.4729992 130.2654990   2.8219997
  95.7879992 130.2274990   2.1549997  96.4759992 131.1774990   3.1099997
  96.3796806 130.3836669   2.7696961  98.4329992 116.2334990   0.3669997
  98.9239992 115.6034990  -0.1600003  99.0559992 116.5294990   1.0299997
  98.5845304 116.1872387   0.3844922 103.4589992 116.5264990   2.8239997
 103.6369992 115.8794990   3.5069997 103.4049992 117.3604990   3.2909997
 103.4760678 116.5506615   2.9806283 105.3369992 131.4744990   1.2199997
 106.2029992 131.8414990   1.0419997 105.0899992 131.0354990   0.4059997
 105.4221853 131.4654021   1.0855813 112.0459992 131.0374990   3.8989997
 111.8519992 130.2894990   3.3339997 112.0069992 131.7954990   3.3159997
 112.0141645 131.0375797   3.7428131  97.6929992 115.0334990  15.6389997
  97.3269992 114.2674990  16.0809997  98.6059992 115.0624990  15.9249997
  97.7663172 114.9325335  15.7381872  99.6659992 114.3834990  17.1739997
 100.5649992 114.1094990  16.9899997  99.2799992 113.6414990  17.6389997
  99.7367307 114.2457207  17.2117080  98.2909992 131.1854990  -0.1530003
  98.0229992 131.4714990   0.7209997  99.0619992 130.6394990  -0.0000003
  98.3585926 131.1507790  -0.0128812  25.2039992  44.5264990  87.5619997
  24.5619992  44.4864990  88.2709997  25.2409992  45.4534990  87.3239997
  25.1211659  44.6462540  87.6268463 108.0869992 113.7164990  17.3569997
 108.1639992 113.2904990  18.2099997 108.9809992 113.7294990  17.0139997
 108.2183263 113.6599345  17.4274366 111.2639992 129.7884990  16.0489997
 110.4819992 129.6024990  15.5289997 111.1919992 130.7184990  16.2659997
 111.1472975 129.8886973  16.0071822 125.6699992 123.6754990   6.0799997
 125.7589992 124.6194990   5.9469997 125.0309992 123.4004990   5.4219997
 125.5958378 123.7673846   5.9729258 124.6029992 122.9304990   9.4989997
 124.5639992 122.2844990  10.2039997 124.2799992 122.4634990   8.7269997
 124.5540469 122.7790005   9.4912803 116.9709992 122.5444990  11.0919997
 117.0119992 121.9194990  11.8149997 117.6739992 123.1684990  11.2739997
 117.0716223 122.5432318  11.2156164 128.3089992 125.8694990   7.7999997
 127.8679992 125.1494990   8.2509997 128.2959992 126.5904990   8.4299997
 128.2469215 125.8684303   7.9468088 117.8949992 126.9944990   9.6269997
 117.5249992 126.1924990   9.2569997 118.8359992 126.8264990   9.6729997
 117.9715984 126.8619649   9.5825586 114.5049992 120.6544990   5.0189997
 114.0569992 121.5004990   5.0009997 113.9439992 120.0754990   4.5039997
 114.3678546 120.6919004   4.9468874 115.2149992 122.8164990   7.1449997
 115.4289992 122.0464990   7.6719997 115.9529992 122.9064990   6.5419997
 115.3440073 122.7233546   7.1355786 125.4199992 130.9734990   8.0119997
 126.0399992 130.2974990   7.7389997 125.2119992 130.7554990   8.9209997
 125.4767679 130.8515032   8.0974518  25.2009992  44.7474990  82.4739997
  24.3079992  44.4074990  82.4149997  25.6519992  44.3704990  81.7179997
  25.1397185  44.6500220  82.3637698 122.9919992 125.3624990   9.9049997
 123.2959992 124.6764990   9.3099997 123.7139992 125.4814990  10.5229997
 123.1311240 125.2847325   9.9070941 131.6549992 116.9644990  10.7649997
 131.7039992 117.5744990  11.5009997 132.0809992 117.4254990  10.0419997
 131.7192851 117.1103266  10.7680532 126.1329992 119.7564990  10.2319997
 126.2749992 118.8104990  10.2519997 126.0269992 119.9634990   9.3039997
 126.1381051 119.6549706  10.1092249 119.2879992 117.8584990   7.5049997
 119.3309992 118.7184990   7.0859997 118.8299992 117.3054990   6.8709997
 119.2320163 117.9014174   7.3620604 127.0099992 117.9894990   5.9049997
 127.6559992 117.6604990   6.5299997 127.5199992 118.5064990   5.2829997
 127.1674289 118.0144333   5.9063681 115.9079992 120.2554990   8.2669997
 116.5619992 119.7054990   8.6989997 115.9319992 119.9814990   7.3499997
 116.0007199 120.1432178   8.2021650 121.0639992 121.8054990   7.4819997
 121.6799992 121.2784990   7.9909997 120.4779992 121.1654990   7.0779997
 121.0690652 121.6468919   7.4970277 132.0469992 118.4424990  13.0009997
 131.3579992 119.1004990  12.9059997 132.0619992 118.2444990  13.9379997
 131.9547756 118.5057614  13.1145795 118.0979992 116.7764990  11.5789997
 117.8789992 117.3064990  10.8119997 117.4299992 117.0024990  12.2259997
 117.9776975 116.8795979  11.5615123 125.4669992 126.2764990   5.1229997
 125.1709992 125.9534990   4.2709997 125.1429992 127.1764990   5.1639997
 125.3827458 126.3539678   5.0120598  30.7369992  45.1634990  81.2909997
  30.3279992  45.9784990  80.9989997  31.4569992  45.0234990  80.6759997
  30.7783946  45.2559963  81.1679616 120.6669992 124.4514990  11.8659997
 119.9269992 125.0504990  11.9699997 121.3809992 125.0054990  11.5499997
 120.6623146 124.6082611  11.8375150 128.7739992 117.2804990   7.8859997
 128.5589992 116.5144990   8.4189997 129.4299992 117.7524990   8.3989997
 128.8332673 117.2395739   8.0281972 117.6919992 118.6684990   9.5309997
 118.3049992 119.3014990   9.9039997 118.2039992 118.1964990   8.8749997
 117.8451933 118.6913380   9.4933477 119.0739992 126.4164990  12.6529997
 119.0689992 127.2954990  12.2749997 118.2209992 126.3324990  13.0779997
 118.9579199 126.5255901  12.6586942 115.1959992 126.0874990   3.4349997
 114.9239992 126.3164990   2.5459997 115.2409992 126.9244990   3.8959997
 115.1648360 126.2321034   3.3756186 128.8209992 127.7084990  10.1479997
 127.8789992 127.7674990  10.3099997 129.0969992 128.6144990  10.0109997
 128.7295865 127.8390299  10.1516174 129.1209992 115.9954990  11.5649997
 128.3849992 116.6054990  11.5279997 129.8049992 116.4104990  11.0389997
 129.1125367 116.1352562  11.4888156 122.1239992 114.0814990   9.0309997
 122.0069992 113.1334990   8.9769997 121.2689992 114.4144990   9.3039997
 121.9923691 113.9965842   9.0605072 127.0729992 129.4894990   6.7729997
 127.4979992 128.7824990   6.2879997 127.3899992 130.2914990   6.3559997
 127.1740266 129.5010201   6.6502461 128.2319992 127.3904990   5.2819997
 127.9749992 126.7004990   4.6699997 128.3029992 126.9474990   6.1269997
 128.2064322 127.2361568   5.3125372  29.8389992  45.3394990  92.7789997
  29.2759992  44.6344990  93.0989997  30.6649992  45.2184990  93.2459997
  29.8736423  45.2265614  92.8860168 129.9179992 125.9574990  13.7589997
 130.0579992 125.3654990  13.0199997 130.0859992 126.8304990  13.4029997
 129.9598734 125.9944041  13.6096937 124.3909992 122.9194990   3.5319997
 123.6789992 123.4544990   3.1799997 125.0819992 122.9744990   2.8719997
 124.3869704 123.0001663   3.3945797 124.4449992 121.3764990   0.5699997
 125.1459992 121.3994990   1.2219997 124.7469992 120.7484990  -0.0860003
 124.5818202 121.2947223   0.5705591 131.7599992 122.2974990  11.8249997
 131.1079992 122.9914990  11.9139997 132.2249992 122.5074990  11.0149997
 131.7335357 122.4209544  11.7277056 127.7969992 123.1284990   4.4829997
 127.0649992 123.3574990   5.0559997 128.2439992 122.4154990   4.9379997
 127.7572753 123.0633984   4.6229698 127.6939992 121.3034990  13.5509997
 127.7739992 122.0664990  14.1229997 127.0929992 121.5824990  12.8609997
 127.6236547 121.4457468  13.5360029 119.4419992 123.7594990   6.3659997
 119.1119992 123.3884990   5.5479997 120.0299992 123.0884990   6.7129997
 119.4763182 123.6180648   6.3009898 120.8089992 127.1874990   9.0469997
 120.7139992 126.6084990   8.2909997 121.5379992 126.8164990   9.5429997
 120.8946011 127.0580572   9.0106011 119.8089992 122.5274990   9.9989997
 120.3739992 122.6494990   9.2369997 120.1269992 123.1654990  10.6379997
 119.9293619 122.6304388   9.9810019 126.1179992 128.0314990  10.7329997
 125.8769992 128.6934990  11.3809997 125.9199992 127.1964990  11.1579997
 126.0582662 128.0092704  10.8791008  31.7409992  44.6094990  84.1049997
  31.5459992  45.2154990  83.3899997  31.9229992  43.7764990  83.6699997
  31.7389272  44.5797955  83.9484075 120.6889992 126.9274990  14.7169997
 120.3769992 127.7094990  15.1719997 120.0389992 126.7744990  14.0309997
 120.5584858 127.0137882  14.6865344 126.6679992 122.2914990   2.1689997
 127.2469992 122.4414990   2.9149997 127.0819992 122.7614990   1.4449997
 126.8033358 122.3755966   2.1733935 117.6089992 123.1254990  13.9449997
 117.6789992 123.7764990  14.6439997 116.7179992 123.2284990  13.6099997
 117.4981690 123.2284261  13.9953026 124.3939992 129.0274990   5.6039997
 124.8679992 129.3234990   6.3809997 123.8309992 129.7664990   5.3709997
 124.3827890 129.1678047   5.6788084 118.9279992 128.9984990  15.4799997
 118.9359992 128.8624990  14.5329997 118.0119992 128.8814990  15.7319997
 118.8052528 128.9640475  15.3843226 130.3659992 114.0414990   1.9809997
 129.4659992 114.1794990   2.2769997 130.6179992 114.8724990   1.5799997
 130.2767727 114.1728705   1.9672935 118.4319992 122.8284990   3.9549997
 118.1399992 123.5964990   3.4639997 117.7579992 122.1694990   3.7919997
 118.3008843 122.8444537   3.8657695 131.5559992 128.4074990   0.3579997
 131.6289992 129.3464990   0.5279997 132.4609992 128.1024990   0.3019997
 131.6884170 128.4948294   0.3737045 114.5249992 125.1914990  12.7699997
 114.0239992 125.1634990  11.9549997 114.5309992 124.2864990  13.0799997
 114.4571690 125.0652234  12.7002770 114.2759992 127.9724990   9.6539997
 115.2219992 127.8274990   9.6349997 114.1629992 128.7564990  10.1909997
 114.3903578 128.0586708   9.7240300  22.9539992  44.8474990  89.4289997
  22.9159992  45.2474990  90.2969997  22.4629992  44.0304990  89.5189997
  22.8824246  44.7918842  89.5601171 132.4729992 128.6384990  15.3369997
 132.4239992 127.6824990  15.2989997 131.6469992 128.9054990  15.7379997
 132.3545096 128.5438416  15.3860698 123.4519992 128.2124990  14.2129997
 123.5389992 129.0384990  14.6879997 122.5879992 127.8824990  14.4619997
 123.3471944 128.2809871  14.3116558 123.8659992 131.9844990   4.0189997
 123.7909992 131.8634990   3.0719997 123.8989992 132.9334990   4.1369997
 123.8602083 132.0962639   3.9054973 117.5199992 130.7734990   5.7999997
 117.6719992 130.4254990   6.6779997 116.6689992 130.4164990   5.5439997
 117.4258344 130.6775891   5.8856851 126.9679992 131.1384990   1.0209997
 127.3429992 130.3944990   0.5499997 126.9719992 130.8684990   1.9389997
 127.0198969 131.0000920   1.0806475 126.6369992 131.0644990   3.7699997
 125.7019992 131.1644990   3.9489997 126.9169992 130.3544990   4.3489997
 126.5469471 130.9822944   3.8726678 129.6249992 120.1314990  15.8169997
 129.2179992 120.6114990  15.0959997 129.6659992 119.2254990  15.5089997
 129.5748403 120.0747989  15.6767253 116.7739992 126.5154990  13.8129997
 116.9899992 126.1534990  14.6729997 115.9189992 126.1404990  13.6039997
 116.6879082 126.4153377  13.9022396 119.3929992 114.9854990   9.8089997
 118.5309992 114.8984990   9.4009997 119.3709992 115.8414990  10.2369997
 119.2720557 115.0893078   9.8110202 124.0559992 114.7074990  13.1839997
 124.4759992 114.2924990  13.9369997 123.1229992 114.5284990  13.3009997
 123.9873736 114.6264921  13.3028950  19.5619992  41.9634990  83.2789997
  20.1929992  41.9344990  83.9989997  20.0119992  41.5384990  82.5489997
  19.7090905  41.9020839  83.2787479 127.3819992 118.4624990  14.0369997
 126.8679992 118.3374990  14.8349997 127.2269992 119.3754990  13.7929997
 127.2907802 118.5687433  14.1131504 128.1449992 123.3234990  -0.2020003
 128.1869992 123.1014990  -1.1320003 128.9939992 123.7224990  -0.0120003
 128.2655253 123.3470510  -0.3036196 123.7179992 117.1994990   0.4689997
 123.4639992 117.2184990   1.3909997 123.4609992 116.3284990   0.1669997
 123.6484508 117.0843292   0.5544786 119.4839992 119.9504990  10.9039997
 118.8419992 119.9104990  11.6129997 119.5209992 120.8774990  10.6659997
 119.4011659 120.0702540  10.9688463 119.4809992 120.1714990   5.8159997
 118.5879992 119.8314990   5.7569997 119.9319992 119.7944990   5.0599997
 119.4197185 120.0740220   5.7057698 125.0169992 120.5874990   4.6329997
 124.6079992 121.4024990   4.3409997 125.7369992 120.4474990   4.0189997
 125.0584439 120.6800383   4.5100098 124.1189992 120.7634990  16.1209997
 123.5559992 120.0584990  16.4419997 124.9449992 120.6424990  16.5889997
 124.1536674 120.6507176  16.2281734 126.0209992 120.0334990   7.4469997
 125.8259992 120.6394990   6.7319997 126.2029992 119.2004990   7.0129997
 126.0189195 120.0037936   7.2904079 117.2339992 120.2714990  12.7709997
 117.1959992 120.6714990  13.6399997 116.7429992 119.4544990  12.8609997
 117.1624374 120.2158228  12.9020980 120.5999992 117.6454990  -0.4300003
 120.1689992 117.2004990   0.2989997 119.8819992 118.0164990  -0.9430003
 120.4439176 117.6347063  -0.3995087  31.0049992  46.2474990  88.7759997
  31.3289992  45.6164990  88.1329997  30.5649992  45.7134990  89.4369997
  30.9898707  46.0888261  88.7773195 113.8419992 117.3874990   6.6219997
 114.4729992 117.3584990   7.3409997 114.2919992 116.9624990   5.8909997
 113.9891082 117.3261269   6.6216307 115.1159992 118.1334990   2.0459997
 115.5909992 118.7244990   1.4609997 114.3989992 118.6634990   2.3929997
 115.0840406 118.2861011   2.0128495 125.2849992 121.6714990  12.1179997
 125.6089992 121.0404990  11.4749997 124.8449992 121.1374990  12.7789997
 125.2698707 121.5128261  12.1193195 122.0629992 117.5994990   6.9019997
 121.1519992 117.6564990   7.1909997 122.5679992 117.5394990   7.7129997
 122.0066873 117.5991838   7.0511190 116.8909992 119.2284990   5.7289997
 116.0019992 119.3274990   5.3889997 117.1869992 118.3864990   5.3829997
 116.8094001 119.1282473   5.6357318 120.5439992 119.2284990   3.3859997
 121.4759992 119.3574990   3.5639997 120.3289992 119.8974990   2.7359997
 120.6424472 119.3365817   3.3224873 126.4679992 116.8344990  10.1659997
 125.7909992 116.9654990  10.8299997 125.9819992 116.6794990   9.3559997
 126.3097265 116.8314665  10.1473380 119.2179992 120.4224990   0.9519997
 118.6759992 120.0434990   0.2609997 120.0519992 120.6174990   0.5239997
 119.2564390 120.3969091   0.7994374 129.7549992 132.5054990  16.4429997
 129.9549992 132.9294990  15.6089997 130.4109992 132.8494990  17.0499997
 129.8709937 132.6099993  16.4108645 117.3529992 124.9794990  16.0509997
 118.0849992 125.2344990  16.6129997 116.5729992 125.1844990  16.5669997
 117.3476526 125.0420438  16.1975168  27.7829992  42.1754990  83.5599997
  26.8719992  42.2324990  83.8489997  28.2879992  42.1154990  84.3709997
  27.7266873  42.1751838  83.7091190 123.3829992 120.3864990   8.7889997
 123.9469992 119.8404990   8.2419997 123.2349992 119.8654990   9.5779997
 123.4403037 120.2411798   8.8207212 118.3849992 116.5234990   5.2079997
 118.0669992 115.6204990   5.1719997 119.1659992 116.5254990   4.6549997
 118.4471079 116.4002240   5.1282908 122.0089992 118.7754990  11.2029997
 121.1739992 119.2294990  11.3139997 122.5329992 119.0514990  11.9549997
 121.9656072 118.8748960  11.3198118 122.5529992 124.9884990   2.8879997
 121.8079992 124.4804990   2.5659997 122.4189992 125.0374990   3.8339997
 122.4329334 124.9256144   2.9718892 129.7029992 124.1214990  11.6749997
 130.3449992 124.5774990  11.1309997 128.8729992 124.2344990  11.2119997
 129.6786536 124.1991813  11.5379579 126.4509992 117.8024990   1.0869997
 125.5119992 117.9134990   0.9359997 126.7479992 118.6584990   1.3939997
 126.3626136 117.9334977   1.1078568 124.0729992 125.1724990  14.1249997
 123.7269992 124.7904990  14.9319997 123.8729992 126.1054990  14.1959997
 123.9985987 125.2464013  14.2450443 127.1689992 119.6694990   2.7479997
 128.0609992 119.5314990   3.0669997 127.2259992 120.4604990   2.2109997
 127.2987380 119.7574777   2.7190981 117.6779992 124.2834990   8.6579997
 118.4229992 124.2804990   8.0559997 117.7559992 123.4594990   9.1389997
 117.7903365 124.1717395   8.6407412 124.6789992 126.4464990   1.9129997
 124.3839992 127.2734990   2.2949997 123.9759992 125.8274990   2.1099997
 124.5436379 126.4759182   1.9918636  22.6109992  43.8044990  82.3869997
  21.7219992  43.9034990  82.0469997  22.9069992  42.9624990  82.0409997
  22.5294001  43.7042473  82.2937318 114.6859992 122.7434990  13.9729997
 114.9089992 122.3254990  14.8039997 114.0839992 122.1314990  13.5499997
 114.6351513 122.6034617  14.0296722 121.7029992 122.2604990  16.1859997
 121.4069992 122.0954990  15.2899997 122.6339992 122.0404990  16.1749997
 121.7884401 122.2081891  16.0620189 126.3229992 127.6344990  14.0749997
 125.4219992 127.8174990  13.8079997 126.3569992 127.8934990  14.9959997
 126.2043861 127.6945245  14.1629517 132.0539992 119.8784990   2.4429997
 131.4999992 119.4824990   1.7699997 132.1549992 120.7894990   2.1649997
 131.9918589 119.9473904   2.3133839 132.0169992 125.6794990  15.2799997
 131.1659992 125.9174990  14.9119997 132.6079992 125.6624990  14.5259997
 131.9803831 125.7097623  15.1278448 130.3489992 128.6644990   2.9079997
 129.9769992 127.8394990   3.2169997 130.6269992 128.4814990   2.0099997
 130.3355807 128.5267031   2.8290063 127.5099992 123.4724990   9.9289997
 126.5819992 123.2414990   9.9019997 127.9609992 122.6954990   9.5989997
 127.4438165 123.3357785   9.8806772 120.0529992 127.8014990   6.0619997
 120.5799992 128.5744990   5.8619997 119.1729992 128.0254990   5.7599997
 120.0062121 127.9377344   5.9937460 115.8079992 122.6634990   0.6489997
 116.4239992 123.2904990   1.0289997 114.9459992 122.9794990   0.9209997
 115.7757678 122.7919423   0.7377192 121.4799992 125.4644990   5.6379997
 121.2389992 126.3894990   5.6799997 120.7399992 125.0054990   6.0349997
 121.3469463 125.5290969   5.6974279  26.2639992  43.8044990  80.0429997
  27.1959992  43.9334990  80.2209997  26.0489992  44.4734990  79.3939997
  26.3624245  43.9126452  79.9795602 121.9949992 129.6134990  11.9529997
 122.3579992 130.4674990  11.7199997 122.5269992 129.3214990  12.6939997
 122.1165141 129.6908907  12.0212079 120.1629992 130.4854990   5.1839997
 119.2139992 130.5914990   5.2349997 120.5149992 131.3064990   5.5279997
 120.0805647 130.6110029   5.2374882 125.5389992 125.7124990  11.6539997
 125.1129992 125.4844990  12.4799997 126.1199992 124.9734990  11.4719997
 125.5592088 125.5814393  11.7424454 127.7419992 126.6414990   0.7279997
 128.0949992 126.2614990   1.5319997 126.7929992 126.5474990   0.8149997
 127.6620956 126.5767867   0.8498005 128.1979992 130.2644990  14.1229997
 127.5959992 129.7084990  13.6279997 128.4789992 130.9314990  13.4969997
 128.1535757 130.2785755  13.9705657 132.2449992 131.1204990   0.9289997
 132.9889992 131.7064990   0.7889997 131.5509992 131.6894990   1.2619997
 132.2529809 131.2775830   0.9548572 116.3199992 117.4974990  13.5309997
 115.4269992 117.8354990  13.4629997 116.2209992 116.6414990  13.9489997
 116.1844752 117.4280986  13.5781644 128.6079992 125.3134990   2.9549997
 128.3309992 124.5854990   3.5109997 129.5349992 125.4324990   3.1599997
 128.6954419 125.2299436   3.0588264 115.9709992 129.3014990  11.9659997
 116.1879992 128.3694990  11.9349997 116.2179992 129.5764990  12.8489997
 116.0340948 129.2110976  12.0811268 120.7699992 127.3234990   1.6309997
 120.9169992 126.8034990   2.4209997 120.7669992 128.2304990   1.9379997
 120.7897102 127.3748964   1.7805907  32.1879992  41.4104990  86.8239997
  31.5109992  41.5414990  87.4879997  31.7019992  41.2554990  86.0139997
  32.0297265  41.4074665  86.8053380 117.2229992 124.5754990   2.1419997
 116.5369992 124.9284990   2.7089997 117.7459992 125.3384990   1.8949997
 117.1998402 124.7268912   2.1861783 125.0539992 117.2384990  12.4209997
 125.7529992 117.3124990  13.0709997 124.6739992 116.3734990  12.5749997
 125.0982662 117.1317050  12.5307412 125.8389992 116.8904990   3.5179997
 126.0589992 117.3614990   2.7139997 126.3969992 117.2844990   4.1879997
 125.9446044 117.0082946   3.4985207 123.5079992 129.0204990   2.3809997
 122.6909992 129.5174990   2.4329997 124.0369992 129.4964990   1.7399997
 123.4678125 129.1527000   2.3015289 123.0389992 118.6184990   4.3529997
 123.8509992 119.1224990   4.3989997 122.7939992 118.4734990   5.2669997
 123.1171091 118.6679366   4.4828552 123.5749992 119.6044990  13.5369997
 123.6939992 120.1784990  14.2939997 124.2299992 118.9164990  13.6519997
 123.6798684 119.5900205  13.6561656 123.9229992 115.6994990   5.2909997
 123.5759992 116.3164990   5.9349997 124.5809992 116.2004990   4.8089997
 123.9644430 115.8516860   5.3140046 120.8459992 130.0644990   2.3619997
 121.0069992 130.8644990   1.8619997 120.6489992 130.3714990   3.2469997
 120.8413906 130.2153690   2.4132316 119.5799992 116.7624990   1.9779997
 119.4969992 117.6504990   2.3249997 120.4699992 116.4974990   2.2099997
 119.6889331 116.8481177   2.0568067 129.7789992 117.5114990  14.3719997
 128.8629992 117.7734990  14.2849997 130.1149992 117.5084990  13.4759997
 129.6988499 117.5470174  14.2388748  35.4749992  57.0814990  93.1009997
  35.6749992  57.5054990  92.2659997  36.1309992  57.4254990  93.7079997
  35.5909916  57.1859784  93.0687890 128.3809992 121.2614990   8.4679997
 127.5839992 120.8464990   8.1399997 128.8259992 120.5714990   8.9589997
 128.3320367 121.1113372   8.4894897 117.8389992 127.1894990   1.0379997
 118.4309992 127.8894990   1.3149997 118.2979992 126.7564990   0.3189997
 117.9821652 127.2267686   0.9786515 116.1549992 119.8544990   0.1539997
 116.1099992 120.7934990   0.3329997 115.2669992 119.6184990  -0.1150003
 116.0288166 119.9511698   0.1421507 129.4679992 130.5174990  10.0899997
 129.3119992 131.1964990   9.4329997 130.3999992 130.5894990  10.2929997
 129.5727328 130.6201586  10.0275529 116.9629992 114.6354990   8.8269997
 116.7339992 114.6944990   7.8999997 116.5199992 113.8444990   9.1339997
 116.8717387 114.5366412   8.7415223 115.8929992 128.5764990   4.9879997
 115.0609992 129.0484990   5.0149997 116.4389992 129.0864990   4.3889997
 115.8528710 128.7100317   4.9107570 115.1819992 131.1884990  16.3179997
 115.7219992 130.9724990  17.0779997 114.6999992 130.3834990  16.1279997
 115.1908485 131.0500463  16.3964870 119.7789992 130.1084990  17.9379997
 120.5469992 129.6494990  18.2789997 119.7579992 129.8824990  17.0079997
 119.8812135 130.0151680  17.8589473 123.8709992 129.6164990  -0.6870003
 123.2269992 128.9854990  -0.3650003 124.6329992 129.0854990  -0.9180003
 123.8858708 129.4583171  -0.6741539 126.3559992 128.4884990  16.6669997
 126.0049992 127.6314990  16.9099997 127.0819992 128.6304990  17.2739997
 126.4061590 128.3905189  16.7822889  23.0729992  49.5554990  92.7089997
  23.8049992  49.8104990  93.2699997  22.2929992  49.7604990  93.2239997
  23.0677684  49.6181457  92.8554774 128.4749992 129.4334990  -0.4530003
 128.7579992 128.6384990  -0.0000003 129.2149992 129.6664990  -1.0140003
 128.6137295 129.3562349  -0.4668531 115.0889992 124.9994990  17.2719997
 115.2329992 124.0974990  16.9859997 114.3159992 125.2854990  16.7849997
 115.0042266 124.9146548  17.1670102 119.4299992 125.3424990  -0.5950003
 119.4939992 124.5484990  -0.0650003 120.0829992 125.2244990  -1.2850003
 119.5270483 125.2177496  -0.6156593 121.7439992 124.9684990  16.7049997
 121.4159992 125.2394990  15.8479997 121.8959992 124.0274990  16.6169997
 121.7196412 124.8784058  16.5757804 127.4789992 124.8844990  14.0879997
 128.2239992 125.4734990  13.9689997 126.7209992 125.4664990  14.1509997
 127.4785289 125.0437067  14.0802292 115.9209992 122.1994990  16.6919997
 116.3289992 121.3424990  16.5709997 115.6609992 122.2134990  17.6129997
 115.9417082 122.0840596  16.7999469 120.5789992 123.3154990   1.7109997
 120.1199992 122.8314990   2.3959997 120.8339992 122.6464990   1.0749997
 120.5505997 123.1588491   1.7188734 119.8679992 121.2084990  14.0669997
 119.2499992 121.8824990  14.3469997 120.2119992 121.5294990  13.2329997
 119.8298078 121.3442298  13.9926609 121.6499992 121.5584990  -0.0270003
 121.4699992 121.4034990  -0.9540003 122.5999992 121.6664990   0.0179997
 121.7537804 121.5518821  -0.1478034 124.8879992 123.6794990  17.3439997
 125.8409992 123.7634990  17.3169997 124.7279992 122.9674990  17.9629997
 124.9967320 123.5947292  17.4239933  29.1029992  44.9624990  85.4469997
  29.6669992  44.4164990  84.8999997  28.9549992  44.4414990  86.2359997
  29.1603037  44.8171798  85.4787212 131.0399992 123.9124990  -0.5810003
 130.7669992 123.4884990  -1.3940003 131.0799992 124.8444990  -0.7980003
 131.0080201 123.9803523  -0.7216452 120.2079992 118.5634990  15.1489997
 120.3579992 117.8344990  14.5469997 120.2099992 119.3404990  14.5899997
 120.2287967 118.5687720  14.9910523 120.6199992 116.9324990  12.6419997
 121.1559992 117.3844990  11.9899997 119.7679992 116.8244990  12.2189997
 120.5781795 116.9797444  12.4956211 122.2019992 122.3724990  12.8809997
 122.9529992 122.2164990  12.3079997 121.8629992 123.2244990  12.6059997
 122.2589587 122.4663149  12.7654060 126.6179992 120.1874990  17.9099997
 126.8099992 119.2564990  17.7979997 127.4749992 120.6124990  17.8989997
 126.7602176 120.1175090  17.8931757 127.9339992 122.9764990  15.9869997
 127.6529992 123.6854990  15.4089997 128.8769992 122.9034990  15.8359997
 128.0229272 123.0636704  15.8874976 118.6859992 119.7614990  17.0599997
 117.9189992 119.2284990  16.8499997 119.3649992 119.4514990  16.4609997
 118.6728292 119.6466360  16.9502693 121.4259992 114.3894990  13.0729997
 121.3279992 115.3354990  12.9679997 120.6829992 114.0164990  12.5969997
 121.3122123 114.4686811  12.9943204 122.6899992 118.7104990  16.6369997
 122.4539992 118.4914990  17.5379997 121.9069992 118.5034990  16.1269997
 122.5518382 118.6525340  16.6913991 125.4059992 117.8384990  15.7119997
 124.4579992 117.8704990  15.8439997 125.7179992 117.2124990  16.3659997
 125.3185293 117.7582934  15.8184130  24.1049992  41.0994990  81.8649997
  23.7869992  40.1964990  81.8299997  24.8859992  41.1014990  81.3129997
  24.1671560  40.9761148  81.7854975 127.0399992 116.4724990  17.7169997
 126.9429992 115.5204990  17.7119997 126.7179992 116.7404990  18.5779997
 126.9832468 116.3785896  17.8326192 116.8669992 117.6814990  16.7649997
 117.0779992 116.9754990  16.1549997 116.7549992 117.2444990  17.6089997
 116.8807668 117.5256619  16.7955445 121.6479992 113.6834990  15.7439997
 122.3589992 113.0434990  15.7299997 121.5469992 113.9494990  14.8309997
 121.7316858 113.6318591  15.6185501 122.0009992 115.3654990  17.7979997
 121.8699992 114.8904990  16.9779997 121.4019992 116.1104990  17.7429997
 121.9020829 115.4010949  17.6781823 121.5479992 132.2484990   0.9739997
 122.4809992 132.4064990   1.1179997 121.2829992 132.9244990   0.3489997
 121.6399846 132.3614567   0.9092930 115.1159992 126.8854990   0.4569997
 116.0299992 126.9644990   0.7299997 115.1229992 126.1984990  -0.2090003
 115.2420624 126.8034074   0.4043045 113.7649992 132.2784990   5.5339997
 113.1179992 131.8164990   5.0019997 114.1199992 131.6064990   6.1169997
 113.7243741 132.1244785   5.5399157 114.6349992 130.3584990   7.3389997
 114.3009992 129.4784990   7.5109997 114.8569992 130.7044990   8.2039997
 114.6192565 130.2847410   7.4794263 132.1839992 131.1684990  10.3199997
 132.1619992 131.3534990  11.2579997 132.8739992 131.7364990   9.9789997
 132.2743383 131.2707104  10.4024580 131.7469992 130.7354990  13.2409997
 131.2599992 129.9994990  12.8699997 132.2959992 130.3414990  13.9189997
 131.7546101 130.5816267  13.2819034  27.7289992  43.3514990  87.8609997
  26.8939992  43.8054990  87.9709997  28.2529992  43.6274990  88.6129997
  27.6855070  43.4509677  87.9777134 130.1979992 126.5254990  17.8789997
 129.3319992 126.4204990  18.2739997 130.5739992 127.2834990  18.3259997
 130.1304940 126.6136141  17.9933958 131.4989992 124.7814990   3.3939997
 132.3489992 125.2024990   3.5209997 131.5039992 124.0414990   4.0009997
 131.6161143 124.7391106   3.4934732 131.8929992 122.8354990   5.2169997
 131.1669992 122.3554990   5.6149997 132.4739992 123.0404990   5.9489997
 131.8722504 122.7975592   5.3704199 131.6519992 125.6204990  10.1649997
 132.4859992 125.2424990   9.8839997 131.7639992 126.5634990  10.0459997
 131.7811917 125.6962954  10.1104844 130.1379992 128.4984990  12.4719997
 129.4909992 128.8234990  13.0969997 129.6209992 128.0574990  11.7979997
 129.9794112 128.4834133  12.4665272 132.1609992 122.7364990   1.6079997
 131.6399992 123.0924990   0.8899997 132.1279992 123.4114990   2.2869997
 132.0850955 122.8765023   1.6012634 130.5099992 119.9754990   0.1589997
 130.6069992 120.6424990  -0.5210003 130.3699992 119.1604990  -0.3220003
 130.5043407 119.9565670   0.0008312 129.6799992 121.3564990   5.7799997
 129.5299992 120.4114990   5.7599997 129.3259992 121.6374990   6.6239997
 129.6116351 121.2651656   5.8913202 114.7149992 123.4344990   9.7909997
 114.8989992 123.3524990   8.8549997 115.5639992 123.3104990  10.2139997
 114.8550132 123.4065066   9.7201460 130.5359992 123.3264990  15.4189997
 131.1189992 122.5914990  15.6109997 131.0999992 124.0984990  15.4659997
 130.6919781 123.3303156  15.4516146  28.2729992  49.5644990  79.5459997
  27.5279992  49.0564990  79.2229997  28.1389992  49.6134990  80.4919997
  28.1528633  49.5015714  79.6297563 132.0329992 121.2294990  16.1039997
 131.1689992 120.8504990  15.9379997 132.6369992 120.4904990  16.0289997
 131.9965394 121.0778378  16.0711778 129.3899992 118.9384990   4.2429997
 129.6699992 118.0314990   4.3669997 130.1489992 119.3724990   3.8539997
 129.5309258 118.8730935   4.2073691 130.0019992 119.5204990   9.6789997
 130.9349992 119.7324990   9.6439997 129.7669992 119.6214990  10.6009997
 130.0979517 119.5631844   9.7989113 130.0309992 120.2574990  12.4549997
 129.1879992 120.5254990  12.8199997 130.4739992 121.0794990  12.2439997
 129.9754035 120.4053351  12.4764770 114.3119992 118.7044990  15.9309997
 115.2319992 118.5824990  16.1679997 113.8629992 117.9544990  16.3209997
 114.3770500 118.5864576  16.0161016 132.3139992 114.2374990  17.8079997
 132.6639992 113.5834990  17.2019997 132.4609992 115.0744990  17.3679997
 132.3817192 114.2612545  17.6656712 130.0039992 116.2014990   4.2909997
 130.1859992 115.7524990   5.1159997 129.4039992 115.6174990   3.8269997
 129.9478187 116.0610563   4.3412721 115.5339992 117.0174990   8.8229997
 115.9789992 116.2254990   9.1249997 115.9999992 117.7334990   9.2529997
 115.6579718 117.0059546   8.9225247 113.8379992 120.0164990   9.8919997
 114.3299992 119.7954990   9.1009997 114.1999992 120.8564990  10.1729997
 113.9542923 120.0998480   9.8217389 131.8339992 116.3464990  16.1569997
 130.9169992 116.6174990  16.1209997 131.9569992 115.8114990  15.3729997
 131.7250828 116.3112711  16.0460767  35.4229992  48.6974990  88.3319997
  36.0649992  49.1534990  87.7889997  34.5929992  48.8104990  87.8699997
  35.3987352  48.7753223  88.1950234 131.8699992 116.2694990   0.8189997
 132.2829992 115.5484990   0.3439997 132.5519992 116.9384990   0.8769997
 132.0186060 116.2613741   0.7619233 114.1509992 116.2744990   3.9459997
 113.2259992 116.4824990   3.8169997 114.6049992 116.7584990   3.2559997
 114.0856298 116.3684311   3.8350433 128.9219992 131.2584990   5.8919997
 129.5739992 130.9104990   5.2839997 129.4329992 131.7464990   6.5379997
 129.0802872 131.2768248   5.8960964 114.1149992 115.0124990  12.2899997
 113.4499992 114.7664990  12.9329997 113.6719992 115.6344990  11.7129997
 113.9641168 115.0629225  12.2999830 116.3069992 128.1874990  16.4349997
 115.4859992 128.3624990  15.9739997 116.0549992 128.1144990  17.3549997
 116.1605594 128.2015728  16.4963593 119.2609992 129.1614990  12.6929997
 118.8359992 129.9714990  12.4109997 120.1649992 129.2474990  12.3909997
 119.3250706 129.2839557  12.6135836 123.5719992 130.5604990  15.6529997
 123.7569992 130.2274990  16.5309997 124.4189992 130.8704990  15.3309997
 123.7117291 130.5568214  15.7296140 125.9169992 131.8464990  14.8969997
 126.5939992 131.2134990  14.6569997 126.2389992 132.2474990  15.7039997
 126.0531618 131.8141147  14.9732802 130.8349992 114.4364990  13.9759997
 130.0219992 114.7614990  13.5889997 131.0679992 113.6754990  13.4429997
 130.7551347 114.3781891  13.8509824 116.6629992 132.4184990  12.7409997
 115.9419992 132.8584990  12.2899997 116.2969992 132.1674990  13.5889997
 116.5149632 132.4447235  12.7939649  29.7929992  49.7484990  90.7829997
  29.4469992  49.3664990  91.5889997  29.5929992  50.6814990  90.8539997
  29.7185399  49.8223489  90.9030401 119.1299992 132.0184990  11.7699997
 118.2649992 132.0904990  12.1739997 119.0749992 132.5654990  10.9869997
 119.0042290 132.1023242  11.7193749 123.8409992 131.9064990  10.9459997
 123.3839992 132.4354990  10.2919997 124.0029992 132.5094990  11.6709997
 123.8003919 132.0603990  10.9545740 126.1679992 130.7844990  11.8909997
 125.2639992 130.9494990  11.6249997 126.5969992 131.6374990  11.8249997
 126.1022017 130.9224184  11.8456495 128.7719992 132.3544990  12.1859997
 128.5909992 133.2704990  11.9749997 128.9489992 131.9434990  11.3389997
 128.7711377 132.4243365  12.0427178 116.0779992 131.0414990   9.6509997
 116.0589992 130.6154990  10.5079997 116.8819992 130.7224990   9.2419997
 116.1841393 130.9400297   9.7130155 118.2189992 129.7514990   8.3059997
 117.9999992 128.8344990   8.4759997 119.0429992 129.8914990   8.7719997
 118.3004702 129.6450523   8.3922510 120.7559992 130.2214990   9.1549997
 120.9689992 129.3334990   8.8679997 120.8209992 130.1864990  10.1089997
 120.7939149 130.0953338   9.2447351 124.2649992 115.8854990   8.2989997
 123.5899992 115.2554990   8.5549997 124.8289992 115.4014990   7.6959997
 124.2489363 115.7338886   8.2524810 129.4069992 113.9924990   8.4119997
 130.0109992 114.5404990   7.9099997 128.5379992 114.3114990   8.1709997
 129.3720419 114.1105628   8.3107741 131.1339992 115.1314990   6.7449997
 131.7459992 114.6174990   6.2179997 131.5169992 116.0084990   6.7679997
 131.2693867 115.1797613   6.6760888  32.8889992  44.2454990  79.4059997
  33.7809992  44.1074990  79.7249997  32.9459992  45.0364990  78.8689997
  33.0187380  44.3334777  79.3770981 116.5909992 114.5194990   6.1209997
 115.8139992 114.2844990   5.6139997 117.1219992 113.7224990   6.1299997
 116.5563735 114.3796462   6.0528090 115.4279992 114.3174990   1.9249997
 115.8669992 114.9284990   1.3329997 114.7939992 114.8554990   2.3989997
 115.4023859 114.4739076   1.9080287 121.1709992 114.4454990   5.9339997
 122.0449992 114.8344990   5.9049997 121.0349992 114.2304990   6.8569997
 121.2721953 114.4696654   6.0547599 126.7269992 114.4754990   7.5839997
 126.8039992 114.5714990   6.6339997 126.4519992 113.5684990   7.7119997
 126.7003233 114.3659093   7.4713665 128.0809992 114.5014990   3.2759997
 127.3779992 115.1164990   3.0659997 127.6359992 113.6644990   3.4069997
 127.9246550 114.4724679   3.2649819 115.3289992 130.2654990   2.8219997
 114.6439992 130.2274990   2.1549997 115.3319992 131.1774990   3.1099997
 115.2356806 130.3836669   2.7696961 117.2889992 116.2334990   0.3669997
 117.7799992 115.6034990  -0.1600003 117.9119992 116.5294990   1.0299997
 117.4405304 116.1872387   0.3844922 122.3149992 116.5264990   2.8239997
 122.4929992 115.8794990   3.5069997 122.2609992 117.3604990   3.2909997
 122.3320678 116.5506615   2.9806283 124.1929992 131.4744990   1.2199997
 125.0589992 131.8414990   1.0419997 123.9459992 131.0354990   0.4059997
 124.2781853 131.4654021   1.0855813 130.9019992 131.0374990   3.8989997
 130.7079992 130.2894990   3.3339997 130.8629992 131.7954990   3.3159997
 130.8701645 131.0375797   3.7428131  23.3979992  48.8594990  85.3149997
  24.1429992  48.8564990  84.7139997  23.4759992  48.0354990  85.7969997
  23.5104158  48.7477928  85.2979136 116.5489992 115.0334990  15.6389997
 116.1829992 114.2674990  16.0809997 117.4619992 115.0624990  15.9249997
 116.6223172 114.9325335  15.7381872 118.5219992 114.3834990  17.1739997
 119.4209992 114.1094990  16.9899997 118.1359992 113.6414990  17.6389997
 118.5927307 114.2457207  17.2117080 117.1469992 131.1854990  -0.1530003
 116.8789992 131.4714990   0.7209997 117.9179992 130.6394990  -0.0000003
 117.2145926 131.1507790  -0.0128812 126.9429992 113.7164990  17.3569997
 127.0199992 113.2904990  18.2099997 127.8369992 113.7294990  17.0139997
 127.0743263 113.6599345  17.4274366 130.1199992 129.7884990  16.0489997
 129.3379992 129.6024990  15.5289997 130.0479992 130.7184990  16.2659997
 130.0032975 129.8886973  16.0071822 135.8269992 122.5444990  11.0919997
 135.8679992 121.9194990  11.8149997 136.5299992 123.1684990  11.2739997
 135.9276223 122.5432318  11.2156164 136.7509992 126.9944990   9.6269997
 136.3809992 126.1924990   9.2569997 137.6919992 126.8264990   9.6729997
 136.8275984 126.8619649   9.5825586 133.3609992 120.6544990   5.0189997
 132.9129992 121.5004990   5.0009997 132.7999992 120.0754990   4.5039997
 133.2238546 120.6919004   4.9468874 134.0709992 122.8164990   7.1449997
 134.2849992 122.0464990   7.6719997 134.8089992 122.9064990   6.5419997
 134.2000073 122.7233546   7.1355786 138.1439992 117.8584990   7.5049997
 138.1869992 118.7184990   7.0859997 137.6859992 117.3054990   6.8709997
 138.0880163 117.9014174   7.3620604  30.3989992  51.0224990  78.5709997
  30.1039992  51.8494990  78.9529997  29.6959992  50.4034990  78.7669997
  30.2635855  51.0519458  78.6497634 134.7639992 120.2554990   8.2669997
 135.4179992 119.7054990   8.6989997 134.7879992 119.9814990   7.3499997
 134.8567199 120.1432178   8.2021650 136.9539992 116.7764990  11.5789997
 136.7349992 117.3064990  10.8119997 136.2859992 117.0024990  12.2259997
 136.8336975 116.8795979  11.5615123 139.5229992 124.4514990  11.8659997
 138.7829992 125.0504990  11.9699997 140.2369992 125.0054990  11.5499997
 139.5183146 124.6082611  11.8375150 136.5479992 118.6684990   9.5309997
 137.1609992 119.3014990   9.9039997 137.0599992 118.1964990   8.8749997
 136.7011933 118.6913380   9.4933477 137.9299992 126.4164990  12.6529997
 137.9249992 127.2954990  12.2749997 137.0769992 126.3324990  13.0779997
 137.8139199 126.5255901  12.6586942 134.0519992 126.0874990   3.4349997
 133.7799992 126.3164990   2.5459997 134.0969992 126.9244990   3.8959997
 134.0208360 126.2321034   3.3756186 138.2979992 123.7594990   6.3659997
 137.9679992 123.3884990   5.5479997 138.8859992 123.0884990   6.7129997
 138.3323182 123.6180648   6.3009898 138.6649992 122.5274990   9.9989997
 139.2299992 122.6494990   9.2369997 138.9829992 123.1654990  10.6379997
 138.7853619 122.6304388   9.9810019 139.5449992 126.9274990  14.7169997
 139.2329992 127.7094990  15.1719997 138.8949992 126.7744990  14.0309997
 139.4144858 127.0137882  14.6865344 136.4649992 123.1254990  13.9449997
 136.5349992 123.7764990  14.6439997 135.5739992 123.2284990  13.6099997
 136.3541690 123.2284261  13.9953026  20.4059992  47.3194990  90.6299997
  20.6289992  46.9014990  91.4619997  19.8039992  46.7074990  90.2079997
  20.3550802  47.1795216  90.6867561 137.7839992 128.9984990  15.4799997
 137.7919992 128.8624990  14.5329997 136.8679992 128.8814990  15.7319997
 137.6612528 128.9640475  15.3843226 137.2879992 122.8284990   3.9549997
 136.9959992 123.5964990   3.4639997 136.6139992 122.1694990   3.7919997
 137.1568843 122.8444537   3.8657695 133.3809992 125.1914990  12.7699997
 132.8799992 125.1634990  11.9549997 133.3869992 124.2864990  13.0799997
 133.3131690 125.0652234  12.7002770 133.1319992 127.9724990   9.6539997
 134.0779992 127.8274990   9.6349997 133.0189992 128.7564990  10.1909997
 133.2463578 128.0586708   9.7240300 136.3759992 130.7734990   5.7999997
 136.5279992 130.4254990   6.6779997 135.5249992 130.4164990   5.5439997
 136.2818344 130.6775891   5.8856851 135.6299992 126.5154990  13.8129997
 135.8459992 126.1534990  14.6729997 134.7749992 126.1404990  13.6039997
 135.5439082 126.4153377  13.9022396 138.2489992 114.9854990   9.8089997
 137.3869992 114.8984990   9.4009997 138.2269992 115.8414990  10.2369997
 138.1280557 115.0893078   9.8110202 138.3399992 119.9504990  10.9039997
 137.6979992 119.9104990  11.6129997 138.3769992 120.8774990  10.6659997
 138.2571659 120.0702540  10.9688463 138.3369992 120.1714990   5.8159997
 137.4439992 119.8314990   5.7569997 138.7879992 119.7944990   5.0599997
 138.2757185 120.0740220   5.7057698 136.0899992 120.2714990  12.7709997
 136.0519992 120.6714990  13.6399997 135.5989992 119.4544990  12.8609997
 136.0184374 120.2158228  12.9020980  27.4229992  46.8364990  92.8429997
  27.1269992  46.6714990  91.9479997  28.3539992  46.6164990  92.8329997
  27.5083909  46.7841274  92.7190110 139.4559992 117.6454990  -0.4300003
 139.0249992 117.2004990   0.2989997 138.7379992 118.0164990  -0.9430003
 139.2999176 117.6347063  -0.3995087 132.6979992 117.3874990   6.6219997
 133.3289992 117.3584990   7.3409997 133.1479992 116.9624990   5.8909997
 132.8451082 117.3261269   6.6216307 133.9719992 118.1334990   2.0459997
 134.4469992 118.7244990   1.4609997 133.2549992 118.6634990   2.3929997
 133.9400406 118.2861011   2.0128495 135.7469992 119.2284990   5.7289997
 134.8579992 119.3274990   5.3889997 136.0429992 118.3864990   5.3829997
 135.6654001 119.1282473   5.6357318 139.3999992 119.2284990   3.3859997
 140.3319992 119.3574990   3.5639997 139.1849992 119.8974990   2.7359997
 139.4984472 119.3365817   3.3224873 138.0739992 120.4224990   0.9519997
 137.5319992 120.0434990   0.2609997 138.9079992 120.6174990   0.5239997
 138.1124390 120.3969091   0.7994374 136.2089992 124.9794990  16.0509997
 136.9409992 125.2344990  16.6129997 135.4289992 125.1844990  16.5669997
 136.2036526 125.0420438  16.1975168 137.2409992 116.5234990   5.2079997
 136.9229992 115.6204990   5.1719997 138.0219992 116.5254990   4.6549997
 137.3031079 116.4002240   5.1282908 136.5339992 124.2834990   8.6579997
 137.2789992 124.2804990   8.0559997 136.6119992 123.4594990   9.1389997
 136.6463365 124.1717395   8.6407412 133.5419992 122.7434990  13.9729997
 133.7649992 122.3254990  14.8039997 132.9399992 122.1314990  13.5499997
 133.4911513 122.6034617  14.0296722  32.0429992  52.2104990  90.7329997
  31.1419992  52.3934990  90.4649997  32.0769992  52.4694990  91.6539997
  31.9243021  52.2705505  90.8208206 138.9089992 127.8014990   6.0619997
 139.4359992 128.5744990   5.8619997 138.0289992 128.0254990   5.7599997
 138.8622121 127.9377344   5.9937460 134.6639992 122.6634990   0.6489997
 135.2799992 123.2904990   1.0289997 133.8019992 122.9794990   0.9209997
 134.6317678 122.7919423   0.7377192 139.0189992 130.4854990   5.1839997
 138.0699992 130.5914990   5.2349997 139.3709992 131.3064990   5.5279997
 138.9365647 130.6110029   5.2374882 135.1759992 117.4974990  13.5309997
 134.2829992 117.8354990  13.4629997 135.0769992 116.6414990  13.9489997
 135.0404752 117.4280986  13.5781644 134.8269992 129.3014990  11.9659997
 135.0439992 128.3694990  11.9349997 135.0739992 129.5764990  12.8489997
 134.8900948 129.2110976  12.0811268 136.0789992 124.5754990   2.1419997
 135.3929992 124.9284990   2.7089997 136.6019992 125.3384990   1.8949997
 136.0558402 124.7268912   2.1861783 138.4359992 116.7624990   1.9779997
 138.3529992 117.6504990   2.3249997 139.3259992 116.4974990   2.2099997
 138.5449331 116.8481177   2.0568067 136.6949992 127.1894990   1.0379997
 137.2869992 127.8894990   1.3149997 137.1539992 126.7564990   0.3189997
 136.8381652 127.2267686   0.9786515 135.0109992 119.8544990   0.1539997
 134.9659992 120.7934990   0.3329997 134.1229992 119.6184990  -0.1150003
 134.8848166 119.9511698   0.1421507 135.8189992 114.6354990   8.8269997
 135.5899992 114.6944990   7.8999997 135.3759992 113.8444990   9.1339997
 135.7277387 114.5366412   8.7415223  37.7739992  44.4544990  79.0999997
  37.2199992  44.0584990  78.4279997  37.8749992  45.3654990  78.8229997
  37.7117084  44.5233565  78.9704381 134.7489992 128.5764990   4.9879997
 133.9169992 129.0484990   5.0149997 135.2949992 129.0864990   4.3889997
 134.7088710 128.7100317   4.9107570 134.0379992 131.1884990  16.3179997
 134.5779992 130.9724990  17.0779997 133.5559992 130.3834990  16.1279997
 134.0468485 131.0500463  16.3964870 138.6349992 130.1084990  17.9379997
 139.4029992 129.6494990  18.2789997 138.6139992 129.8824990  17.0079997
 138.7372135 130.0151680  17.8589473 133.9449992 124.9994990  17.2719997
 134.0889992 124.0974990  16.9859997 133.1719992 125.2854990  16.7849997
 133.8602266 124.9146548  17.1670102 138.2859992 125.3424990  -0.5950003
 138.3499992 124.5484990  -0.0650003 138.9389992 125.2244990  -1.2850003
 138.3830483 125.2177496  -0.6156593 134.7769992 122.1994990  16.6919997
 135.1849992 121.3424990  16.5709997 134.5169992 122.2134990  17.6129997
 134.7977082 122.0840596  16.7999469 139.4349992 123.3154990   1.7109997
 138.9759992 122.8314990   2.3959997 139.6899992 122.6464990   1.0749997
 139.4065997 123.1588491   1.7188734 138.7239992 121.2084990  14.0669997
 138.1059992 121.8824990  14.3469997 139.0679992 121.5294990  13.2329997
 138.6858078 121.3442298  13.9926609 139.0639992 118.5634990  15.1489997
 139.2139992 117.8344990  14.5469997 139.0659992 119.3404990  14.5899997
 139.0847967 118.5687720  14.9910523 139.4759992 116.9324990  12.6419997
 140.0119992 117.3844990  11.9899997 138.6239992 116.8244990  12.2189997
 139.4341795 116.9797444  12.4956211  37.7369992  50.2554990  91.9369997
  36.8859992  50.4934990  91.5699997  38.3279992  50.2384990  91.1839997
  37.7002468  50.2858251  91.7848902 137.5419992 119.7614990  17.0599997
 136.7749992 119.2284990  16.8499997 138.2209992 119.4514990  16.4609997
 137.5288292 119.6466360  16.9502693 135.7229992 117.6814990  16.7649997
 135.9339992 116.9754990  16.1549997 135.6109992 117.2444990  17.6089997
 135.7367668 117.5256619  16.7955445 133.9719992 126.8854990   0.4569997
 134.8859992 126.9644990   0.7299997 133.9789992 126.1984990  -0.2090003
 134.0980624 126.8034074   0.4043045 132.6209992 132.2784990   5.5339997
 131.9739992 131.8164990   5.0019997 132.9759992 131.6064990   6.1169997
 132.5803741 132.1244785   5.5399157 133.4909992 130.3584990   7.3389997
 133.1569992 129.4784990   7.5109997 133.7129992 130.7044990   8.2039997
 133.4752565 130.2847410   7.4794263 133.5709992 123.4344990   9.7909997
 133.7549992 123.3524990   8.8549997 134.4199992 123.3104990  10.2139997
 133.7110132 123.4065066   9.7201460 133.1679992 118.7044990  15.9309997
 134.0879992 118.5824990  16.1679997 132.7189992 117.9544990  16.3209997
 133.2330500 118.5864576  16.0161016 134.3899992 117.0174990   8.8229997
 134.8349992 116.2254990   9.1249997 134.8559992 117.7334990   9.2529997
 134.5139718 117.0059546   8.9225247 132.6939992 120.0164990   9.8919997
 133.1859992 119.7954990   9.1009997 133.0559992 120.8564990  10.1729997
 132.8102923 120.0998480   9.8217389 133.0069992 116.2744990   3.9459997
 132.0819992 116.4824990   3.8169997 133.4609992 116.7584990   3.2559997
 132.9416298 116.3684311   3.8350433  36.0689992  53.2404990  79.5649997
  35.6969992  52.4154990  79.8749997  36.3469992  53.0574990  78.6679997
  36.0555997  53.1026160  79.4861551 132.9709992 115.0124990  12.2899997
 132.3059992 114.7664990  12.9329997 132.5279992 115.6344990  11.7129997
 132.8201168 115.0629225  12.2999830 135.1629992 128.1874990  16.4349997
 134.3419992 128.3624990  15.9739997 134.9109992 128.1144990  17.3549997
 135.0165594 128.2015728  16.4963593 138.1169992 129.1614990  12.6929997
 137.6919992 129.9714990  12.4109997 139.0209992 129.2474990  12.3909997
 138.1810706 129.2839557  12.6135836 135.5189992 132.4184990  12.7409997
 134.7979992 132.8584990  12.2899997 135.1529992 132.1674990  13.5889997
 135.3709632 132.4447235  12.7939649 137.9859992 132.0184990  11.7699997
 137.1209992 132.0904990  12.1739997 137.9309992 132.5654990  10.9869997
 137.8602289 132.1023242  11.7193749 134.9339992 131.0414990   9.6509997
 134.9149992 130.6154990  10.5079997 135.7379992 130.7224990   9.2419997
 135.0401393 130.9400297   9.7130155 137.0749992 129.7514990   8.3059997
 136.8559992 128.8344990   8.4759997 137.8989992 129.8914990   8.7719997
 137.1564702 129.6450523   8.3922510 135.4469992 114.5194990   6.1209997
 134.6699992 114.2844990   5.6139997 135.9779992 113.7224990   6.1299997
 135.4123735 114.3796462   6.0528090 134.2839992 114.3174990   1.9249997
 134.7229992 114.9284990   1.3329997 133.6499992 114.8554990   2.3989997
 134.2583859 114.4739076   1.9080287 134.1849992 130.2654990   2.8219997
 133.4999992 130.2274990   2.1549997 134.1879992 131.1774990   3.1099997
 134.0916806 130.3836669   2.7696961  33.2299992  48.0484990  86.5869997
  32.3019992  47.8174990  86.5599997  33.6809992  47.2714990  86.2569997
  33.1638165  47.9117785  86.5386772 136.1449992 116.2334990   0.3669997
 136.6359992 115.6034990  -0.1600003 136.7679992 116.5294990   1.0299997
 136.2965304 116.1872387   0.3844922 135.4049992 115.0334990  15.6389997
 135.0389992 114.2674990  16.0809997 136.3179992 115.0624990  15.9249997
 135.4783172 114.9325335  15.7381872 137.3779992 114.3834990  17.1739997
 138.2769992 114.1094990  16.9899997 136.9919992 113.6414990  17.6389997
 137.4487307 114.2457207  17.2117080 136.0029992 131.1854990  -0.1530003
 135.7349992 131.4714990   0.7209997 136.7739992 130.6394990  -0.0000003
 136.0705926 131.1507790  -0.0128812  18.5189992 135.8204990  10.7649997
  18.5679992 136.4304990  11.5009997  18.9449992 136.2814990  10.0419997
  18.5832851 135.9663266  10.7680532  12.9969992 138.6124990  10.2319997
  13.1389992 137.6664990  10.2519997  12.8909992 138.8194990   9.3039997
  13.0021051 138.5109706  10.1092249   6.1519992 136.7144990   7.5049997
   6.1949992 137.5744990   7.0859997   5.6939992 136.1614990   6.8709997
   6.0960163 136.7574174   7.3620604  13.8739992 136.8454990   5.9049997
  14.5199992 136.5164990   6.5299997  14.3839992 137.3624990   5.2829997
  14.0314289 136.8704333   5.9063681   2.7719992 139.1114990   8.2669997
   3.4259992 138.5614990   8.6989997   2.7959992 138.8374990   7.3499997
   2.8647199 138.9992178   8.2021650  18.9109992 137.2984990  13.0009997
  18.2219992 137.9564990  12.9059997  18.9259992 137.1004990  13.9379997
  18.8187756 137.3617614  13.1145795  25.7729992  52.3774990  82.7199997
  26.2999992  53.1504990  82.5189997  24.8929992  52.6014990  82.4179997
  25.7261793  52.5136652  82.6516304   4.9619992 135.6324990  11.5789997
   4.7429992 136.1624990  10.8119997   4.2939992 135.8584990  12.2259997
   4.8416975 135.7355979  11.5615123  15.6379992 136.1364990   7.8859997
  15.4229992 135.3704990   8.4189997  16.2939992 136.6084990   8.3989997
  15.6972673 136.0955739   8.0281972   4.5559992 137.5244990   9.5309997
   5.1689992 138.1574990   9.9039997   5.0679992 137.0524990   8.8749997
   4.7091933 137.5473380   9.4933477  15.9849992 134.8514990  11.5649997
  15.2489992 135.4614990  11.5279997  16.6689992 135.2664990  11.0389997
  15.9765367 134.9912562  11.4888156   8.9879992 132.9374990   9.0309997
   8.8709992 131.9894990   8.9769997   8.1329992 133.2704990   9.3039997
   8.8563691 132.8525842   9.0605072  17.2299992 132.8974990   1.9809997
  16.3299992 133.0354990   2.2769997  17.4819992 133.7284990   1.5799997
  17.1407727 133.0288705   1.9672935  16.4889992 138.9874990  15.8169997
  16.0819992 139.4674990  15.0959997  16.5299992 138.0814990  15.5089997
  16.4388403 138.9307989  15.6767253   6.2569992 133.8414990   9.8089997
   5.3949992 133.7544990   9.4009997   6.2349992 134.6974990  10.2369997
   6.1360557 133.9453078   9.8110202  10.9199992 133.5634990  13.1839997
  11.3399992 133.1484990  13.9369997   9.9869992 133.3844990  13.3009997
  10.8513736 133.4824921  13.3028950  14.2459992 137.3184990  14.0369997
  13.7319992 137.1934990  14.8349997  14.0909992 138.2314990  13.7929997
  14.1547802 137.4247433  14.1131504  27.1999992  50.0404990  82.2959997
  26.9589992  50.9654990  82.3379997  26.4599992  49.5814990  82.6919997
  27.0668934  50.1050881  82.3553191  10.5819992 136.0554990   0.4689997
  10.3279992 136.0744990   1.3909997  10.3249992 135.1844990   0.1669997
  10.5124508 135.9403292   0.5544786   6.3479992 138.8064990  10.9039997
   5.7059992 138.7664990  11.6129997   6.3849992 139.7334990  10.6659997
   6.2651659 138.9262540  10.9688463   6.3449992 139.0274990   5.8159997
   5.4519992 138.6874990   5.7569997   6.7959992 138.6504990   5.0599997
   6.2837185 138.9300220   5.7057698  11.8809992 139.4434990   4.6329997
  11.4719992 140.2584990   4.3409997  12.6009992 139.3034990   4.0189997
  11.9224439 139.5360383   4.5100098  12.8849992 138.8894990   7.4469997
  12.6899992 139.4954990   6.7319997  13.0669992 138.0564990   7.0129997
  12.8829195 138.8597936   7.2904079   4.0979992 139.1274990  12.7709997
   4.0599992 139.5274990  13.6399997   3.6069992 138.3104990  12.8609997
   4.0264374 139.0718228  12.9020980   7.4639992 136.5014990  -0.4300003
   7.0329992 136.0564990   0.2989997   6.7459992 136.8724990  -0.9430003
   7.3079176 136.4907063  -0.3995087   0.7059992 136.2434990   6.6219997
   1.3369992 136.2144990   7.3409997   1.1559992 135.8184990   5.8909997
   0.8531082 136.1821269   6.6216307   1.9799992 136.9894990   2.0459997
   2.4549992 137.5804990   1.4609997   1.2629992 137.5194990   2.3929997
   1.9480406 137.1421011   2.0128495   8.9269992 136.4554990   6.9019997
   8.0159992 136.5124990   7.1909997   9.4319992 136.3954990   7.7129997
   8.8706873 136.4551838   7.0511190  27.7149992  54.1894990  88.6109997
  28.0779992  55.0434990  88.3779997  28.2469992  53.8974990  89.3519997
  27.8365141  54.2668907  88.6792079   3.7549992 138.0844990   5.7289997
   2.8659992 138.1834990   5.3889997   4.0509992 137.2424990   5.3829997
   3.6734001 137.9842473   5.6357318   7.4079992 138.0844990   3.3859997
   8.3399992 138.2134990   3.5639997   7.1929992 138.7534990   2.7359997
   7.5064472 138.1925817   3.3224873  13.3319992 135.6904990  10.1659997
  12.6549992 135.8214990  10.8299997  12.8459992 135.5354990   9.3559997
  13.1737265 135.6874665  10.1473380   6.0819992 139.2784990   0.9519997
   5.5399992 138.8994990   0.2609997   6.9159992 139.4734990   0.5239997
   6.1204390 139.2529091   0.7994374  10.2469992 139.2424990   8.7889997
  10.8109992 138.6964990   8.2419997  10.0989992 138.7214990   9.5779997
  10.3043037 139.0971798   8.8207212   5.2489992 135.3794990   5.2079997
   4.9309992 134.4764990   5.1719997   6.0299992 135.3814990   4.6549997
   5.3111079 135.2562240   5.1282908   8.8729992 137.6314990  11.2029997
   8.0379992 138.0854990  11.3139997   9.3969992 137.9074990  11.9549997
   8.8296072 137.7308960  11.3198118  13.3149992 136.6584990   1.0869997
  12.3759992 136.7694990   0.9359997  13.6119992 137.5144990   1.3939997
  13.2266136 136.7894977   1.1078568  14.0329992 138.5254990   2.7479997
  14.9249992 138.3874990   3.0669997  14.0899992 139.3164990   2.2109997
  14.1627380 138.6134777   2.7190981  18.9179992 138.7344990   2.4429997
  18.3639992 138.3384990   1.7699997  19.0189992 139.6454990   2.1649997
  18.8558589 138.8033904   2.3133839  25.8829992  55.0614990  81.8409997
  24.9339992  55.1674990  81.8929997  26.2349992  55.8824990  82.1859997
  25.8006214  55.1869361  81.8947317   3.1839992 136.3534990  13.5309997
   2.2909992 136.6914990  13.4629997   3.0849992 135.4974990  13.9489997
   3.0484752 136.2840986  13.5781644  11.9179992 136.0944990  12.4209997
  12.6169992 136.1684990  13.0709997  11.5379992 135.2294990  12.5749997
  11.9622662 135.9877050  12.5307412  12.7029992 135.7464990   3.5179997
  12.9229992 136.2174990   2.7139997  13.2609992 136.1404990   4.1879997
  12.8086044 135.8642946   3.4985207   9.9029992 137.4744990   4.3529997
  10.7149992 137.9784990   4.3989997   9.6579992 137.3294990   5.2669997
   9.9811091 137.5239366   4.4828552  10.4389992 138.4604990  13.5369997
  10.5579992 139.0344990  14.2939997  11.0939992 137.7724990  13.6519997
  10.5438684 138.4460205  13.6561656  10.7869992 134.5554990   5.2909997
  10.4399992 135.1724990   5.9349997  11.4449992 135.0564990   4.8089997
  10.8284430 134.7076860   5.3140046   6.4439992 135.6184990   1.9779997
   6.3609992 136.5064990   2.3249997   7.3339992 135.3534990   2.2099997
   6.5529331 135.7041177   2.0568067  16.6429992 136.3674990  14.3719997
  15.7269992 136.6294990  14.2849997  16.9789992 136.3644990  13.4759997
  16.5628499 136.4030174  14.2388748   3.0189992 138.7104990   0.1539997
   2.9739992 139.6494990   0.3329997   2.1309992 138.4744990  -0.1150003
   2.8928166 138.8071698   0.1421507   3.8269992 133.4914990   8.8269997
   3.5979992 133.5504990   7.8999997   3.3839992 132.7004990   9.1339997
   3.7357387 133.3926412   8.7415223  31.2589992  50.2884990  88.3119997
  30.8329992  50.0604990  89.1379997  31.8399992  49.5494990  88.1289997
  31.2791587  50.1574084  88.4004111   7.0719992 137.4194990  15.1489997
   7.2219992 136.6904990  14.5469997   7.0739992 138.1964990  14.5899997
   7.0927967 137.4247720  14.9910523   7.4839992 135.7884990  12.6419997
   8.0199992 136.2404990  11.9899997   6.6319992 135.6804990  12.2189997
   7.4421795 135.8357444  12.4956211  13.4819992 139.0434990  17.9099997
  13.6739992 138.1124990  17.7979997  14.3389992 139.4684990  17.8989997
  13.6242176 138.9735090  17.8931757   5.5499992 138.6174990  17.0599997
   4.7829992 138.0844990  16.8499997   6.2289992 138.3074990  16.4609997
   5.5368292 138.5026360  16.9502693   8.2899992 133.2454990  13.0729997
   8.1919992 134.1914990  12.9679997   7.5469992 132.8724990  12.5969997
   8.1762123 133.3246811  12.9943204   9.5539992 137.5664990  16.6369997
   9.3179992 137.3474990  17.5379997   8.7709992 137.3594990  16.1269997
   9.4158382 137.5085340  16.6913991  12.2699992 136.6944990  15.7119997
  11.3219992 136.7264990  15.8439997  12.5819992 136.0684990  16.3659997
  12.1825293 136.6142934  15.8184130  13.9039992 135.3284990  17.7169997
  13.8069992 134.3764990  17.7119997  13.5819992 135.5964990  18.5779997
  13.8472468 135.2345896  17.8326192   3.7309992 136.5374990  16.7649997
   3.9419992 135.8314990  16.1549997   3.6189992 136.1004990  17.6089997
   3.7447668 136.3816619  16.7955445   8.5119992 132.5394990  15.7439997
   9.2229992 131.8994990  15.7299997   8.4109992 132.8054990  14.8309997
   8.5956858 132.4878591  15.6185501  33.4619992  51.2174990  77.3859997
  33.8149992  50.8374990  78.1899997  32.5129992  51.1234990  77.4719997
  33.3820985  51.1527330  77.5077738   8.8649992 134.2214990  17.7979997
   8.7339992 133.7464990  16.9779997   8.2659992 134.9664990  17.7429997
   8.7660829 134.2570949  17.6781823  17.3739992 138.8314990   0.1589997
  17.4709992 139.4984990  -0.5210003  17.2339992 138.0164990  -0.3220003
  17.3683407 138.8125670   0.0008312  16.2539992 137.7944990   4.2429997
  16.5339992 136.8874990   4.3669997  17.0129992 138.2284990   3.8539997
  16.3949258 137.7290935   4.2073691  16.8659992 138.3764990   9.6789997
  17.7989992 138.5884990   9.6439997  16.6309992 138.4774990  10.6009997
  16.9619517 138.4191844   9.7989113  16.8949992 139.1134990  12.4549997
  16.0519992 139.3814990  12.8199997  17.3379992 139.9354990  12.2439997
  16.8394035 139.2613351  12.4764770   1.1759992 137.5604990  15.9309997
   2.0959992 137.4384990  16.1679997   0.7269992 136.8104990  16.3209997
   1.2410500 137.4424576  16.0161016  19.1779992 133.0934990  17.8079997
  19.5279992 132.4394990  17.2019997  19.3249992 133.9304990  17.3679997
  19.2457192 133.1172545  17.6656712  16.8679992 135.0574990   4.2909997
  17.0499992 134.6084990   5.1159997  16.2679992 134.4734990   3.8269997
  16.8118187 134.9170563   4.3412721   2.3979992 135.8734990   8.8229997
   2.8429992 135.0814990   9.1249997   2.8639992 136.5894990   9.2529997
   2.5219718 135.8619546   8.9225247   0.7019992 138.8724990   9.8919997
   1.1939992 138.6514990   9.1009997   1.0639992 139.7124990  10.1729997
   0.8182923 138.9558480   9.8217389  33.9179992  54.8404990  90.7809997
  33.3159992  54.2844990  90.2859997  34.1989992  55.5074990  90.1549997
  33.8735757  54.8545755  90.6285657  18.6979992 135.2024990  16.1569997
  17.7809992 135.4734990  16.1209997  18.8209992 134.6674990  15.3729997
  18.5890828 135.1672711  16.0460767  18.7339992 135.1254990   0.8189997
  19.1469992 134.4044990   0.3439997  19.4159992 135.7944990   0.8769997
  18.8826060 135.1173741   0.7619233   1.0149992 135.1304990   3.9459997
   0.0899992 135.3384990   3.8169997   1.4689992 135.6144990   3.2559997
   0.9496298 135.2244311   3.8350433   0.9789992 133.8684990  12.2899997
   0.3139992 133.6224990  12.9329997   0.5359992 134.4904990  11.7129997
   0.8281168 133.9189225  12.2999830  17.6989992 133.2924990  13.9759997
  16.8859992 133.6174990  13.5889997  17.9319992 132.5314990  13.4429997
  17.6191347 133.2341891  13.8509824  11.1289992 134.7414990   8.2989997
  10.4539992 134.1114990   8.5549997  11.6929992 134.2574990   7.6959997
  11.1129363 134.5898886   8.2524810  16.2709992 132.8484990   8.4119997
  16.8749992 133.3964990   7.9099997  15.4019992 133.1674990   8.1709997
  16.2360419 132.9665628   8.3107741  17.9979992 133.9874990   6.7449997
  18.6099992 133.4734990   6.2179997  18.3809992 134.8644990   6.7679997
  18.1333867 134.0357613   6.6760888   3.4549992 133.3754990   6.1209997
   2.6779992 133.1404990   5.6139997   3.9859992 132.5784990   6.1299997
   3.4203735 133.2356462   6.0528090   2.2919992 133.1734990   1.9249997
   2.7309992 133.7844990   1.3329997   1.6579992 133.7114990   2.3989997
   2.2663859 133.3299076   1.9080287  37.9649992  55.6964990  77.5869997
  38.7089992  56.2824990  77.4469997  37.2709992  56.2654990  77.9199997
  37.9729809  55.8535830  77.6128572   8.0349992 133.3014990   5.9339997
   8.9089992 133.6904990   5.9049997   7.8989992 133.0864990   6.8569997
   8.1361953 133.3256654   6.0547599  13.5909992 133.3314990   7.5839997
  13.6679992 133.4274990   6.6339997  13.3159992 132.4244990   7.7119997
  13.5643233 133.2219093   7.4713665  14.9449992 133.3574990   3.2759997
  14.2419992 133.9724990   3.0659997  14.4999992 132.5204990   3.4069997
  14.7886550 133.3284679   3.2649819   4.1529992 135.0894990   0.3669997
   4.6439992 134.4594990  -0.1600003   4.7759992 135.3854990   1.0299997
   4.3045304 135.0432387   0.3844922   9.1789992 135.3824990   2.8239997
   9.3569992 134.7354990   3.5069997   9.1249992 136.2164990   3.2909997
   9.1960678 135.4066615   2.9806283   3.4129992 133.8894990  15.6389997
   3.0469992 133.1234990  16.0809997   4.3259992 133.9184990  15.9249997
   3.4863172 133.7885335  15.7381872   5.3859992 133.2394990  17.1739997
   6.2849992 132.9654990  16.9899997   4.9999992 132.4974990  17.6389997
   5.4567307 133.1017207  17.2117080  13.8069992 132.5724990  17.3569997
  13.8839992 132.1464990  18.2099997  14.7009992 132.5854990  17.0139997
  13.9383263 132.5159345  17.4274366  37.3749992 135.8204990  10.7649997
  37.4239992 136.4304990  11.5009997  37.8009992 136.2814990  10.0419997
  37.4392851 135.9663266  10.7680532  31.8529992 138.6124990  10.2319997
  31.9949992 137.6664990  10.2519997  31.7469992 138.8194990   9.3039997
  31.8581051 138.5109706  10.1092249  22.0399992  42.0734990  90.1879997
  21.1469992  42.4114990  90.1209997  21.9409992  41.2174990  90.6059997
  21.9045241  42.0040941  90.2352982  25.0079992 136.7144990   7.5049997
  25.0509992 137.5744990   7.0859997  24.5499992 136.1614990   6.8709997
  24.9520163 136.7574174   7.3620604  32.7299992 136.8454990   5.9049997
  33.3759992 136.5164990   6.5299997  33.2399992 137.3624990   5.2829997
  32.8874289 136.8704333   5.9063681  21.6279992 139.1114990   8.2669997
  22.2819992 138.5614990   8.6989997  21.6519992 138.8374990   7.3499997
  21.7207199 138.9992178   8.2021650  37.7669992 137.2984990  13.0009997
  37.0779992 137.9564990  12.9059997  37.7819992 137.1004990  13.9379997
  37.6747756 137.3617614  13.1145795  23.8179992 135.6324990  11.5789997
  23.5989992 136.1624990  10.8119997  23.1499992 135.8584990  12.2259997
  23.6976975 135.7355979  11.5615123  34.4939992 136.1364990   7.8859997
  34.2789992 135.3704990   8.4189997  35.1499992 136.6084990   8.3989997
  34.5532673 136.0955739   8.0281972  23.4119992 137.5244990   9.5309997
  24.0249992 138.1574990   9.9039997  23.9239992 137.0524990   8.8749997
  23.5651933 137.5473380   9.4933477  34.8409992 134.8514990  11.5649997
  34.1049992 135.4614990  11.5279997  35.5249992 135.2664990  11.0389997
  34.8325367 134.9912562  11.4888156  27.8439992 132.9374990   9.0309997
  27.7269992 131.9894990   8.9769997  26.9889992 133.2704990   9.3039997
  27.7123691 132.8525842   9.0605072  36.0859992 132.8974990   1.9809997
  35.1859992 133.0354990   2.2769997  36.3379992 133.7284990   1.5799997
  35.9967727 133.0288705   1.9672935  34.3279992  49.8894990  79.6119997
  34.0509992  49.1614990  80.1679997  35.2549992  50.0084990  79.8179997
  34.4154181  49.8060068  79.7158972  35.3449992 138.9874990  15.8169997
  34.9379992 139.4674990  15.0959997  35.3859992 138.0814990  15.5089997
  35.2948403 138.9307989  15.6767253  25.1129992 133.8414990   9.8089997
  24.2509992 133.7544990   9.4009997  25.0909992 134.6974990  10.2369997
  24.9920557 133.9453078   9.8110202  29.7759992 133.5634990  13.1839997
  30.1959992 133.1484990  13.9369997  28.8429992 133.3844990  13.3009997
  29.7073736 133.4824921  13.3028950  33.1019992 137.3184990  14.0369997
  32.5879992 137.1934990  14.8349997  32.9469992 138.2314990  13.7929997
  33.0107802 137.4247433  14.1131504  29.4379992 136.0554990   0.4689997
  29.1839992 136.0744990   1.3909997  29.1809992 135.1844990   0.1669997
  29.3684508 135.9403292   0.5544786  25.2039992 138.8064990  10.9039997
  24.5619992 138.7664990  11.6129997  25.2409992 139.7334990  10.6659997
  25.1211659 138.9262540  10.9688463  25.2009992 139.0274990   5.8159997
  24.3079992 138.6874990   5.7569997  25.6519992 138.6504990   5.0599997
  25.1397185 138.9300220   5.7057698  30.7369992 139.4434990   4.6329997
  30.3279992 140.2584990   4.3409997  31.4569992 139.3034990   4.0189997
  30.7784439 139.5360383   4.5100098  31.7409992 138.8894990   7.4469997
  31.5459992 139.4954990   6.7319997  31.9229992 138.0564990   7.0129997
  31.7389195 138.8597936   7.2904079  22.9539992 139.1274990  12.7709997
  22.9159992 139.5274990  13.6399997  22.4629992 138.3104990  12.8609997
  22.8824374 139.0718228  12.9020980  21.6909992  53.8774990  88.6229997
  21.9079992  52.9454990  88.5919997  21.9379992  54.1524990  89.5069997
  21.7540543  53.7870877  88.7381412  26.3199992 136.5014990  -0.4300003
  25.8889992 136.0564990   0.2989997  25.6019992 136.8724990  -0.9430003
  26.1639176 136.4907063  -0.3995087  19.5619992 136.2434990   6.6219997
  20.1929992 136.2144990   7.3409997  20.0119992 135.8184990   5.8909997
  19.7091082 136.1821269   6.6216307  20.8359992 136.9894990   2.0459997
  21.3109992 137.5804990   1.4609997  20.1189992 137.5194990   2.3929997
  20.8040406 137.1421011   2.0128495  27.7829992 136.4554990   6.9019997
  26.8719992 136.5124990   7.1909997  28.2879992 136.3954990   7.7129997
  27.7266873 136.4551838   7.0511190  22.6109992 138.0844990   5.7289997
  21.7219992 138.1834990   5.3889997  22.9069992 137.2424990   5.3829997
  22.5294001 137.9842473   5.6357318  26.2639992 138.0844990   3.3859997
  27.1959992 138.2134990   3.5639997  26.0489992 138.7534990   2.7359997
  26.3624472 138.1925817   3.3224873  32.1879992 135.6904990  10.1659997
  31.5109992 135.8214990  10.8299997  31.7019992 135.5354990   9.3559997
  32.0297265 135.6874665  10.1473380  24.9379992 139.2784990   0.9519997
  24.3959992 138.8994990   0.2609997  25.7719992 139.4734990   0.5239997
  24.9764390 139.2529091   0.7994374  29.1029992 139.2424990   8.7889997
  29.6669992 138.6964990   8.2419997  28.9549992 138.7214990   9.5779997
  29.1603037 139.0971798   8.8207212  24.1049992 135.3794990   5.2079997
  23.7869992 134.4764990   5.1719997  24.8859992 135.3814990   4.6549997
  24.1671079 135.2562240   5.1282908  30.7739992  41.8144990  89.0779997
  31.4729992  41.8884990  89.7279997  30.3939992  40.9494990  89.2329997
  30.8182095  41.7077402  89.1877982  27.7289992 137.6314990  11.2029997
  26.8939992 138.0854990  11.3139997  28.2529992 137.9074990  11.9549997
  27.6856072 137.7308960  11.3198118  32.1709992 136.6584990   1.0869997
  31.2319992 136.7694990   0.9359997  32.4679992 137.5144990   1.3939997
  32.0826136 136.7894977   1.1078568  32.8889992 138.5254990   2.7479997
  33.7809992 138.3874990   3.0669997  32.9459992 139.3164990   2.2109997
  33.0187380 138.6134777   2.7190981  37.7739992 138.7344990   2.4429997
  37.2199992 138.3384990   1.7699997  37.8749992 139.6454990   2.1649997
  37.7118589 138.8033904   2.3133839  22.0399992 136.3534990  13.5309997
  21.1469992 136.6914990  13.4629997  21.9409992 135.4974990  13.9489997
  21.9044752 136.2840986  13.5781644  30.7739992 136.0944990  12.4209997
  31.4729992 136.1684990  13.0709997  30.3939992 135.2294990  12.5749997
  30.8182662 135.9877050  12.5307412  31.5589992 135.7464990   3.5179997
  31.7789992 136.2174990   2.7139997  32.1169992 136.1404990   4.1879997
  31.6646044 135.8642946   3.4985207  28.7589992 137.4744990   4.3529997
  29.5709992 137.9784990   4.3989997  28.5139992 137.3294990   5.2669997
  28.8371091 137.5239366   4.4828552  29.2949992 138.4604990  13.5369997
  29.4139992 139.0344990  14.2939997  29.9499992 137.7724990  13.6519997
  29.3998684 138.4460205  13.6561656  29.6429992 134.5554990   5.2909997
  29.2959992 135.1724990   5.9349997  30.3009992 135.0564990   4.8089997
  29.6844430 134.7076860   5.3140046  31.5589992  41.4664990  80.1749997
  31.7789992  41.9374990  79.3719997  32.1169992  41.8604990  80.8459997
  31.6645851  41.5843272  80.1556134  25.2999992 135.6184990   1.9779997
  25.2169992 136.5064990   2.3249997  26.1899992 135.3534990   2.2099997
  25.4089331 135.7041177   2.0568067  35.4989992 136.3674990  14.3719997
  34.5829992 136.6294990  14.2849997  35.8349992 136.3644990  13.4759997
  35.4188499 136.4030174  14.2388748  21.8749992 138.7104990   0.1539997
  21.8299992 139.6494990   0.3329997  20.9869992 138.4744990  -0.1150003
  21.7488166 138.8071698   0.1421507  22.6829992 133.4914990   8.8269997
  22.4539992 133.5504990   7.8999997  22.2399992 132.7004990   9.1339997
  22.5917387 133.3926412   8.7415223  25.9279992 137.4194990  15.1489997
  26.0779992 136.6904990  14.5469997  25.9299992 138.1964990  14.5899997
  25.9487967 137.4247720  14.9910523  26.3399992 135.7884990  12.6419997
  26.8759992 136.2404990  11.9899997  25.4879992 135.6804990  12.2189997
  26.2981795 135.8357444  12.4956211  32.3379992 139.0434990  17.9099997
  32.5299992 138.1124990  17.7979997  33.1949992 139.4684990  17.8989997
  32.4802176 138.9735090  17.8931757  24.4059992 138.6174990  17.0599997
  23.6389992 138.0844990  16.8499997  25.0849992 138.3074990  16.4609997
  24.3928292 138.5026360  16.9502693  27.1459992 133.2454990  13.0729997
  27.0479992 134.1914990  12.9679997  26.4029992 132.8724990  12.5969997
  27.0322123 133.3246811  12.9943204  28.4099992 137.5664990  16.6369997
  28.1739992 137.3474990  17.5379997  27.6269992 137.3594990  16.1269997
  28.2718382 137.5085340  16.6913991  28.7589992  43.1944990  81.0099997
  29.5709992  43.6984990  81.0559997  28.5139992  43.0494990  81.9239997
  28.8371091  43.2439366  81.1398552  31.1259992 136.6944990  15.7119997
  30.1779992 136.7264990  15.8439997  31.4379992 136.0684990  16.3659997
  31.0385293 136.6142934  15.8184130  32.7599992 135.3284990  17.7169997
  32.6629992 134.3764990  17.7119997  32.4379992 135.5964990  18.5779997
  32.7032468 135.2345896  17.8326192  22.5869992 136.5374990  16.7649997
  22.7979992 135.8314990  16.1549997  22.4749992 136.1004990  17.6089997
  22.6007668 136.3816619  16.7955445  27.3679992 132.5394990  15.7439997
  28.0789992 131.8994990  15.7299997  27.2669992 132.8054990  14.8309997
  27.4516858 132.4878591  15.6185501  27.7209992 134.2214990  17.7979997
  27.5899992 133.7464990  16.9779997  27.1219992 134.9664990  17.7429997
  27.6220829 134.2570949  17.6781823  36.2299992 138.8314990   0.1589997
  36.3269992 139.4984990  -0.5210003  36.0899992 138.0164990  -0.3220003
  36.2243407 138.8125670   0.0008312  35.1099992 137.7944990   4.2429997
  35.3899992 136.8874990   4.3669997  35.8689992 138.2284990   3.8539997
  35.2509258 137.7290935   4.2073691  35.7219992 138.3764990   9.6789997
  36.6549992 138.5884990   9.6439997  35.4869992 138.4774990  10.6009997
  35.8179517 138.4191844   9.7989113  35.7509992 139.1134990  12.4549997
  34.9079992 139.3814990  12.8199997  36.1939992 139.9354990  12.2439997
  35.6954035 139.2613351  12.4764770  20.0319992 137.5604990  15.9309997
  20.9519992 137.4384990  16.1679997  19.5829992 136.8104990  16.3209997
  20.0970500 137.4424576  16.0161016  29.2949992  44.1804990  90.1949997
  29.4139992  44.7544990  90.9519997  29.9499992  43.4924990  90.3099997
  29.3998684  44.1660205  90.3141656  38.0339992 133.0934990  17.8079997
  38.3839992 132.4394990  17.2019997  38.1809992 133.9304990  17.3679997
  38.1017192 133.1172545  17.6656712  35.7239992 135.0574990   4.2909997
  35.9059992 134.6084990   5.1159997  35.1239992 134.4734990   3.8269997
  35.6678187 134.9170563   4.3412721  21.2539992 135.8734990   8.8229997
  21.6989992 135.0814990   9.1249997  21.7199992 136.5894990   9.2529997
  21.3779718 135.8619546   8.9225247  19.5579992 138.8724990   9.8919997
  20.0499992 138.6514990   9.1009997  19.9199992 139.7124990  10.1729997
  19.6742923 138.9558480   9.8217389  37.5539992 135.2024990  16.1569997
  36.6369992 135.4734990  16.1209997  37.6769992 134.6674990  15.3729997
  37.4450828 135.1672711  16.0460767  37.5899992 135.1254990   0.8189997
  38.0029992 134.4044990   0.3439997  38.2719992 135.7944990   0.8769997
  37.7386060 135.1173741   0.7619233  19.8709992 135.1304990   3.9459997
  18.9459992 135.3384990   3.8169997  20.3249992 135.6144990   3.2559997
  19.8056298 135.2244311   3.8350433  19.8349992 133.8684990  12.2899997
  19.1699992 133.6224990  12.9329997  19.3919992 134.4904990  11.7129997
  19.6841168 133.9189225  12.2999830  36.5549992 133.2924990  13.9759997
  35.7419992 133.6174990  13.5889997  36.7879992 132.5314990  13.4429997
  36.4751347 133.2341891  13.8509824  29.9849992 134.7414990   8.2989997
  29.3099992 134.1114990   8.5549997  30.5489992 134.2574990   7.6959997
  29.9689363 134.5898886   8.2524810  29.6429992  40.2754990  81.9479997
  29.2959992  40.8924990  82.5929997  30.3009992  40.7764990  81.4669997
  29.6845290  40.4276384  81.9711635  35.1269992 132.8484990   8.4119997
  35.7309992 133.3964990   7.9099997  34.2579992 133.1674990   8.1709997
  35.0920419 132.9665628   8.3107741  36.8539992 133.9874990   6.7449997
  37.4659992 133.4734990   6.2179997  37.2369992 134.8644990   6.7679997
  36.9893867 134.0357613   6.6760888  22.3109992 133.3754990   6.1209997
  21.5339992 133.1404990   5.6139997  22.8419992 132.5784990   6.1299997
  22.2763735 133.2356462   6.0528090  21.1479992 133.1734990   1.9249997
  21.5869992 133.7844990   1.3329997  20.5139992 133.7114990   2.3989997
  21.1223859 133.3299076   1.9080287  26.8909992 133.3014990   5.9339997
  27.7649992 133.6904990   5.9049997  26.7549992 133.0864990   6.8569997
  26.9921953 133.3256654   6.0547599  32.4469992 133.3314990   7.5839997
  32.5239992 133.4274990   6.6339997  32.1719992 132.4244990   7.7119997
  32.4203233 133.2219093   7.4713665  33.8009992 133.3574990   3.2759997
  33.0979992 133.9724990   3.0659997  33.3559992 132.5204990   3.4069997
  33.6446550 133.3284679   3.2649819  23.0089992 135.0894990   0.3669997
  23.4999992 134.4594990  -0.1600003  23.6319992 135.3854990   1.0299997
  23.1605304 135.0432387   0.3844922  28.0349992 135.3824990   2.8239997
  28.2129992 134.7354990   3.5069997  27.9809992 136.2164990   3.2909997
  28.0520678 135.4066615   2.9806283  22.2689992 133.8894990  15.6389997
  21.9029992 133.1234990  16.0809997  23.1819992 133.9184990  15.9249997
  22.3423172 133.7885335  15.7381872  25.2999992  41.3384990  78.6359997
  25.2169992  42.2264990  78.9819997  26.1899992  41.0734990  78.8669997
  25.4089751  41.4242482  78.7146066  24.2419992 133.2394990  17.1739997
  25.1409992 132.9654990  16.9899997  23.8559992 132.4974990  17.6389997
  24.3127307 133.1017207  17.2117080  32.6629992 132.5724990  17.3569997
  32.7399992 132.1464990  18.2099997  33.5569992 132.5854990  17.0139997
  32.7943263 132.5159345  17.4274366  56.2309992 135.8204990  10.7649997
  56.2799992 136.4304990  11.5009997  56.6569992 136.2814990  10.0419997
  56.2952851 135.9663266  10.7680532  50.7089992 138.6124990  10.2319997
  50.8509992 137.6664990  10.2519997  50.6029992 138.8194990   9.3039997
  50.7141051 138.5109706  10.1092249  43.8639992 136.7144990   7.5049997
  43.9069992 137.5744990   7.0859997  43.4059992 136.1614990   6.8709997
  43.8080163 136.7574174   7.3620604  51.5859992 136.8454990   5.9049997
  52.2319992 136.5164990   6.5299997  52.0959992 137.3624990   5.2829997
  51.7434289 136.8704333   5.9063681  40.4839992 139.1114990   8.2669997
  41.1379992 138.5614990   8.6989997  40.5079992 138.8374990   7.3499997
  40.5767199 138.9992178   8.2021650  56.6229992 137.2984990  13.0009997
  55.9339992 137.9564990  12.9059997  56.6379992 137.1004990  13.9379997
  56.5307756 137.3617614  13.1145795  42.6739992 135.6324990  11.5789997
  42.4549992 136.1624990  10.8119997  42.0059992 135.8584990  12.2259997
  42.5536975 135.7355979  11.5615123  53.3499992 136.1364990   7.8859997
  53.1349992 135.3704990   8.4189997  54.0059992 136.6084990   8.3989997
  53.4092673 136.0955739   8.0281972  35.4989992  42.0874990  91.0299997
  34.5829992  42.3494990  90.9419997  35.8349992  42.0844990  90.1329997
  35.4189789  42.1229637  90.8967829  42.2679992 137.5244990   9.5309997
  42.8809992 138.1574990   9.9039997  42.7799992 137.0524990   8.8749997
  42.4211933 137.5473380   9.4933477  53.6969992 134.8514990  11.5649997
  52.9609992 135.4614990  11.5279997  54.3809992 135.2664990  11.0389997
  53.6885367 134.9912562  11.4888156  46.6999992 132.9374990   9.0309997
  46.5829992 131.9894990   8.9769997  45.8449992 133.2704990   9.3039997
  46.5683691 132.8525842   9.0605072  54.9419992 132.8974990   1.9809997
  54.0419992 133.0354990   2.2769997  55.1939992 133.7284990   1.5799997
  54.8527727 133.0288705   1.9672935  54.2009992 138.9874990  15.8169997
  53.7939992 139.4674990  15.0959997  54.2419992 138.0814990  15.5089997
  54.1508403 138.9307989  15.6767253  43.9689992 133.8414990   9.8089997
  43.1069992 133.7544990   9.4009997  43.9469992 134.6974990  10.2369997
  43.8480557 133.9453078   9.8110202  48.6319992 133.5634990  13.1839997
  49.0519992 133.1484990  13.9369997  47.6989992 133.3844990  13.3009997
  48.5633736 133.4824921  13.3028950  51.9579992 137.3184990  14.0369997
  51.4439992 137.1934990  14.8349997  51.8029992 138.2314990  13.7929997
  51.8667802 137.4247433  14.1131504  48.2939992 136.0554990   0.4689997
  48.0399992 136.0744990   1.3909997  48.0369992 135.1844990   0.1669997
  48.2244508 135.9403292   0.5544786  44.0599992 138.8064990  10.9039997
  43.4179992 138.7664990  11.6129997  44.0969992 139.7334990  10.6659997
  43.9771659 138.9262540  10.9688463  34.1009992  45.8374990  85.1259997
  33.3039992  45.4224990  84.7969997  34.5459992  45.1474990  85.6169997
  34.0520317  45.6873197  85.1473556  44.0569992 139.0274990   5.8159997
  43.1639992 138.6874990   5.7569997  44.5079992 138.6504990   5.0599997
  43.9957185 138.9300220   5.7057698  49.5929992 139.4434990   4.6329997
  49.1839992 140.2584990   4.3409997  50.3129992 139.3034990   4.0189997
  49.6344439 139.5360383   4.5100098  50.5969992 138.8894990   7.4469997
  50.4019992 139.4954990   6.7319997  50.7789992 138.0564990   7.0129997
  50.5949195 138.8597936   7.2904079  41.8099992 139.1274990  12.7709997
  41.7719992 139.5274990  13.6399997  41.3189992 138.3104990  12.8609997
  41.7384374 139.0718228  12.9020980  45.1759992 136.5014990  -0.4300003
  44.7449992 136.0564990   0.2989997  44.4579992 136.8724990  -0.9430003
  45.0199176 136.4907063  -0.3995087  38.4179992 136.2434990   6.6219997
  39.0489992 136.2144990   7.3409997  38.8679992 135.8184990   5.8909997
  38.5651082 136.1821269   6.6216307  39.6919992 136.9894990   2.0459997
  40.1669992 137.5804990   1.4609997  38.9749992 137.5194990   2.3929997
  39.6600406 137.1421011   2.0128495  46.6389992 136.4554990   6.9019997
  45.7279992 136.5124990   7.1909997  47.1439992 136.3954990   7.7129997
  46.5826873 136.4551838   7.0511190  41.4669992 138.0844990   5.7289997
  40.5779992 138.1834990   5.3889997  41.7629992 137.2424990   5.3829997
  41.3854001 137.9842473   5.6357318  45.1199992 138.0844990   3.3859997
  46.0519992 138.2134990   3.5639997  44.9049992 138.7534990   2.7359997
  45.2184472 138.1925817   3.3224873  35.1879992  55.0934990  86.7479997
  35.0319992  55.7724990  86.0909997  36.1199992  55.1654990  86.9509997
  35.2927328  55.1961586  86.6855529  51.0439992 135.6904990  10.1659997
  50.3669992 135.8214990  10.8299997  50.5579992 135.5354990   9.3559997
  50.8857265 135.6874665  10.1473380  43.7939992 139.2784990   0.9519997
  43.2519992 138.8994990   0.2609997  44.6279992 139.4734990   0.5239997
  43.8324390 139.2529091   0.7994374  47.9589992 139.2424990   8.7889997
  48.5229992 138.6964990   8.2419997  47.8109992 138.7214990   9.5779997
  48.0163037 139.0971798   8.8207212  42.9609992 135.3794990   5.2079997
  42.6429992 134.4764990   5.1719997  43.7419992 135.3814990   4.6549997
  43.0231079 135.2562240   5.1282908  46.5849992 137.6314990  11.2029997
  45.7499992 138.0854990  11.3139997  47.1089992 137.9074990  11.9549997
  46.5416072 137.7308960  11.3198118  51.0269992 136.6584990   1.0869997
  50.0879992 136.7694990   0.9359997  51.3239992 137.5144990   1.3939997
  50.9386136 136.7894977   1.1078568  51.7449992 138.5254990   2.7479997
  52.6369992 138.3874990   3.0669997  51.8019992 139.3164990   2.2109997
  51.8747380 138.6134777   2.7190981  56.6299992 138.7344990   2.4429997
  56.0759992 138.3384990   1.7699997  56.7309992 139.6454990   2.1649997
  56.5678589 138.8033904   2.3133839  40.8959992 136.3534990  13.5309997
  40.0029992 136.6914990  13.4629997  40.7969992 135.4974990  13.9489997
  40.7604752 136.2840986  13.5781644  49.6299992 136.0944990  12.4209997
  50.3289992 136.1684990  13.0709997  49.2499992 135.2294990  12.5749997
  49.6742662 135.9877050  12.5307412  22.6829992  39.2114990  85.4849997
  22.4539992  39.2704990  84.5579997  22.2399992  38.4204990  85.7919997
  22.5917387  39.1126412  85.3995223  50.4149992 135.7464990   3.5179997
  50.6349992 136.2174990   2.7139997  50.9729992 136.1404990   4.1879997
  50.5206044 135.8642946   3.4985207  47.6149992 137.4744990   4.3529997
  48.4269992 137.9784990   4.3989997  47.3699992 137.3294990   5.2669997
  47.6931091 137.5239366   4.4828552  48.1509992 138.4604990  13.5369997
  48.2699992 139.0344990  14.2939997  48.8059992 137.7724990  13.6519997
  48.2558684 138.4460205  13.6561656  48.4989992 134.5554990   5.2909997
  48.1519992 135.1724990   5.9349997  49.1569992 135.0564990   4.8089997
  48.5404430 134.7076860   5.3140046  44.1559992 135.6184990   1.9779997
  44.0729992 136.5064990   2.3249997  45.0459992 135.3534990   2.2099997
  44.2649331 135.7041177   2.0568067  54.3549992 136.3674990  14.3719997
  53.4389992 136.6294990  14.2849997  54.6909992 136.3644990  13.4759997
  54.2748499 136.4030174  14.2388748  40.7309992 138.7104990   0.1539997
  40.6859992 139.6494990   0.3329997  39.8429992 138.4744990  -0.1150003
  40.6048166 138.8071698   0.1421507  41.5389992 133.4914990   8.8269997
  41.3099992 133.5504990   7.8999997  41.0959992 132.7004990   9.1339997
  41.4477387 133.3926412   8.7415223  44.7839992 137.4194990  15.1489997
  44.9339992 136.6904990  14.5469997  44.7859992 138.1964990  14.5899997
  44.8047967 137.4247720  14.9910523  45.1959992 135.7884990  12.6419997
  45.7319992 136.2404990  11.9899997  44.3439992 135.6804990  12.2189997
  45.1541795 135.8357444  12.4956211  21.6129992  53.1524990  81.6459997
  20.7809992  53.6244990  81.6729997  22.1589992  53.6624990  81.0469997
  21.5728710  53.2860317  81.5687570  51.1939992 139.0434990  17.9099997
  51.3859992 138.1124990  17.7979997  52.0509992 139.4684990  17.8989997
  51.3362176 138.9735090  17.8931757  43.2619992 138.6174990  17.0599997
  42.4949992 138.0844990  16.8499997  43.9409992 138.3074990  16.4609997
  43.2488292 138.5026360  16.9502693  46.0019992 133.2454990  13.0729997
  45.9039992 134.1914990  12.9679997  45.2589992 132.8724990  12.5969997
  45.8882123 133.3246811  12.9943204  47.2659992 137.5664990  16.6369997
  47.0299992 137.3474990  17.5379997  46.4829992 137.3594990  16.1269997
  47.1278382 137.5085340  16.6913991  49.9819992 136.6944990  15.7119997
  49.0339992 136.7264990  15.8439997  50.2939992 136.0684990  16.3659997
  49.8945293 136.6142934  15.8184130  51.6159992 135.3284990  17.7169997
  51.5189992 134.3764990  17.7119997  51.2939992 135.5964990  18.5779997
  51.5592468 135.2345896  17.8326192  41.4429992 136.5374990  16.7649997
  41.6539992 135.8314990  16.1549997  41.3309992 136.1004990  17.6089997
  41.4567668 136.3816619  16.7955445  46.2239992 132.5394990  15.7439997
  46.9349992 131.8994990  15.7299997  46.1229992 132.8054990  14.8309997
  46.3076858 132.4878591  15.6185501  46.5769992 134.2214990  17.7979997
  46.4459992 133.7464990  16.9779997  45.9779992 134.9664990  17.7429997
  46.4780829 134.2570949  17.6781823  55.0859992 138.8314990   0.1589997
  55.1829992 139.4984990  -0.5210003  54.9459992 138.0164990  -0.3220003
  55.0803407 138.8125670   0.0008312  20.9019992  55.7644990  92.9759997
  21.4419992  55.5484990  93.7349997  20.4199992  54.9594990  92.7859997
  20.9109101  55.6260216  93.0544364  53.9659992 137.7944990   4.2429997
  54.2459992 136.8874990   4.3669997  54.7249992 138.2284990   3.8539997
  54.1069258 137.7290935   4.2073691  54.5779992 138.3764990   9.6789997
  55.5109992 138.5884990   9.6439997  54.3429992 138.4774990  10.6009997
  54.6739517 138.4191844   9.7989113  54.6069992 139.1134990  12.4549997
  53.7639992 139.3814990  12.8199997  55.0499992 139.9354990  12.2439997
  54.5514035 139.2613351  12.4764770  38.8879992 137.5604990  15.9309997
  39.8079992 137.4384990  16.1679997  38.4389992 136.8104990  16.3209997
  38.9530500 137.4424576  16.0161016  56.8899992 133.0934990  17.8079997
  57.2399992 132.4394990  17.2019997  57.0369992 133.9304990  17.3679997
  56.9577192 133.1172545  17.6656712  54.5799992 135.0574990   4.2909997
  54.7619992 134.6084990   5.1159997  53.9799992 134.4734990   3.8269997
  54.5238187 134.9170563   4.3412721  40.1099992 135.8734990   8.8229997
  40.5549992 135.0814990   9.1249997  40.5759992 136.5894990   9.2529997
  40.2339718 135.8619546   8.9225247  38.4139992 138.8724990   9.8919997
  38.9059992 138.6514990   9.1009997  38.7759992 139.7124990  10.1729997
  38.5302923 138.9558480   9.8217389  56.4099992 135.2024990  16.1569997
  55.4929992 135.4734990  16.1209997  56.5329992 134.6674990  15.3729997
  56.3010828 135.1672711  16.0460767  56.4459992 135.1254990   0.8189997
  56.8589992 134.4044990   0.3439997  57.1279992 135.7944990   0.8769997
  56.5946060 135.1173741   0.7619233  25.4989992  54.6844990  94.5959997
  26.2669992  54.2254990  94.9369997  25.4779992  54.4584990  93.6659997
  25.6012135  54.5911680  94.5169473  38.7269992 135.1304990   3.9459997
  37.8019992 135.3384990   3.8169997  39.1809992 135.6144990   3.2559997
  38.6616298 135.2244311   3.8350433  38.6909992 133.8684990  12.2899997
  38.0259992 133.6224990  12.9329997  38.2479992 134.4904990  11.7129997
  38.5401168 133.9189225  12.2999830  55.4109992 133.2924990  13.9759997
  54.5979992 133.6174990  13.5889997  55.6439992 132.5314990  13.4429997
  55.3311347 133.2341891  13.8509824  48.8409992 134.7414990   8.2989997
  48.1659992 134.1114990   8.5549997  49.4049992 134.2574990   7.6959997
  48.8249363 134.5898886   8.2524810  53.9829992 132.8484990   8.4119997
  54.5869992 133.3964990   7.9099997  53.1139992 133.1674990   8.1709997
  53.9480419 132.9665628   8.3107741  55.7099992 133.9874990   6.7449997
  56.3219992 133.4734990   6.2179997  56.0929992 134.8644990   6.7679997
  55.8453867 134.0357613   6.6760888  41.1669992 133.3754990   6.1209997
  40.3899992 133.1404990   5.6139997  41.6979992 132.5784990   6.1299997
  41.1323735 133.2356462   6.0528090  40.0039992 133.1734990   1.9249997
  40.4429992 133.7844990   1.3329997  39.3699992 133.7114990   2.3989997
  39.9783859 133.3299076   1.9080287  45.7469992 133.3014990   5.9339997
  46.6209992 133.6904990   5.9049997  45.6109992 133.0864990   6.8569997
  45.8481953 133.3256654   6.0547599  51.3029992 133.3314990   7.5839997
  51.3799992 133.4274990   6.6339997  51.0279992 132.4244990   7.7119997
  51.2763233 133.2219093   7.4713665  32.0759992  53.0644990  93.3249997
  31.7249992  52.2074990  93.5679997  32.8019992  53.2064990  93.9319997
  32.1261590  52.9665189  93.4402889  52.6569992 133.3574990   3.2759997
  51.9539992 133.9724990   3.0659997  52.2119992 132.5204990   3.4069997
  52.5006550 133.3284679   3.2649819  41.8649992 135.0894990   0.3669997
  42.3559992 134.4594990  -0.1600003  42.4879992 135.3854990   1.0299997
  42.0165304 135.0432387   0.3844922  46.8909992 135.3824990   2.8239997
  47.0689992 134.7354990   3.5069997  46.8369992 136.2164990   3.2909997
  46.9080678 135.4066615   2.9806283  41.1249992 133.8894990  15.6389997
  40.7589992 133.1234990  16.0809997  42.0379992 133.9184990  15.9249997
  41.1983172 133.7885335  15.7381872  43.0979992 133.2394990  17.1739997
  43.9969992 132.9654990  16.9899997  42.7119992 132.4974990  17.6389997
  43.1687307 133.1017207  17.2117080  51.5189992 132.5724990  17.3569997
  51.5959992 132.1464990  18.2099997  52.4129992 132.5854990  17.0139997
  51.6503263 132.5159345  17.4274366  75.0869992 135.8204990  10.7649997
  75.1359992 136.4304990  11.5009997  75.5129992 136.2814990  10.0419997
  75.1512851 135.9663266  10.7680532  69.5649992 138.6124990  10.2319997
  69.7069992 137.6664990  10.2519997  69.4589992 138.8194990   9.3039997
  69.5701051 138.5109706  10.1092249  62.7199992 136.7144990   7.5049997
  62.7629992 137.5744990   7.0859997  62.2619992 136.1614990   6.8709997
  62.6640163 136.7574174   7.3620604  70.4419992 136.8454990   5.9049997
  71.0879992 136.5164990   6.5299997  70.9519992 137.3624990   5.2829997
  70.5994289 136.8704333   5.9063681  20.8089992  49.5754990  93.9299997
  20.9529992  48.6734990  93.6439997  20.0359992  49.8614990  93.4419997
  20.7242854  49.4906876  93.8249363  59.3399992 139.1114990   8.2669997
  59.9939992 138.5614990   8.6989997  59.3639992 138.8374990   7.3499997
  59.4327199 138.9992178   8.2021650  75.4789992 137.2984990  13.0009997
  74.7899992 137.9564990  12.9059997  75.4939992 137.1004990  13.9379997
  75.3867756 137.3617614  13.1145795  61.5299992 135.6324990  11.5789997
  61.3109992 136.1624990  10.8119997  60.8619992 135.8584990  12.2259997
  61.4096975 135.7355979  11.5615123  72.2059992 136.1364990   7.8859997
  71.9909992 135.3704990   8.4189997  72.8619992 136.6084990   8.3989997
  72.2652673 136.0955739   8.0281972  61.1239992 137.5244990   9.5309997
  61.7369992 138.1574990   9.9039997  61.6359992 137.0524990   8.8749997
  61.2771933 137.5473380   9.4933477  72.5529992 134.8514990  11.5649997
  71.8169992 135.4614990  11.5279997  73.2369992 135.2664990  11.0389997
  72.5445367 134.9912562  11.4888156  65.5559992 132.9374990   9.0309997
  65.4389992 131.9894990   8.9769997  64.7009992 133.2704990   9.3039997
  65.4243691 132.8525842   9.0605072  73.7979992 132.8974990   1.9809997
  72.8979992 133.0354990   2.2769997  74.0499992 133.7284990   1.5799997
  73.7087727 133.0288705   1.9672935  73.0569992 138.9874990  15.8169997
  72.6499992 139.4674990  15.0959997  73.0979992 138.0814990  15.5089997
  73.0068403 138.9307989  15.6767253  62.8249992 133.8414990   9.8089997
  61.9629992 133.7544990   9.4009997  62.8029992 134.6974990  10.2369997
  62.7040557 133.9453078   9.8110202  25.1499992  49.9184990  76.0619997
  25.2139992  49.1244990  76.5929997  25.8029992  49.8004990  75.3729997
  25.2471168  49.7937748  76.0415119  67.4879992 133.5634990  13.1839997
  67.9079992 133.1484990  13.9369997  66.5549992 133.3844990  13.3009997
  67.4193736 133.4824921  13.3028950  70.8139992 137.3184990  14.0369997
  70.2999992 137.1934990  14.8349997  70.6589992 138.2314990  13.7929997
  70.7227802 137.4247433  14.1131504  67.1499992 136.0554990   0.4689997
  66.8959992 136.0744990   1.3909997  66.8929992 135.1844990   0.1669997
  67.0804508 135.9403292   0.5544786  62.9159992 138.8064990  10.9039997
  62.2739992 138.7664990  11.6129997  62.9529992 139.7334990  10.6659997
  62.8331659 138.9262540  10.9688463  62.9129992 139.0274990   5.8159997
  62.0199992 138.6874990   5.7569997  63.3639992 138.6504990   5.0599997
  62.8517185 138.9300220   5.7057698  68.4489992 139.4434990   4.6329997
  68.0399992 140.2584990   4.3409997  69.1689992 139.3034990   4.0189997
  68.4904439 139.5360383   4.5100098  69.4529992 138.8894990   7.4469997
  69.2579992 139.4954990   6.7319997  69.6349992 138.0564990   7.0129997
  69.4509195 138.8597936   7.2904079  60.6659992 139.1274990  12.7709997
  60.6279992 139.5274990  13.6399997  60.1749992 138.3104990  12.8609997
  60.5944374 139.0718228  12.9020980  64.0319992 136.5014990  -0.4300003
  63.6009992 136.0564990   0.2989997  63.3139992 136.8724990  -0.9430003
  63.8759176 136.4907063  -0.3995087  57.2739992 136.2434990   6.6219997
  57.9049992 136.2144990   7.3409997  57.7239992 135.8184990   5.8909997
  57.4211082 136.1821269   6.6216307  27.4639992  49.5444990  93.3629997
  27.1359992  49.8154990  92.5049997  27.6159992  48.6034990  93.2749997
  27.4396970  49.4543694  93.2337953  58.5479992 136.9894990   2.0459997
  59.0229992 137.5804990   1.4609997  57.8309992 137.5194990   2.3929997
  58.5160406 137.1421011   2.0128495  65.4949992 136.4554990   6.9019997
  64.5839992 136.5124990   7.1909997  65.9999992 136.3954990   7.7129997
  65.4386873 136.4551838   7.0511190  60.3229992 138.0844990   5.7289997
  59.4339992 138.1834990   5.3889997  60.6189992 137.2424990   5.3829997
  60.2414001 137.9842473   5.6357318  63.9759992 138.0844990   3.3859997
  64.9079992 138.2134990   3.5639997  63.7609992 138.7534990   2.7359997
  64.0744472 138.1925817   3.3224873  69.8999992 135.6904990  10.1659997
  69.2229992 135.8214990  10.8299997  69.4139992 135.5354990   9.3559997
  69.7417265 135.6874665  10.1473380  62.6499992 139.2784990   0.9519997
  62.1079992 138.8994990   0.2609997  63.4839992 139.4734990   0.5239997
  62.6884390 139.2529091   0.7994374  66.8149992 139.2424990   8.7889997
  67.3789992 138.6964990   8.2419997  66.6669992 138.7214990   9.5779997
  66.8723037 139.0971798   8.8207212  61.8169992 135.3794990   5.2079997
  61.4989992 134.4764990   5.1719997  62.5979992 135.3814990   4.6549997
  61.8791079 135.2562240   5.1282908  65.4409992 137.6314990  11.2029997
  64.6059992 138.0854990  11.3139997  65.9649992 137.9074990  11.9549997
  65.3976072 137.7308960  11.3198118  69.8829992 136.6584990   1.0869997
  68.9439992 136.7694990   0.9359997  70.1799992 137.5144990   1.3939997
  69.7946136 136.7894977   1.1078568  33.1989992  49.4604990  90.7459997
  33.9439992  50.0494990  90.6259997  32.4409992  50.0424990  90.8089997
  33.1985185  49.6197000  90.7380940  70.6009992 138.5254990   2.7479997
  71.4929992 138.3874990   3.0669997  70.6579992 139.3164990   2.2109997
  70.7307380 138.6134777   2.7190981  75.4859992 138.7344990   2.4429997
  74.9319992 138.3384990   1.7699997  75.5869992 139.6454990   2.1649997
  75.4238589 138.8033904   2.3133839  59.7519992 136.3534990  13.5309997
  58.8589992 136.6914990  13.4629997  59.6529992 135.4974990  13.9489997
  59.6164752 136.2840986  13.5781644  68.4859992 136.0944990  12.4209997
  69.1849992 136.1684990  13.0709997  68.1059992 135.2294990  12.5749997
  68.5302662 135.9877050  12.5307412  69.2709992 135.7464990   3.5179997
  69.4909992 136.2174990   2.7139997  69.8289992 136.1404990   4.1879997
  69.3766044 135.8642946   3.4985207  66.4709992 137.4744990   4.3529997
  67.2829992 137.9784990   4.3989997  66.2259992 137.3294990   5.2669997
  66.5491091 137.5239366   4.4828552  67.0069992 138.4604990  13.5369997
  67.1259992 139.0344990  14.2939997  67.6619992 137.7724990  13.6519997
  67.1118684 138.4460205  13.6561656  67.3549992 134.5554990   5.2909997
  67.0079992 135.1724990   5.9349997  68.0129992 135.0564990   4.8089997
  67.3964430 134.7076860   5.3140046  63.0119992 135.6184990   1.9779997
  62.9289992 136.5064990   2.3249997  63.9019992 135.3534990   2.2099997
  63.1209331 135.7041177   2.0568067  73.2109992 136.3674990  14.3719997
  72.2949992 136.6294990  14.2849997  73.5469992 136.3644990  13.4759997
  73.1308499 136.4030174  14.2388748  21.6409992  46.7754990  93.3499997
  22.0489992  45.9184990  93.2289997  21.3809992  46.7894990  94.2709997
  21.6617082  46.6600596  93.4579469  59.5869992 138.7104990   0.1539997
  59.5419992 139.6494990   0.3329997  58.6989992 138.4744990  -0.1150003
  59.4608166 138.8071698   0.1421507  60.3949992 133.4914990   8.8269997
  60.1659992 133.5504990   7.8999997  59.9519992 132.7004990   9.1339997
  60.3037387 133.3926412   8.7415223  63.6399992 137.4194990  15.1489997
  63.7899992 136.6904990  14.5469997  63.6419992 138.1964990  14.5899997
  63.6607967 137.4247720  14.9910523  64.0519992 135.7884990  12.6419997
  64.5879992 136.2404990  11.9899997  63.1999992 135.6804990  12.2189997
  64.0101795 135.8357444  12.4956211  70.0499992 139.0434990  17.9099997
  70.2419992 138.1124990  17.7979997  70.9069992 139.4684990  17.8989997
  70.1922176 138.9735090  17.8931757  62.1179992 138.6174990  17.0599997
  61.3509992 138.0844990  16.8499997  62.7969992 138.3074990  16.4609997
  62.1048292 138.5026360  16.9502693  64.8579992 133.2454990  13.0729997
  64.7599992 134.1914990  12.9679997  64.1149992 132.8724990  12.5969997
  64.7442123 133.3246811  12.9943204  66.1219992 137.5664990  16.6369997
  65.8859992 137.3474990  17.5379997  65.3389992 137.3594990  16.1269997
  65.9838382 137.5085340  16.6913991  68.8379992 136.6944990  15.7119997
  67.8899992 136.7264990  15.8439997  69.1499992 136.0684990  16.3659997
  68.7505293 136.6142934  15.8184130  70.4719992 135.3284990  17.7169997
  70.3749992 134.3764990  17.7119997  70.1499992 135.5964990  18.5779997
  70.4152468 135.2345896  17.8326192  26.2989992  47.8914990  78.3679997
  25.8399992  47.4074990  79.0539997  26.5539992  47.2224990  77.7319997
  26.2706178  47.7348511  78.3759785  60.2989992 136.5374990  16.7649997
  60.5099992 135.8314990  16.1549997  60.1869992 136.1004990  17.6089997
  60.3127668 136.3816619  16.7955445  65.0799992 132.5394990  15.7439997
  65.7909992 131.8994990  15.7299997  64.9789992 132.8054990  14.8309997
  65.1636858 132.4878591  15.6185501  65.4329992 134.2214990  17.7979997
  65.3019992 133.7464990  16.9779997  64.8339992 134.9664990  17.7429997
  65.3340829 134.2570949  17.6781823  73.9419992 138.8314990   0.1589997
  74.0389992 139.4984990  -0.5210003  73.8019992 138.0164990  -0.3220003
  73.9363407 138.8125670   0.0008312  72.8219992 137.7944990   4.2429997
  73.1019992 136.8874990   4.3669997  73.5809992 138.2284990   3.8539997
  72.9629258 137.7290935   4.2073691  73.4339992 138.3764990   9.6789997
  74.3669992 138.5884990   9.6439997  73.1989992 138.4774990  10.6009997
  73.5299517 138.4191844   9.7989113  73.4629992 139.1134990  12.4549997
  72.6199992 139.3814990  12.8199997  73.9059992 139.9354990  12.2439997
  73.4074035 139.2613351  12.4764770  57.7439992 137.5604990  15.9309997
  58.6639992 137.4384990  16.1679997  57.2949992 136.8104990  16.3209997
  57.8090500 137.4424576  16.0161016  75.7459992 133.0934990  17.8079997
  76.0959992 132.4394990  17.2019997  75.8929992 133.9304990  17.3679997
  75.8137192 133.1172545  17.6656712  73.4359992 135.0574990   4.2909997
  73.6179992 134.6084990   5.1159997  72.8359992 134.4734990   3.8269997
  73.3798187 134.9170563   4.3412721  25.5879992  45.7844990  90.7239997
  24.9699992  46.4584990  91.0049997  25.9319992  46.1054990  89.8909997
  25.5498181  45.9203233  90.6498266  58.9659992 135.8734990   8.8229997
  59.4109992 135.0814990   9.1249997  59.4319992 136.5894990   9.2529997
  59.0899718 135.8619546   8.9225247  57.2699992 138.8724990   9.8919997
  57.7619992 138.6514990   9.1009997  57.6319992 139.7124990  10.1729997
  57.3862923 138.9558480   9.8217389  75.2659992 135.2024990  16.1569997
  74.3489992 135.4734990  16.1209997  75.3889992 134.6674990  15.3729997
  75.1570828 135.1672711  16.0460767  75.3019992 135.1254990   0.8189997
  75.7149992 134.4044990   0.3439997  75.9839992 135.7944990   0.8769997
  75.4506060 135.1173741   0.7619233  57.5829992 135.1304990   3.9459997
  56.6579992 135.3384990   3.8169997  58.0369992 135.6144990   3.2559997
  57.5176298 135.2244311   3.8350433  57.5469992 133.8684990  12.2899997
  56.8819992 133.6224990  12.9329997  57.1039992 134.4904990  11.7129997
  57.3961168 133.9189225  12.2999830  74.2669992 133.2924990  13.9759997
  73.4539992 133.6174990  13.5889997  74.4999992 132.5314990  13.4429997
  74.1871347 133.2341891  13.8509824  67.6969992 134.7414990   8.2989997
  67.0219992 134.1114990   8.5549997  68.2609992 134.2574990   7.6959997
  67.6809363 134.5898886   8.2524810  72.8389992 132.8484990   8.4119997
  73.4429992 133.3964990   7.9099997  71.9699992 133.1674990   8.1709997
  72.8040419 132.9665628   8.3107741  74.5659992 133.9874990   6.7449997
  75.1779992 133.4734990   6.2179997  74.9489992 134.8644990   6.7679997
  74.7013867 134.0357613   6.6760888  30.6079992  48.2554990  94.0019997
  31.5609992  48.3394990  93.9739997  30.4479992  47.5434990  94.6209997
  30.7168161  48.1707198  94.0818689  60.0229992 133.3754990   6.1209997
  59.2459992 133.1404990   5.6139997  60.5539992 132.5784990   6.1299997
  59.9883735 133.2356462   6.0528090  58.8599992 133.1734990   1.9249997
  59.2989992 133.7844990   1.3329997  58.2259992 133.7114990   2.3989997
  58.8343859 133.3299076   1.9080287  64.6029992 133.3014990   5.9339997
  65.4769992 133.6904990   5.9049997  64.4669992 133.0864990   6.8569997
  64.7041953 133.3256654   6.0547599  70.1589992 133.3314990   7.5839997
  70.2359992 133.4274990   6.6339997  69.8839992 132.4244990   7.7119997
  70.1323233 133.2219093   7.4713665  71.5129992 133.3574990   3.2759997
  70.8099992 133.9724990   3.0659997  71.0679992 132.5204990   3.4069997
  71.3566550 133.3284679   3.2649819  60.7209992 135.0894990   0.3669997
  61.2119992 134.4594990  -0.1600003  61.3439992 135.3854990   1.0299997
  60.8725304 135.0432387   0.3844922  65.7469992 135.3824990   2.8239997
  65.9249992 134.7354990   3.5069997  65.6929992 136.2164990   3.2909997
  65.7640678 135.4066615   2.9806283  59.9809992 133.8894990  15.6389997
  59.6149992 133.1234990  16.0809997  60.8939992 133.9184990  15.9249997
  60.0543172 133.7885335  15.7381872  61.9539992 133.2394990  17.1739997
  62.8529992 132.9654990  16.9899997  61.5679992 132.4974990  17.6389997
  62.0247307 133.1017207  17.2117080  70.3749992 132.5724990  17.3569997
  70.4519992 132.1464990  18.2099997  71.2689992 132.5854990  17.0139997
  70.5063263 132.5159345  17.4274366  25.9279992  43.1394990  91.8069997
  26.0779992  42.4104990  91.2039997  25.9299992  43.9164990  91.2479997
  25.9487664  43.1448971  91.6490525  93.9429992 135.8204990  10.7649997
  93.9919992 136.4304990  11.5009997  94.3689992 136.2814990  10.0419997
  94.0072851 135.9663266  10.7680532  88.4209992 138.6124990  10.2319997
  88.5629992 137.6664990  10.2519997  88.3149992 138.8194990   9.3039997
  88.4261051 138.5109706  10.1092249  81.5759992 136.7144990   7.5049997
  81.6189992 137.5744990   7.0859997  81.1179992 136.1614990   6.8709997
  81.5200163 136.7574174   7.3620604  89.2979992 136.8454990   5.9049997
  89.9439992 136.5164990   6.5299997  89.8079992 137.3624990   5.2829997
  89.4554289 136.8704333   5.9063681  78.1959992 139.1114990   8.2669997
  78.8499992 138.5614990   8.6989997  78.2199992 138.8374990   7.3499997
  78.2887199 138.9992178   8.2021650  94.3349992 137.2984990  13.0009997
  93.6459992 137.9564990  12.9059997  94.3499992 137.1004990  13.9379997
  94.2427756 137.3617614  13.1145795  80.3859992 135.6324990  11.5789997
  80.1669992 136.1624990  10.8119997  79.7179992 135.8584990  12.2259997
  80.2656975 135.7355979  11.5615123  91.0619992 136.1364990   7.8859997
  90.8469992 135.3704990   8.4189997  91.7179992 136.6084990   8.3989997
  91.1212673 136.0955739   8.0281972  79.9799992 137.5244990   9.5309997
  80.5929992 138.1574990   9.9039997  80.4919992 137.0524990   8.8749997
  80.1331933 137.5473380   9.4933477  91.4089992 134.8514990  11.5649997
  90.6729992 135.4614990  11.5279997  92.0929992 135.2664990  11.0389997
  91.4005367 134.9912562  11.4888156  26.3399992  41.5084990  89.2989997
  26.8759992  41.9604990  88.6469997  25.4879992  41.4004990  88.8769997
  26.2981648  41.5557883  89.1526395  84.4119992 132.9374990   9.0309997
  84.2949992 131.9894990   8.9769997  83.5569992 133.2704990   9.3039997
  84.2803691 132.8525842   9.0605072  92.6539992 132.8974990   1.9809997
  91.7539992 133.0354990   2.2769997  92.9059992 133.7284990   1.5799997
  92.5647727 133.0288705   1.9672935  91.9129992 138.9874990  15.8169997
  91.5059992 139.4674990  15.0959997  91.9539992 138.0814990  15.5089997
  91.8628403 138.9307989  15.6767253  81.6809992 133.8414990   9.8089997
  80.8189992 133.7544990   9.4009997  81.6589992 134.6974990  10.2369997
  81.5600557 133.9453078   9.8110202  86.3439992 133.5634990  13.1839997
  86.7639992 133.1484990  13.9369997  85.4109992 133.3844990  13.3009997
  86.2753736 133.4824921  13.3028950  89.6699992 137.3184990  14.0369997
  89.1559992 137.1934990  14.8349997  89.5149992 138.2314990  13.7929997
  89.5787802 137.4247433  14.1131504  86.0059992 136.0554990   0.4689997
  85.7519992 136.0744990   1.3909997  85.7489992 135.1844990   0.1669997
  85.9364508 135.9403292   0.5544786  81.7719992 138.8064990  10.9039997
  81.1299992 138.7664990  11.6129997  81.8089992 139.7334990  10.6659997
  81.6891659 138.9262540  10.9688463  81.7689992 139.0274990   5.8159997
  80.8759992 138.6874990   5.7569997  82.2199992 138.6504990   5.0599997
  81.7077185 138.9300220   5.7057698  87.3049992 139.4434990   4.6329997
  86.8959992 140.2584990   4.3409997  88.0249992 139.3034990   4.0189997
  87.3464439 139.5360383   4.5100098  27.9219992  46.9484990  89.5389997
  28.6729992  46.7924990  88.9659997  27.5829992  47.8004990  89.2629997
  27.9789052  47.0422745  89.4233469  88.3089992 138.8894990   7.4469997
  88.1139992 139.4954990   6.7319997  88.4909992 138.0564990   7.0129997
  88.3069195 138.8597936   7.2904079  79.5219992 139.1274990  12.7709997
  79.4839992 139.5274990  13.6399997  79.0309992 138.3104990  12.8609997
  79.4504374 139.0718228  12.9020980  82.8879992 136.5014990  -0.4300003
  82.4569992 136.0564990   0.2989997  82.1699992 136.8724990  -0.9430003
  82.7319176 136.4907063  -0.3995087  76.1299992 136.2434990   6.6219997
  76.7609992 136.2144990   7.3409997  76.5799992 135.8184990   5.8909997
  76.2771082 136.1821269   6.6216307  77.4039992 136.9894990   2.0459997
  77.8789992 137.5804990   1.4609997  76.6869992 137.5194990   2.3929997
  77.3720406 137.1421011   2.0128495  84.3509992 136.4554990   6.9019997
  83.4399992 136.5124990   7.1909997  84.8559992 136.3954990   7.7129997
  84.2946873 136.4551838   7.0511190  79.1789992 138.0844990   5.7289997
  78.2899992 138.1834990   5.3889997  79.4749992 137.2424990   5.3829997
  79.0974001 137.9842473   5.6357318  82.8319992 138.0844990   3.3859997
  83.7639992 138.2134990   3.5639997  82.6169992 138.7534990   2.7359997
  82.9304472 138.1925817   3.3224873  88.7559992 135.6904990  10.1659997
  88.0789992 135.8214990  10.8299997  88.2699992 135.5354990   9.3559997
  88.5977265 135.6874665  10.1473380  81.5059992 139.2784990   0.9519997
  80.9639992 138.8994990   0.2609997  82.3399992 139.4734990   0.5239997
  81.5444390 139.2529091   0.7994374  32.3379992  44.7634990  94.5669997
  32.5299992  43.8324990  94.4559997  33.1949992  45.1884990  94.5569997
  32.4802320  44.6934743  94.5504433  85.6709992 139.2424990   8.7889997
  86.2349992 138.6964990   8.2419997  85.5229992 138.7214990   9.5779997
  85.7283037 139.0971798   8.8207212  80.6729992 135.3794990   5.2079997
  80.3549992 134.4764990   5.1719997  81.4539992 135.3814990   4.6549997
  80.7351079 135.2562240   5.1282908  84.2969992 137.6314990  11.2029997
  83.4619992 138.0854990  11.3139997  84.8209992 137.9074990  11.9549997
  84.2536072 137.7308960  11.3198118  88.7389992 136.6584990   1.0869997
  87.7999992 136.7694990   0.9359997  89.0359992 137.5144990   1.3939997
  88.6506136 136.7894977   1.1078568  89.4569992 138.5254990   2.7479997
  90.3489992 138.3874990   3.0669997  89.5139992 139.3164990   2.2109997
  89.5867380 138.6134777   2.7190981  94.3419992 138.7344990   2.4429997
  93.7879992 138.3384990   1.7699997  94.4429992 139.6454990   2.1649997
  94.2798589 138.8033904   2.3133839  78.6079992 136.3534990  13.5309997
  77.7149992 136.6914990  13.4629997  78.5089992 135.4974990  13.9489997
  78.4724752 136.2840986  13.5781644  87.3419992 136.0944990  12.4209997
  88.0409992 136.1684990  13.0709997  86.9619992 135.2294990  12.5749997
  87.3862662 135.9877050  12.5307412  88.1269992 135.7464990   3.5179997
  88.3469992 136.2174990   2.7139997  88.6849992 136.1404990   4.1879997
  88.2326044 135.8642946   3.4985207  85.3269992 137.4744990   4.3529997
  86.1389992 137.9784990   4.3989997  85.0819992 137.3294990   5.2669997
  85.4051091 137.5239366   4.4828552  33.6539992  47.5524990  92.6449997
  33.3729992  48.2614990  92.0669997  34.5969992  47.4794990  92.4939997
  33.7429272  47.6396704  92.5454976  85.8629992 138.4604990  13.5369997
  85.9819992 139.0344990  14.2939997  86.5179992 137.7724990  13.6519997
  85.9678684 138.4460205  13.6561656  86.2109992 134.5554990   5.2909997
  85.8639992 135.1724990   5.9349997  86.8689992 135.0564990   4.8089997
  86.2524430 134.7076860   5.3140046  81.8679992 135.6184990   1.9779997
  81.7849992 136.5064990   2.3249997  82.7579992 135.3534990   2.2099997
  81.9769331 135.7041177   2.0568067  92.0669992 136.3674990  14.3719997
  91.1509992 136.6294990  14.2849997  92.4029992 136.3644990  13.4759997
  91.9868499 136.4030174  14.2388748  78.4429992 138.7104990   0.1539997
  78.3979992 139.6494990   0.3329997  77.5549992 138.4744990  -0.1150003
  78.3168166 138.8071698   0.1421507  79.2509992 133.4914990   8.8269997
  79.0219992 133.5504990   7.8999997  78.8079992 132.7004990   9.1339997
  79.1597387 133.3926412   8.7415223  82.4959992 137.4194990  15.1489997
  82.6459992 136.6904990  14.5469997  82.4979992 138.1964990  14.5899997
  82.5167967 137.4247720  14.9910523  82.9079992 135.7884990  12.6419997
  83.4439992 136.2404990  11.9899997  82.0559992 135.6804990  12.2189997
  82.8661795 135.8357444  12.4956211  88.9059992 139.0434990  17.9099997
  89.0979992 138.1124990  17.7979997  89.7629992 139.4684990  17.8989997
  89.0482176 138.9735090  17.8931757  80.9739992 138.6174990  17.0599997
  80.2069992 138.0844990  16.8499997  81.6529992 138.3074990  16.4609997
  80.9608292 138.5026360  16.9502693  24.4059992  44.3374990  93.7179997
  23.6389992  43.8044990  93.5079997  25.0849992  44.0274990  93.1189997
  24.3928292  44.2226360  93.6082693  83.7139992 133.2454990  13.0729997
  83.6159992 134.1914990  12.9679997  82.9709992 132.8724990  12.5969997
  83.6002123 133.3246811  12.9943204  84.9779992 137.5664990  16.6369997
  84.7419992 137.3474990  17.5379997  84.1949992 137.3594990  16.1269997
  84.8398382 137.5085340  16.6913991  87.6939992 136.6944990  15.7119997
  86.7459992 136.7264990  15.8439997  88.0059992 136.0684990  16.3659997
  87.6065293 136.6142934  15.8184130  89.3279992 135.3284990  17.7169997
  89.2309992 134.3764990  17.7119997  89.0059992 135.5964990  18.5779997
  89.2712468 135.2345896  17.8326192  79.1549992 136.5374990  16.7649997
  79.3659992 135.8314990  16.1549997  79.0429992 136.1004990  17.6089997
  79.1687668 136.3816619  16.7955445  83.9359992 132.5394990  15.7439997
  84.6469992 131.8994990  15.7299997  83.8349992 132.8054990  14.8309997
  84.0196858 132.4878591  15.6185501  84.2889992 134.2214990  17.7979997
  84.1579992 133.7464990  16.9779997  83.6899992 134.9664990  17.7429997
  84.1900829 134.2570949  17.6781823  92.7979992 138.8314990   0.1589997
  92.8949992 139.4984990  -0.5210003  92.6579992 138.0164990  -0.3220003
  92.7923407 138.8125670   0.0008312  91.6779992 137.7944990   4.2429997
  91.9579992 136.8874990   4.3669997  92.4369992 138.2284990   3.8539997
  91.8189258 137.7290935   4.2073691  92.2899992 138.3764990   9.6789997
  93.2229992 138.5884990   9.6439997  92.0549992 138.4774990  10.6009997
  92.3859517 138.4191844   9.7989113  27.1459992  38.9654990  89.7309997
  27.0479992  39.9114990  89.6249997  26.4029992  38.5924990  89.2549997
  27.0322363  39.0445987  89.6522029  92.3189992 139.1134990  12.4549997
  91.4759992 139.3814990  12.8199997  92.7619992 139.9354990  12.2439997
  92.2634035 139.2613351  12.4764770  76.5999992 137.5604990  15.9309997
  77.5199992 137.4384990  16.1679997  76.1509992 136.8104990  16.3209997
  76.6650500 137.4424576  16.0161016  94.6019992 133.0934990  17.8079997
  94.9519992 132.4394990  17.2019997  94.7489992 133.9304990  17.3679997
  94.6697192 133.1172545  17.6656712  92.2919992 135.0574990   4.2909997
  92.4739992 134.6084990   5.1159997  91.6919992 134.4734990   3.8269997
  92.2358187 134.9170563   4.3412721  77.8219992 135.8734990   8.8229997
  78.2669992 135.0814990   9.1249997  78.2879992 136.5894990   9.2529997
  77.9459718 135.8619546   8.9225247  76.1259992 138.8724990   9.8919997
  76.6179992 138.6514990   9.1009997  76.4879992 139.7124990  10.1729997
  76.2422923 138.9558480   9.8217389  94.1219992 135.2024990  16.1569997
  93.2049992 135.4734990  16.1209997  94.2449992 134.6674990  15.3729997
  94.0130828 135.1672711  16.0460767  94.1579992 135.1254990   0.8189997
  94.5709992 134.4044990   0.3439997  94.8399992 135.7944990   0.8769997
  94.3066060 135.1173741   0.7619233  76.4389992 135.1304990   3.9459997
  75.5139992 135.3384990   3.8169997  76.8929992 135.6144990   3.2559997
  76.3736298 135.2244311   3.8350433  76.4029992 133.8684990  12.2899997
  75.7379992 133.6224990  12.9329997  75.9599992 134.4904990  11.7129997
  76.2521168 133.9189225  12.2999830  28.4099992  43.2864990  93.2939997
  28.1739992  43.0674990  94.1959997  27.6269992  43.0794990  92.7849997
  28.2718444  43.2285688  93.3484518  93.1229992 133.2924990  13.9759997
  92.3099992 133.6174990  13.5889997  93.3559992 132.5314990  13.4429997
  93.0431347 133.2341891  13.8509824  86.5529992 134.7414990   8.2989997
  85.8779992 134.1114990   8.5549997  87.1169992 134.2574990   7.6959997
  86.5369363 134.5898886   8.2524810  91.6949992 132.8484990   8.4119997
  92.2989992 133.3964990   7.9099997  90.8259992 133.1674990   8.1709997
  91.6600419 132.9665628   8.3107741  93.4219992 133.9874990   6.7449997
  94.0339992 133.4734990   6.2179997  93.8049992 134.8644990   6.7679997
  93.5573867 134.0357613   6.6760888  78.8789992 133.3754990   6.1209997
  78.1019992 133.1404990   5.6139997  79.4099992 132.5784990   6.1299997
  78.8443735 133.2356462   6.0528090  77.7159992 133.1734990   1.9249997
  78.1549992 133.7844990   1.3329997  77.0819992 133.7114990   2.3989997
  77.6903859 133.3299076   1.9080287  83.4589992 133.3014990   5.9339997
  84.3329992 133.6904990   5.9049997  83.3229992 133.0864990   6.8569997
  83.5601953 133.3256654   6.0547599  89.0149992 133.3314990   7.5839997
  89.0919992 133.4274990   6.6339997  88.7399992 132.4244990   7.7119997
  88.9883233 133.2219093   7.4713665  90.3689992 133.3574990   3.2759997
  89.6659992 133.9724990   3.0659997  89.9239992 132.5204990   3.4069997
  90.2126550 133.3284679   3.2649819  79.5769992 135.0894990   0.3669997
  80.0679992 134.4594990  -0.1600003  80.1999992 135.3854990   1.0299997
  79.7285304 135.0432387   0.3844922  31.1259992  42.4144990  92.3699997
  30.1779992  42.4464990  92.5019997  31.4379992  41.7884990  93.0239997
  31.0385293  42.3342934  92.4764130  84.6029992 135.3824990   2.8239997
  84.7809992 134.7354990   3.5069997  84.5489992 136.2164990   3.2909997
  84.6200678 135.4066615   2.9806283  78.8369992 133.8894990  15.6389997
  78.4709992 133.1234990  16.0809997  79.7499992 133.9184990  15.9249997
  78.9103172 133.7885335  15.7381872  80.8099992 133.2394990  17.1739997
  81.7089992 132.9654990  16.9899997  80.4239992 132.4974990  17.6389997
  80.8807307 133.1017207  17.2117080  89.2309992 132.5724990  17.3569997
  89.3079992 132.1464990  18.2099997  90.1249992 132.5854990  17.0139997
  89.3623263 132.5159345  17.4274366 112.7989992 135.8204990  10.7649997
 112.8479992 136.4304990  11.5009997 113.2249992 136.2814990  10.0419997
 112.8632851 135.9663266  10.7680532 107.2769992 138.6124990  10.2319997
 107.4189992 137.6664990  10.2519997 107.1709992 138.8194990   9.3039997
 107.2821051 138.5109706  10.1092249 100.4319992 136.7144990   7.5049997
 100.4749992 137.5744990   7.0859997  99.9739992 136.1614990   6.8709997
 100.3760163 136.7574174   7.3620604 108.1539992 136.8454990   5.9049997
 108.7999992 136.5164990   6.5299997 108.6639992 137.3624990   5.2829997
 108.3114289 136.8704333   5.9063681  97.0519992 139.1114990   8.2669997
  97.7059992 138.5614990   8.6989997  97.0759992 138.8374990   7.3499997
  97.1447199 138.9992179   8.2021650 113.1909992 137.2984990  13.0009997
 112.5019992 137.9564990  12.9059997 113.2059992 137.1004990  13.9379997
 113.0987756 137.3617614  13.1145795  32.7599992  41.0484990  94.3749997
  32.6629992  40.0964990  94.3689997  32.4379992  41.3164990  95.2359997
  32.7032229  40.9544706  94.4905108  99.2419992 135.6324990  11.5789997
  99.0229992 136.1624990  10.8119997  98.5739992 135.8584990  12.2259997
  99.1216975 135.7355979  11.5615123 109.9179992 136.1364990   7.8859997
 109.7029992 135.3704990   8.4189997 110.5739992 136.6084990   8.3989997
 109.9772673 136.0955739   8.0281972  98.8359992 137.5244990   9.5309997
  99.4489992 138.1574990   9.9039997  99.3479992 137.0524990   8.8749997
  98.9891933 137.5473380   9.4933477 110.2649992 134.8514990  11.5649997
 109.5289992 135.4614990  11.5279997 110.9489992 135.2664990  11.0389997
 110.2565367 134.9912562  11.4888156 103.2679992 132.9374990   9.0309997
 103.1509992 131.9894990   8.9769997 102.4129992 133.2704990   9.3039997
 103.1363691 132.8525842   9.0605072 111.5099992 132.8974990   1.9809997
 110.6099992 133.0354990   2.2769997 111.7619992 133.7284990   1.5799997
 111.4207727 133.0288705   1.9672935 110.7689992 138.9874990  15.8169997
 110.3619992 139.4674990  15.0959997 110.8099992 138.0814990  15.5089997
 110.7188403 138.9307989  15.6767253 100.5369992 133.8414990   9.8089997
  99.6749992 133.7544990   9.4009997 100.5149992 134.6974990  10.2369997
 100.4160557 133.9453078   9.8110202 105.1999992 133.5634990  13.1839997
 105.6199992 133.1484990  13.9369997 104.2669992 133.3844990  13.3009997
 105.1313736 133.4824921  13.3028950 108.5259992 137.3184990  14.0369997
 108.0119992 137.1934990  14.8349997 108.3709992 138.2314990  13.7929997
 108.4347802 137.4247433  14.1131504  22.5869992  42.2574990  93.4229997
  22.7979992  41.5514990  92.8119997  22.4749992  41.8204990  94.2669997
  22.6007674  42.1016376  93.4534199 104.8619992 136.0554990   0.4689997
 104.6079992 136.0744990   1.3909997 104.6049992 135.1844990   0.1669997
 104.7924508 135.9403292   0.5544786 100.6279992 138.8064990  10.9039997
  99.9859992 138.7664990  11.6129997 100.6649992 139.7334990  10.6659997
 100.5451659 138.9262540  10.9688463 100.6249992 139.0274990   5.8159997
  99.7319992 138.6874990   5.7569997 101.0759992 138.6504990   5.0599997
 100.5637185 138.9300220   5.7057698 106.1609992 139.4434990   4.6329997
 105.7519992 140.2584990   4.3409997 106.8809992 139.3034990   4.0189997
 106.2024439 139.5360383   4.5100098 107.1649992 138.8894990   7.4469997
 106.9699992 139.4954990   6.7319997 107.3469992 138.0564990   7.0129997
 107.1629195 138.8597936   7.2904079  98.3779992 139.1274990  12.7709997
  98.3399992 139.5274990  13.6399997  97.8869992 138.3104990  12.8609997
  98.3064374 139.0718228  12.9020980 101.7439992 136.5014990  -0.4300003
 101.3129992 136.0564990   0.2989997 101.0259992 136.8724990  -0.9430003
 101.5879176 136.4907063  -0.3995087  94.9859992 136.2434990   6.6219997
  95.6169992 136.2144990   7.3409997  95.4359992 135.8184990   5.8909997
  95.1331082 136.1821269   6.6216307  96.2599992 136.9894990   2.0459997
  96.7349992 137.5804990   1.4609997  95.5429992 137.5194990   2.3929997
  96.2280406 137.1421011   2.0128495 103.2069992 136.4554990   6.9019997
 102.2959992 136.5124990   7.1909997 103.7119992 136.3954990   7.7129997
 103.1506873 136.4551838   7.0511190  27.3679992  38.2594990  92.4019997
  28.0789992  37.6194990  92.3879997  27.2669992  38.5254990  91.4879997
  27.4516732  38.2078451  92.2765475  98.0349992 138.0844990   5.7289997
  97.1459992 138.1834990   5.3889997  98.3309992 137.2424990   5.3829997
  97.9534001 137.9842473   5.6357318 101.6879992 138.0844990   3.3859997
 102.6199992 138.2134990   3.5639997 101.4729992 138.7534990   2.7359997
 101.7864472 138.1925817   3.3224873 107.6119992 135.6904990  10.1659997
 106.9349992 135.8214990  10.8299997 107.1259992 135.5354990   9.3559997
 107.4537265 135.6874665  10.1473380 100.3619992 139.2784990   0.9519997
  99.8199992 138.8994990   0.2609997 101.1959992 139.4734990   0.5239997
 100.4004390 139.2529091   0.7994374 104.5269992 139.2424990   8.7889997
 105.0909992 138.6964990   8.2419997 104.3789992 138.7214990   9.5779997
 104.5843037 139.0971798   8.8207212  99.5289992 135.3794990   5.2079997
  99.2109992 134.4764990   5.1719997 100.3099992 135.3814990   4.6549997
  99.5911079 135.2562240   5.1282908 103.1529992 137.6314990  11.2029997
 102.3179992 138.0854990  11.3139997 103.6769992 137.9074990  11.9549997
 103.1096072 137.7308960  11.3198118 107.5949992 136.6584990   1.0869997
 106.6559992 136.7694990   0.9359997 107.8919992 137.5144990   1.3939997
 107.5066136 136.7894977   1.1078568 108.3129992 138.5254990   2.7479997
 109.2049992 138.3874990   3.0669997 108.3699992 139.3164990   2.2109997
 108.4427380 138.6134777   2.7190981 113.1979992 138.7344990   2.4429997
 112.6439992 138.3384990   1.7699997 113.2989992 139.6454990   2.1649997
 113.1358589 138.8033904   2.3133839  27.7209992  39.9414990  94.4559997
  27.5899992  39.4664990  93.6349997  27.1219992  40.6864990  94.3999997
  27.6221524  39.9771968  94.3361553  97.4639992 136.3534990  13.5309997
  96.5709992 136.6914990  13.4629997  97.3649992 135.4974990  13.9489997
  97.3284752 136.2840986  13.5781644 106.1979992 136.0944990  12.4209997
 106.8969992 136.1684990  13.0709997 105.8179992 135.2294990  12.5749997
 106.2422662 135.9877050  12.5307412 106.9829992 135.7464990   3.5179997
 107.2029992 136.2174990   2.7139997 107.5409992 136.1404990   4.1879997
 107.0886044 135.8642946   3.4985207 104.1829992 137.4744990   4.3529997
 104.9949992 137.9784990   4.3989997 103.9379992 137.3294990   5.2669997
 104.2611091 137.5239366   4.4828552 104.7189992 138.4604990  13.5369997
 104.8379992 139.0344990  14.2939997 105.3739992 137.7724990  13.6519997
 104.8238684 138.4460205  13.6561656 105.0669992 134.5554990   5.2909997
 104.7199992 135.1724990   5.9349997 105.7249992 135.0564990   4.8089997
 105.1084430 134.7076860   5.3140046 100.7239992 135.6184990   1.9779997
 100.6409992 136.5064990   2.3249997 101.6139992 135.3534990   2.2099997
 100.8329331 135.7041177   2.0568067 110.9229992 136.3674990  14.3719997
 110.0069992 136.6294990  14.2849997 111.2589992 136.3644990  13.4759997
 110.8428499 136.4030174  14.2388748  97.2989992 138.7104990   0.1539997
  97.2539992 139.6494990   0.3329997  96.4109992 138.4744990  -0.1150003
  97.1728166 138.8071698   0.1421507  98.1069992 133.4914990   8.8269997
  97.8779992 133.5504990   7.8999997  97.6639992 132.7004990   9.1339997
  98.0157387 133.3926412   8.7415223  19.4849992  56.8544990  82.1919997
  18.8379992  56.3924990  81.6589997  19.8399992  56.1824990  82.7749997
  19.4443861  56.7004707  82.1977939 101.3519992 137.4194990  15.1489997
 101.5019992 136.6904990  14.5469997 101.3539992 138.1964990  14.5899997
 101.3727967 137.4247720  14.9910523 101.7639992 135.7884990  12.6419997
 102.2999992 136.2404990  11.9899997 100.9119992 135.6804990  12.2189997
 101.7221795 135.8357444  12.4956211 107.7619992 139.0434990  17.9099997
 107.9539992 138.1124990  17.7979997 108.6189992 139.4684990  17.8989997
 107.9042176 138.9735090  17.8931757  99.8299992 138.6174990  17.0599997
  99.0629992 138.0844990  16.8499997 100.5089992 138.3074990  16.4609997
  99.8168292 138.5026360  16.9502693 102.5699992 133.2454990  13.0729997
 102.4719992 134.1914990  12.9679997 101.8269992 132.8724990  12.5969997
 102.4562123 133.3246811  12.9943204 103.8339992 137.5664990  16.6369997
 103.5979992 137.3474990  17.5379997 103.0509992 137.3594990  16.1269997
 103.6958382 137.5085340  16.6913991 106.5499992 136.6944990  15.7119997
 105.6019992 136.7264990  15.8439997 106.8619992 136.0684990  16.3659997
 106.4625293 136.6142934  15.8184130 108.1839992 135.3284990  17.7169997
 108.0869992 134.3764990  17.7119997 107.8619992 135.5964990  18.5779997
 108.1272468 135.2345896  17.8326192  98.0109992 136.5374990  16.7649997
  98.2219992 135.8314990  16.1549997  97.8989992 136.1004990  17.6089997
  98.0247668 136.3816619  16.7955445 102.7919992 132.5394990  15.7439997
 103.5029992 131.8994990  15.7299997 102.6909992 132.8054990  14.8309997
 102.8756858 132.4878591  15.6185501  20.3549992  54.9344990  83.9969997
  20.0209992  54.0544990  84.1689997  20.5769992  55.2804990  84.8609997
  20.3392677  54.8607365  84.1374252 103.1449992 134.2214990  17.7979997
 103.0139992 133.7464990  16.9779997 102.5459992 134.9664990  17.7429997
 103.0460829 134.2570949  17.6781823 111.6539992 138.8314990   0.1589997
 111.7509992 139.4984990  -0.5210003 111.5139992 138.0164990  -0.3220003
 111.6483407 138.8125670   0.0008312 110.5339992 137.7944990   4.2429997
 110.8139992 136.8874990   4.3669997 111.2929992 138.2284990   3.8539997
 110.6749258 137.7290935   4.2073691 111.1459992 138.3764990   9.6789997
 112.0789992 138.5884990   9.6439997 110.9109992 138.4774990  10.6009997
 111.2419517 138.4191844   9.7989113 111.1749992 139.1134990  12.4549997
 110.3319992 139.3814990  12.8199997 111.6179992 139.9354990  12.2439997
 111.1194035 139.2613351  12.4764770  95.4559992 137.5604990  15.9309997
  96.3759992 137.4384990  16.1679997  95.0069992 136.8104990  16.3209997
  95.5210500 137.4424576  16.0161016 113.4579992 133.0934990  17.8079997
 113.8079992 132.4394990  17.2019997 113.6049992 133.9304990  17.3679997
 113.5257192 133.1172545  17.6656712 111.1479992 135.0574990   4.2909997
 111.3299992 134.6084990   5.1159997 110.5479992 134.4734990   3.8269997
 111.0918187 134.9170563   4.3412721  96.6779992 135.8734990   8.8229997
  97.1229992 135.0814990   9.1249997  97.1439992 136.5894990   9.2529997
  96.8019718 135.8619546   8.9225247  94.9819992 138.8724990   9.8919997
  95.4739992 138.6514990   9.1009997  95.3439992 139.7124990  10.1729997
  95.0982923 138.9558480   9.8217389  37.9039992  55.7444990  86.9769997
  37.8819992  55.9294990  87.9159997  38.5939992  56.3124990  86.6359997
  37.9943439  55.8466898  87.0594774 112.9779992 135.2024990  16.1569997
 112.0609992 135.4734990  16.1209997 113.1009992 134.6674990  15.3729997
 112.8690828 135.1672711  16.0460767 113.0139992 135.1254990   0.8189997
 113.4269992 134.4044990   0.3439997 113.6959992 135.7944990   0.8769997
 113.1626060 135.1173741   0.7619233  95.2949992 135.1304990   3.9459997
  94.3699992 135.3384990   3.8169997  95.7489992 135.6144990   3.2559997
  95.2296298 135.2244311   3.8350433  95.2589992 133.8684990  12.2899997
  94.5939992 133.6224990  12.9329997  94.8159992 134.4904990  11.7129997
  95.1081168 133.9189225  12.2999830 111.9789992 133.2924990  13.9759997
 111.1659992 133.6174990  13.5889997 112.2119992 132.5314990  13.4429997
 111.8991347 133.2341891  13.8509824 105.4089992 134.7414990   8.2989997
 104.7339992 134.1114990   8.5549997 105.9729992 134.2574990   7.6959997
 105.3929363 134.5898886   8.2524810 110.5509992 132.8484990   8.4119997
 111.1549992 133.3964990   7.9099997 109.6819992 133.1674990   8.1709997
 110.5160419 132.9665628   8.3107741 112.2779992 133.9874990   6.7449997
 112.8899992 133.4734990   6.2179997 112.6609992 134.8644990   6.7679997
 112.4133867 134.0357613   6.6760888  97.7349992 133.3754990   6.1209997
  96.9579992 133.1404990   5.6139997  98.2659992 132.5784990   6.1299997
  97.7003735 133.2356462   6.0528090  96.5719992 133.1734990   1.9249997
  97.0109992 133.7844990   1.3329997  95.9379992 133.7114990   2.3989997
  96.5463859 133.3299076   1.9080287  37.4669992  55.3114990  89.8989997
  36.9799992  54.5754990  89.5279997  38.0159992  54.9174990  90.5769997
  37.4746101  55.1576267  89.9399034 102.3149992 133.3014990   5.9339997
 103.1889992 133.6904990   5.9049997 102.1789992 133.0864990   6.8569997
 102.4161953 133.3256654   6.0547599 107.8709992 133.3314990   7.5839997
 107.9479992 133.4274990   6.6339997 107.5959992 132.4244990   7.7119997
 107.8443233 133.2219093   7.4713665 109.2249992 133.3574990   3.2759997
 108.5219992 133.9724990   3.0659997 108.7799992 132.5204990   3.4069997
 109.0686550 133.3284679   3.2649819  98.4329992 135.0894990   0.3669997
  98.9239992 134.4594990  -0.1600003  99.0559992 135.3854990   1.0299997
  98.5845304 135.0432387   0.3844922 103.4589992 135.3824990   2.8239997
 103.6369992 134.7354990   3.5069997 103.4049992 136.2164990   3.2909997
 103.4760678 135.4066615   2.9806283  97.6929992 133.8894990  15.6389997
  97.3269992 133.1234990  16.0809997  98.6059992 133.9184990  15.9249997
  97.7663172 133.7885335  15.7381872  99.6659992 133.2394990  17.1739997
 100.5649992 132.9654990  16.9899997  99.2799992 132.4974990  17.6389997
  99.7367307 133.1017207  17.2117080 108.0869992 132.5724990  17.3569997
 108.1639992 132.1464990  18.2099997 108.9809992 132.5854990  17.0139997
 108.2183263 132.5159345  17.4274366 131.6549992 135.8204990  10.7649997
 131.7039992 136.4304990  11.5009997 132.0809992 136.2814990  10.0419997
 131.7192851 135.9663266  10.7680532 126.1329992 138.6124990  10.2319997
 126.2749992 137.6664990  10.2519997 126.0269992 138.8194990   9.3039997
 126.1381051 138.5109706  10.1092249  35.9179992  51.1014990  94.5369997
  35.0519992  50.9964990  94.9309997  36.2939992  51.8594990  94.9839997
  35.8503768  51.1896151  94.6513258 119.2879992 136.7144990   7.5049997
 119.3309992 137.5744990   7.0859997 118.8299992 136.1614990   6.8709997
 119.2320163 136.7574174   7.3620604 127.0099992 136.8454990   5.9049997
 127.6559992 136.5164990   6.5299997 127.5199992 137.3624990   5.2829997
 127.1674289 136.8704333   5.9063681 115.9079992 139.1114990   8.2669997
 116.5619992 138.5614990   8.6989997 115.9319992 138.8374990   7.3499997
 116.0007199 138.9992178   8.2021650 132.0469992 137.2984990  13.0009997
 131.3579992 137.9564990  12.9059997 132.0619992 137.1004990  13.9379997
 131.9547756 137.3617614  13.1145795 118.0979992 135.6324990  11.5789997
 117.8789992 136.1624990  10.8119997 117.4299992 135.8584990  12.2259997
 117.9776975 135.7355979  11.5615123 128.7739992 136.1364990   7.8859997
 128.5589992 135.3704990   8.4189997 129.4299992 136.6084990   8.3989997
 128.8332673 136.0955739   8.0281972 117.6919992 137.5244990   9.5309997
 118.3049992 138.1574990   9.9039997 118.2039992 137.0524990   8.8749997
 117.8451933 137.5473380   9.4933477 129.1209992 134.8514990  11.5649997
 128.3849992 135.4614990  11.5279997 129.8049992 135.2664990  11.0389997
 129.1125367 134.9912562  11.4888156 122.1239992 132.9374990   9.0309997
 122.0069992 131.9894990   8.9769997 121.2689992 133.2704990   9.3039997
 121.9923691 132.8525842   9.0605072 130.3659992 132.8974990   1.9809997
 129.4659992 133.0354990   2.2769997 130.6179992 133.7284990   1.5799997
 130.2767727 133.0288705   1.9672935  37.2189992  49.3574990  80.0509997
  38.0689992  49.7784990  80.1789997  37.2239992  48.6174990  80.6589997
  37.3359745  49.3151347  80.1506479 129.6249992 138.9874990  15.8169997
 129.2179992 139.4674990  15.0959997 129.6659992 138.0814990  15.5089997
 129.5748403 138.9307989  15.6767253 119.3929992 133.8414990   9.8089997
 118.5309992 133.7544990   9.4009997 119.3709992 134.6974990  10.2369997
 119.2720557 133.9453078   9.8110202 124.0559992 133.5634990  13.1839997
 124.4759992 133.1484990  13.9369997 123.1229992 133.3844990  13.3009997
 123.9873736 133.4824921  13.3028950 127.3819992 137.3184990  14.0369997
 126.8679992 137.1934990  14.8349997 127.2269992 138.2314990  13.7929997
 127.2907802 137.4247433  14.1131504 123.7179992 136.0554990   0.4689997
 123.4639992 136.0744990   1.3909997 123.4609992 135.1844990   0.1669997
 123.6484508 135.9403292   0.5544786 119.4839992 138.8064990  10.9039997
 118.8419992 138.7664990  11.6129997 119.5209992 139.7334990  10.6659997
 119.4011659 138.9262540  10.9688463 119.4809992 139.0274990   5.8159997
 118.5879992 138.6874990   5.7569997 119.9319992 138.6504990   5.0599997
 119.4197185 138.9300220   5.7057698 125.0169992 139.4434990   4.6329997
 124.6079992 140.2584990   4.3409997 125.7369992 139.3034990   4.0189997
 125.0584439 139.5360383   4.5100098 126.0209992 138.8894990   7.4469997
 125.8259992 139.4954990   6.7319997 126.2029992 138.0564990   7.0129997
 126.0189195 138.8597936   7.2904079 117.2339992 139.1274990  12.7709997
 117.1959992 139.5274990  13.6399997 116.7429992 138.3104990  12.8609997
 117.1624374 139.0718228  12.9020980  37.6129992  47.4114990  81.8749997
  36.8869992  46.9314990  82.2729997  38.1939992  47.6164990  82.6069997
  37.5922504  47.3735592  82.0284199 120.5999992 136.5014990  -0.4300003
 120.1689992 136.0564990   0.2989997 119.8819992 136.8724990  -0.9430003
 120.4439176 136.4907063  -0.3995087 113.8419992 136.2434990   6.6219997
 114.4729992 136.2144990   7.3409997 114.2919992 135.8184990   5.8909997
 113.9891082 136.1821269   6.6216307 115.1159992 136.9894990   2.0459997
 115.5909992 137.5804990   1.4609997 114.3989992 137.5194990   2.3929997
 115.0840406 137.1421011   2.0128495 122.0629992 136.4554990   6.9019997
 121.1519992 136.5124990   7.1909997 122.5679992 136.3954990   7.7129997
 122.0066873 136.4551838   7.0511190 116.8909992 138.0844990   5.7289997
 116.0019992 138.1834990   5.3889997 117.1869992 137.2424990   5.3829997
 116.8094001 137.9842473   5.6357318 120.5439992 138.0844990   3.3859997
 121.4759992 138.2134990   3.5639997 120.3289992 138.7534990   2.7359997
 120.6424472 138.1925817   3.3224873 126.4679992 135.6904990  10.1659997
 125.7909992 135.8214990  10.8299997 125.9819992 135.5354990   9.3559997
 126.3097265 135.6874665  10.1473380 119.2179992 139.2784990   0.9519997
 118.6759992 138.8994990   0.2609997 120.0519992 139.4734990   0.5239997
 119.2564390 139.2529091   0.7994374 123.3829992 139.2424990   8.7889997
 123.9469992 138.6964990   8.2419997 123.2349992 138.7214990   9.5779997
 123.4403037 139.0971798   8.8207212 118.3849992 135.3794990   5.2079997
 118.0669992 134.4764990   5.1719997 119.1659992 135.3814990   4.6549997
 118.4471079 135.2562240   5.1282908  37.3719992  50.1964990  86.8229997
  38.2059992  49.8184990  86.5419997  37.4839992  51.1394990  86.7039997
  37.5011917  50.2722954  86.7684844 122.0089992 137.6314990  11.2029997
 121.1739992 138.0854990  11.3139997 122.5329992 137.9074990  11.9549997
 121.9656072 137.7308960  11.3198118 126.4509992 136.6584990   1.0869997
 125.5119992 136.7694990   0.9359997 126.7479992 137.5144990   1.3939997
 126.3626136 136.7894977   1.1078568 127.1689992 138.5254990   2.7479997
 128.0609992 138.3874990   3.0669997 127.2259992 139.3164990   2.2109997
 127.2987380 138.6134777   2.7190981 132.0539992 138.7344990   2.4429997
 131.4999992 138.3384990   1.7699997 132.1549992 139.6454990   2.1649997
 131.9918589 138.8033904   2.3133839 116.3199992 136.3534990  13.5309997
 115.4269992 136.6914990  13.4629997 116.2209992 135.4974990  13.9489997
 116.1844752 136.2840986  13.5781644 125.0539992 136.0944990  12.4209997
 125.7529992 136.1684990  13.0709997 124.6739992 135.2294990  12.5749997
 125.0982662 135.9877050  12.5307412 125.8389992 135.7464990   3.5179997
 126.0589992 136.2174990   2.7139997 126.3969992 136.1404990   4.1879997
 125.9446044 135.8642946   3.4985207 123.0389992 137.4744990   4.3529997
 123.8509992 137.9784990   4.3989997 122.7939992 137.3294990   5.2669997
 123.1171091 137.5239366   4.4828552 123.5749992 138.4604990  13.5369997
 123.6939992 139.0344990  14.2939997 124.2299992 137.7724990  13.6519997
 123.6798684 138.4460205  13.6561656 123.9229992 134.5554990   5.2909997
 123.5759992 135.1724990   5.9349997 124.5809992 135.0564990   4.8089997
 123.9644430 134.7076860   5.3140046  35.8579992  53.0744990  89.1299997
  35.2109992  53.3994990  89.7549997  35.3409992  52.6334990  88.4549997
  35.6994068  53.0594726  89.1244918 119.5799992 135.6184990   1.9779997
 119.4969992 136.5064990   2.3249997 120.4699992 135.3534990   2.2099997
 119.6889331 135.7041177   2.0568067 129.7789992 136.3674990  14.3719997
 128.8629992 136.6294990  14.2849997 130.1149992 136.3644990  13.4759997
 129.6988499 136.4030174  14.2388748 116.1549992 138.7104990   0.1539997
 116.1099992 139.6494990   0.3329997 115.2669992 138.4744990  -0.1150003
 116.0288166 138.8071698   0.1421507 116.9629992 133.4914990   8.8269997
 116.7339992 133.5504990   7.8999997 116.5199992 132.7004990   9.1339997
 116.8717387 133.3926412   8.7415223 120.2079992 137.4194990  15.1489997
 120.3579992 136.6904990  14.5469997 120.2099992 138.1964990  14.5899997
 120.2287967 137.4247720  14.9910523 120.6199992 135.7884990  12.6419997
 121.1559992 136.2404990  11.9899997 119.7679992 135.6804990  12.2189997
 120.5781795 135.8357444  12.4956211 126.6179992 139.0434990  17.9099997
 126.8099992 138.1124990  17.7979997 127.4749992 139.4684990  17.8989997
 126.7602176 138.9735090  17.8931757 118.6859992 138.6174990  17.0599997
 117.9189992 138.0844990  16.8499997 119.3649992 138.3074990  16.4609997
 118.6728292 138.5026360  16.9502693 121.4259992 133.2454990  13.0729997
 121.3279992 134.1914990  12.9679997 120.6829992 132.8724990  12.5969997
 121.3122123 133.3246811  12.9943204 122.6899992 137.5664990  16.6369997
 122.4539992 137.3474990  17.5379997 121.9069992 137.3594990  16.1269997
 122.5518382 137.5085340  16.6913991  37.8809992  47.3124990  78.2659997
  37.3599992  47.6684990  77.5469997  37.8479992  47.9874990  78.9439997
  37.8051525  47.4525273  78.2591408 125.4059992 136.6944990  15.7119997
 124.4579992 136.7264990  15.8439997 125.7179992 136.0684990  16.3659997
 125.3185293 136.6142934  15.8184130 127.0399992 135.3284990  17.7169997
 126.9429992 134.3764990  17.7119997 126.7179992 135.5964990  18.5779997
 126.9832468 135.2345896  17.8326192 116.8669992 136.5374990  16.7649997
 117.0779992 135.8314990  16.1549997 116.7549992 136.1004990  17.6089997
 116.8807668 136.3816619  16.7955445 121.6479992 132.5394990  15.7439997
 122.3589992 131.8994990  15.7299997 121.5469992 132.8054990  14.8309997
 121.7316858 132.4878591  15.6185501 122.0009992 134.2214990  17.7979997
 121.8699992 133.7464990  16.9779997 121.4019992 134.9664990  17.7429997
 121.9020829 134.2570949  17.6781823 130.5099992 138.8314990   0.1589997
 130.6069992 139.4984990  -0.5210003 130.3699992 138.0164990  -0.3220003
 130.5043407 138.8125670   0.0008312 129.3899992 137.7944990   4.2429997
 129.6699992 136.8874990   4.3669997 130.1489992 138.2284990   3.8539997
 129.5309258 137.7290935   4.2073691 130.0019992 138.3764990   9.6789997
 130.9349992 138.5884990   9.6439997 129.7669992 138.4774990  10.6009997
 130.0979517 138.4191844   9.7989113 130.0309992 139.1134990  12.4549997
 129.1879992 139.3814990  12.8199997 130.4739992 139.9354990  12.2439997
 129.9754035 139.2613351  12.4764770 114.3119992 137.5604990  15.9309997
 115.2319992 137.4384990  16.1679997 113.8629992 136.8104990  16.3209997
 114.3770500 137.4424576  16.0161016  35.3999992  45.9324990  82.4379997
  35.2499992  44.9874990  82.4179997  35.0459992  46.2134990  83.2819997
  35.3316351  45.8411656  82.5493202 132.3139992 133.0934990  17.8079997
 132.6639992 132.4394990  17.2019997 132.4609992 133.9304990  17.3679997
 132.3817192 133.1172545  17.6656712 130.0039992 135.0574990   4.2909997
 130.1859992 134.6084990   5.1159997 129.4039992 134.4734990   3.8269997
 129.9478187 134.9170563   4.3412721 115.5339992 135.8734990   8.8229997
 115.9789992 135.0814990   9.1249997 115.9999992 136.5894990   9.2529997
 115.6579718 135.8619546   8.9225247 113.8379992 138.8724990   9.8919997
 114.3299992 138.6514990   9.1009997 114.1999992 139.7124990  10.1729997
 113.9542923 138.9558480   9.8217389 131.8339992 135.2024990  16.1569997
 130.9169992 135.4734990  16.1209997 131.9569992 134.6674990  15.3729997
 131.7250828 135.1672711  16.0460767 131.8699992 135.1254990   0.8189997
 132.2829992 134.4044990   0.3439997 132.5519992 135.7944990   0.8769997
 132.0186060 135.1173741   0.7619233 114.1509992 135.1304990   3.9459997
 113.2259992 135.3384990   3.8169997 114.6049992 135.6144990   3.2559997
 114.0856298 135.2244311   3.8350433 114.1149992 133.8684990  12.2899997
 113.4499992 133.6224990  12.9329997 113.6719992 134.4904990  11.7129997
 113.9641168 133.9189225  12.2999830 130.8349992 133.2924990  13.9759997
 130.0219992 133.6174990  13.5889997 131.0679992 132.5314990  13.4429997
 130.7551347 133.2341891  13.8509824 124.2649992 134.7414990   8.2989997
 123.5899992 134.1114990   8.5549997 124.8289992 134.2574990   7.6959997
 124.2489363 134.5898886   8.2524810  20.4349992  48.0104990  86.4479997
  20.6189992  47.9284990  85.5129997  21.2839992  47.8864990  86.8719997
  20.5750259  47.9824915  86.3771771 129.4069992 132.8484990   8.4119997
 130.0109992 133.3964990   7.9099997 128.5379992 133.1674990   8.1709997
 129.3720419 132.9665628   8.3107741 131.1339992 133.9874990   6.7449997
 131.7459992 133.4734990   6.2179997 131.5169992 134.8644990   6.7679997
 131.2693867 134.0357613   6.6760888 116.5909992 133.3754990   6.1209997
 115.8139992 133.1404990   5.6139997 117.1219992 132.5784990   6.1299997
 116.5563735 133.2356462   6.0528090 115.4279992 133.1734990   1.9249997
 115.8669992 133.7844990   1.3329997 114.7939992 133.7114990   2.3989997
 115.4023859 133.3299076   1.9080287 121.1709992 133.3014990   5.9339997
 122.0449992 133.6904990   5.9049997 121.0349992 133.0864990   6.8569997
 121.2721953 133.3256654   6.0547599 126.7269992 133.3314990   7.5839997
 126.8039992 133.4274990   6.6339997 126.4519992 132.4244990   7.7119997
 126.7003233 133.2219093   7.4713665 128.0809992 133.3574990   3.2759997
 127.3779992 133.9724990   3.0659997 127.6359992 132.5204990   3.4069997
 127.9246550 133.3284679   3.2649819 117.2889992 135.0894990   0.3669997
 117.7799992 134.4594990  -0.1600003 117.9119992 135.3854990   1.0299997
 117.4405304 135.0432387   0.3844922 122.3149992 135.3824990   2.8239997
 122.4929992 134.7354990   3.5069997 122.2609992 136.2164990   3.2909997
 122.3320678 135.4066615   2.9806283 116.5489992 133.8894990  15.6389997
 116.1829992 133.1234990  16.0809997 117.4619992 133.9184990  15.9249997
 116.6223172 133.7885335  15.7381872  36.2559992  47.9024990  92.0769997
  36.8389992  47.1674990  92.2679997  36.8199992  48.6744990  92.1229997
  36.4120326  47.9062746  92.1093579 118.5219992 133.2394990  17.1739997
 119.4209992 132.9654990  16.9899997 118.1359992 132.4974990  17.6389997
 118.5927307 133.1017207  17.2117080 126.9429992 132.5724990  17.3569997
 127.0199992 132.1464990  18.2099997 127.8369992 132.5854990  17.0139997
 127.0743263 132.5159345  17.4274366 138.1439992 136.7144990   7.5049997
 138.1869992 137.5744990   7.0859997 137.6859992 136.1614990   6.8709997
 138.0880163 136.7574174   7.3620604 134.7639992 139.1114990   8.2669997
 135.4179992 138.5614990   8.6989997 134.7879992 138.8374990   7.3499997
 134.8567199 138.9992178   8.2021650 136.9539992 135.6324990  11.5789997
 136.7349992 136.1624990  10.8119997 136.2859992 135.8584990  12.2259997
 136.8336975 135.7355979  11.5615123 136.5479992 137.5244990   9.5309997
 137.1609992 138.1574990   9.9039997 137.0599992 137.0524990   8.8749997
 136.7011933 137.5473380   9.4933477 138.2489992 133.8414990   9.8089997
 137.3869992 133.7544990   9.4009997 138.2269992 134.6974990  10.2369997
 138.1280557 133.9453078   9.8110202 138.3399992 138.8064990  10.9039997
 137.6979992 138.7664990  11.6129997 138.3769992 139.7334990  10.6659997
 138.2571659 138.9262540  10.9688463 138.3369992 139.0274990   5.8159997
 137.4439992 138.6874990   5.7569997 138.7879992 138.6504990   5.0599997
 138.2757185 138.9300220   5.7057698 136.0899992 139.1274990  12.7709997
 136.0519992 139.5274990  13.6399997 135.5989992 138.3104990  12.8609997
 136.0184374 139.0718228  12.9020980  37.7529992  45.8054990  92.7609997
  36.8889992  45.4264990  92.5959997  38.3569992  45.0664990  92.6869997
  37.7164912  45.6537937  92.7284360 139.4559992 136.5014990  -0.4300003
 139.0249992 136.0564990   0.2989997 138.7379992 136.8724990  -0.9430003
 139.2999176 136.4907063  -0.3995087 132.6979992 136.2434990   6.6219997
 133.3289992 136.2144990   7.3409997 133.1479992 135.8184990   5.8909997
 132.8451082 136.1821269   6.6216307 133.9719992 136.9894990   2.0459997
 134.4469992 137.5804990   1.4609997 133.2549992 137.5194990   2.3929997
 133.9400406 137.1421011   2.0128495 135.7469992 138.0844990   5.7289997
 134.8579992 138.1834990   5.3889997 136.0429992 137.2424990   5.3829997
 135.6654001 137.9842473   5.6357318 139.3999992 138.0844990   3.3859997
 140.3319992 138.2134990   3.5639997 139.1849992 138.7534990   2.7359997
 139.4984472 138.1925817   3.3224873 138.0739992 139.2784990   0.9519997
 137.5319992 138.8994990   0.2609997 138.9079992 139.4734990   0.5239997
 138.1124390 139.2529091   0.7994374 137.2409992 135.3794990   5.2079997
 136.9229992 134.4764990   5.1719997 138.0219992 135.3814990   4.6549997
 137.3031079 135.2562240   5.1282908 135.1759992 136.3534990  13.5309997
 134.2829992 136.6914990  13.4629997 135.0769992 135.4974990  13.9489997
 135.0404752 136.2840986  13.5781644 138.4359992 135.6184990   1.9779997
 138.3529992 136.5064990   2.3249997 139.3259992 135.3534990   2.2099997
 138.5449331 135.7041177   2.0568067 135.0109992 138.7104990   0.1539997
 134.9659992 139.6494990   0.3329997 134.1229992 138.4744990  -0.1150003
 134.8848166 138.8071698   0.1421507  35.1099992  43.5144990  80.8999997
  35.3899992  42.6074990  81.0249997  35.8689992  43.9484990  80.5109997
  35.2509471  43.4490654  80.8645052 135.8189992 133.4914990   8.8269997
 135.5899992 133.5504990   7.8999997 135.3759992 132.7004990   9.1339997
 135.7277387 133.3926412   8.7415223 139.0639992 137.4194990  15.1489997
 139.2139992 136.6904990  14.5469997 139.0659992 138.1964990  14.5899997
 139.0847967 137.4247720  14.9910523 139.4759992 135.7884990  12.6419997
 140.0119992 136.2404990  11.9899997 138.6239992 135.6804990  12.2189997
 139.4341795 135.8357444  12.4956211 137.5419992 138.6174990  17.0599997
 136.7749992 138.0844990  16.8499997 138.2209992 138.3074990  16.4609997
 137.5288292 138.5026360  16.9502693 135.7229992 136.5374990  16.7649997
 135.9339992 135.8314990  16.1549997 135.6109992 136.1004990  17.6089997
 135.7367668 136.3816619  16.7955445 133.1679992 137.5604990  15.9309997
 134.0879992 137.4384990  16.1679997 132.7189992 136.8104990  16.3209997
 133.2330500 137.4424576  16.0161016 134.3899992 135.8734990   8.8229997
 134.8349992 135.0814990   9.1249997 134.8559992 136.5894990   9.2529997
 134.5139718 135.8619546   8.9225247 132.6939992 138.8724990   9.8919997
 133.1859992 138.6514990   9.1009997 133.0559992 139.7124990  10.1729997
 132.8102923 138.9558480   9.8217389 133.0069992 135.1304990   3.9459997
 132.0819992 135.3384990   3.8169997 133.4609992 135.6144990   3.2559997
 132.9416298 135.2244311   3.8350433 132.9709992 133.8684990  12.2899997
 132.3059992 133.6224990  12.9329997 132.5279992 134.4904990  11.7129997
 132.8201168 133.9189225  12.2999830  35.7219992  44.0964990  86.3359997
  36.6549992  44.3084990  86.3019997  35.4869992  44.1974990  87.2589997
  35.8178357  44.1391303  86.4560232 135.4469992 133.3754990   6.1209997
 134.6699992 133.1404990   5.6139997 135.9779992 132.5784990   6.1299997
 135.4123735 133.2356462   6.0528090 134.2839992 133.1734990   1.9249997
 134.7229992 133.7844990   1.3329997 133.6499992 133.7114990   2.3989997
 134.2583859 133.3299076   1.9080287 136.1449992 135.0894990   0.3669997
 136.6359992 134.4594990  -0.1600003 136.7679992 135.3854990   1.0299997
 136.2965304 135.0432387   0.3844922 135.4049992 133.8894990  15.6389997
 135.0389992 133.1234990  16.0809997 136.3179992 133.9184990  15.9249997
 135.4783172 133.7885335  15.7381872 137.3779992 133.2394990  17.1739997
 138.2769992 132.9654990  16.9899997 136.9919992 132.4974990  17.6389997
 137.4487307 133.1017207  17.2117080  12.5339992  10.5394990  24.9359997
  12.6229992  11.4834990  24.8029997  11.8949992  10.2644990  24.2779997
  12.4598378  10.6313846  24.8289258  11.4669992   9.7944990  28.3549997
  11.4279992   9.1484990  29.0599997  11.1439992   9.3274990  27.5829997
  11.4180469   9.6430005  28.3472803   3.8349992   9.4084990  29.9479997
   3.8759992   8.7834990  30.6709997   4.5379992  10.0324990  30.1299997
   3.9356223   9.4072318  30.0716164  15.1729992  12.7334990  26.6559997
  14.7319992  12.0134990  27.1069997  15.1599992  13.4544990  27.2859997
  15.1109215  12.7324303  26.8028088   4.7589992  13.8584990  28.4829997
   4.3889992  13.0564990  28.1129997   5.6999992  13.6904990  28.5289997
   4.8355984  13.7259649  28.4385586  35.7509992  44.8334990  89.1119997
  34.9079992  45.1014990  89.4779997  36.1939992  45.6554990  88.9009997
  35.6954358  44.9813294  89.1335999   1.3689992   7.5184990  23.8749997
   0.9209992   8.3644990  23.8569997   0.8079992   6.9394990  23.3599997
   1.2318546   7.5559004  23.8028874   2.0789992   9.6804990  26.0009997
   2.2929992   8.9104990  26.5279997   2.8169992   9.7704990  25.3979997
   2.2080073   9.5873546  25.9915786  12.2839992  17.8374990  26.8679997
  12.9039992  17.1614990  26.5949997  12.0759992  17.6194990  27.7769997
  12.3407679  17.7155032  26.9534518   9.8559992  12.2264990  28.7609997
  10.1599992  11.5404990  28.1659997  10.5779992  12.3454990  29.3789997
   9.9951240  12.1487325  28.7630941  18.5189992   3.8284990  29.6209997
  18.5679992   4.4384990  30.3569997  18.9449992   4.2894990  28.8979997
  18.5832851   3.9743266  29.6240532  12.9969992   6.6204990  29.0879997
  13.1389992   5.6744990  29.1079997  12.8909992   6.8274990  28.1599997
  13.0021051   6.5189706  28.9652249   6.1519992   4.7224990  26.3609997
   6.1949992   5.5824990  25.9419997   5.6939992   4.1694990  25.7269997
   6.0960163   4.7654174  26.2180604  13.8739992   4.8534990  24.7609997
  14.5199992   4.5244990  25.3859997  14.3839992   5.3704990  24.1389997
  14.0314289   4.8784333  24.7623681   2.7719992   7.1194990  27.1229997
   3.4259992   6.5694990  27.5549997   2.7959992   6.8454990  26.2059997
   2.8647199   7.0072178  27.0581650   7.9279992   8.6694990  26.3379997
   8.5439992   8.1424990  26.8469997   7.3419992   8.0294990  25.9339997
   7.9330652   8.5108919  26.3530277  20.0319992  43.2804990  92.5889997
  20.9519992  43.1584990  92.8249997  19.5829992  42.5304990  92.9779997
  20.0971561  43.1623720  92.6739015  18.9109992   5.3064990  31.8569997
  18.2219992   5.9644990  31.7619997  18.9259992   5.1084990  32.7939997
  18.8187756   5.3697614  31.9705795   4.9619992   3.6404990  30.4349997
   4.7429992   4.1704990  29.6679997   4.2939992   3.8664990  31.0819997
   4.8416975   3.7435979  30.4175123  12.3309992  13.1404990  23.9789997
  12.0349992  12.8174990  23.1269997  12.0069992  14.0404990  24.0199997
  12.2467458  13.2179678  23.8680598   7.5309992  11.3154990  30.7219997
   6.7909992  11.9144990  30.8259997   8.2449992  11.8694990  30.4059997
   7.5263146  11.4722611  30.6935150  15.6379992   4.1444990  26.7419997
  15.4229992   3.3784990  27.2749997  16.2939992   4.6164990  27.2549997
  15.6972673   4.1035739  26.8841972   4.5559992   5.5324990  28.3869997
   5.1689992   6.1654990  28.7599997   5.0679992   5.0604990  27.7309997
   4.7091933   5.5553380  28.3493477   5.9379992  13.2804990  31.5089997
   5.9329992  14.1594990  31.1309997   5.0849992  13.1964990  31.9339997
   5.8219199  13.3895901  31.5146942   2.0599992  12.9514990  22.2909997
   1.7879992  13.1804990  21.4019997   2.1049992  13.7884990  22.7519997
   2.0288360  13.0961034  22.2316186  15.6849992  14.5724990  29.0039997
  14.7429992  14.6314990  29.1659997  15.9609992  15.4784990  28.8669997
  15.5935865  14.7030299  29.0076174  15.9849992   2.8594990  30.4209997
  15.2489992   3.4694990  30.3839997  16.6689992   3.2744990  29.8949997
  15.9765367   2.9992562  30.3448156  38.0339992  38.8134990  94.4659997
  38.3839992  38.1594990  93.8599997  38.1809992  39.6504990  94.0259997
  38.1017192  38.8372545  94.3236712   8.9879992   0.9454990  27.8869997
   8.8709992  -0.0025010  27.8329997   8.1329992   1.2784990  28.1599997
   8.8563691   0.8605842  27.9165072  13.9369992  16.3534990  25.6289997
  14.3619992  15.6464990  25.1439997  14.2539992  17.1554990  25.2119997
  14.0380266  16.3650201  25.5062461  15.0959992  14.2544990  24.1379997
  14.8389992  13.5644990  23.5259997  15.1669992  13.8114990  24.9829997
  15.0704322  14.1001568  24.1685372  11.2549992   9.7834990  22.3879997
  10.5429992  10.3184990  22.0359997  11.9459992   9.8384990  21.7279997
  11.2509704   9.8641663  22.2505797  11.3089992   8.2404990  19.4259997
  12.0099992   8.2634990  20.0779997  11.6109992   7.6124990  18.7699997
  11.4458202   8.1587223  19.4265591  18.6239992   9.1614990  30.6809997
  17.9719992   9.8554990  30.7699997  19.0889992   9.3714990  29.8709997
  18.5975357   9.2849544  30.5837056  14.6609992   9.9924990  23.3389997
  13.9289992  10.2214990  23.9119997  15.1079992   9.2794990  23.7939997
  14.6212753   9.9273984  23.4789698  14.5579992   8.1674990  32.4069997
  14.6379992   8.9304990  32.9789997  13.9569992   8.4464990  31.7169997
  14.4876547   8.3097468  32.3920029   6.3059992  10.6234990  25.2219997
   5.9759992  10.2524990  24.4039997   6.8939992   9.9524990  25.5689997
   6.3403182  10.4820648  25.1569898   7.6729992  14.0514990  27.9029997
   7.5779992  13.4724990  27.1469997   8.4019992  13.6804990  28.3989997
   7.7586011  13.9220572  27.8666011  35.7239992  40.7774990  80.9489997
  35.9059992  40.3284990  81.7739997  35.1239992  40.1934990  80.4849997
  35.6678187  40.6370563  80.9992721   6.6729992   9.3914990  28.8549997
   7.2379992   9.5134990  28.0929997   6.9909992  10.0294990  29.4939997
   6.7933619   9.4944388  28.8370019  12.9819992  14.8954990  29.5889997
  12.7409992  15.5574990  30.2369997  12.7839992  14.0604990  30.0139997
  12.9222662  14.8732704  29.7351008   7.5529992  13.7914990  33.5729997
   7.2409992  14.5734990  34.0279997   6.9029992  13.6384990  32.8869997
   7.4224858  13.8777882  33.5425344  13.5319992   9.1554990  21.0249997
  14.1109992   9.3054990  21.7709997  13.9459992   9.6254990  20.3009997
  13.6673358   9.2395966  21.0293935   4.4729992   9.9894990  32.8009997
   4.5429992  10.6404990  33.4999997   3.5819992  10.0924990  32.4659997
   4.3621690  10.0924261  32.8513026  11.2579992  15.8914990  24.4599997
  11.7319992  16.1874990  25.2369997  10.6949992  16.6304990  24.2269997
  11.2467890  16.0318047  24.5348084  17.2299992   0.9054990  20.8369997
  16.3299992   1.0434990  21.1329997  17.4819992   1.7364990  20.4359997
  17.1407727   1.0368705  20.8232935   5.2959992   9.6924990  22.8109997
   5.0039992  10.4604990  22.3199997   4.6219992   9.0334990  22.6479997
   5.1648843   9.7084537  22.7217695  18.4199992  15.2714990  19.2139997
  18.4929992  16.2104990  19.3839997  19.3249992  14.9664990  19.1579997
  18.5524170  15.3588294  19.2297045   1.3889992  12.0554990  31.6259997
   0.8879992  12.0274990  30.8109997   1.3949992  11.1504990  31.9359997
   1.3211690  11.9292234  31.5562770  21.2539992  41.5934990  85.4799997
  21.6989992  40.8014990  85.7819997  21.7199992  42.3094990  85.9109997
  21.3779059  41.5819485  85.5796061   1.1399992  14.8364990  28.5099997
   2.0859992  14.6914990  28.4909997   1.0269992  15.6204990  29.0469997
   1.2543578  14.9226708  28.5800300  10.3159992  15.0764990  33.0689997
  10.4029992  15.9024990  33.5439997   9.4519992  14.7464990  33.3179997
  10.2111944  15.1449871  33.1676558  10.7299992  18.8484990  22.8749997
  10.6549992  18.7274990  21.9279997  10.7629992  19.7974990  22.9929997
  10.7242083  18.9602639  22.7614973   4.3839992  17.6374990  24.6559997
   4.5359992  17.2894990  25.5339997   3.5329992  17.2804990  24.3999997
   4.2898344  17.5415891  24.7416851  13.8319992  18.0024990  19.8769997
  14.2069992  17.2584990  19.4059997  13.8359992  17.7324990  20.7949997
  13.8838969  17.8640920  19.9366475  13.5009992  17.9284990  22.6259997
  12.5659992  18.0284990  22.8049997  13.7809992  17.2184990  23.2049997
  13.4109471  17.8462944  22.7286678   3.6379992  13.3794990  32.6689997
   3.8539992  13.0174990  33.5289997   2.7829992  13.0044990  32.4599997
   3.5519082  13.2793377  32.7582396   6.2569992   1.8494990  28.6649997
   5.3949992   1.7624990  28.2569997   6.2349992   2.7054990  29.0929997
   6.1360557   1.9533078  28.6670202  10.9199992   1.5714990  32.0399997
  11.3399992   1.1564990  32.7929997   9.9869992   1.3924990  32.1569997
  10.8513736   1.4904921  32.1588950  14.2459992   5.3264990  32.8929997
  13.7319992   5.2014990  33.6909997  14.0909992   6.2394990  32.6489997
  14.1547802   5.4327433  32.9691504  19.5579992  44.5924990  86.5489997
  20.0499992  44.3714990  85.7589997  19.9199992  45.4324990  86.8299997
  19.6743429  44.6758220  86.4787918  15.0089992  10.1874990  18.6539997
  15.0509992   9.9654990  17.7239997  15.8579992  10.5864990  18.8439997
  15.1295253  10.2110510  18.5523804  10.5819992   4.0634990  19.3249997
  10.3279992   4.0824990  20.2469997  10.3249992   3.1924990  19.0229997
  10.5124508   3.9483292  19.4104786   6.3479992   6.8144990  29.7599997
   5.7059992   6.7744990  30.4689997   6.3849992   7.7414990  29.5219997
   6.2651659   6.9342540  29.8248463   6.3449992   7.0354990  24.6719997
   5.4519992   6.6954990  24.6129997   6.7959992   6.6584990  23.9159997
   6.2837185   6.9380220  24.5617698  11.8809992   7.4514990  23.4889997
  11.4719992   8.2664990  23.1969997  12.6009992   7.3114990  22.8749997
  11.9224439   7.5440383  23.3660098  12.8849992   6.8974990  26.3029997
  12.6899992   7.5034990  25.5879997  13.0669992   6.0644990  25.8689997
  12.8829195   6.8677936  26.1464079   4.0979992   7.1354990  31.6269997
   4.0599992   7.5354990  32.4959997   3.6069992   6.3184990  31.7169997
   4.0264374   7.0798228  31.7580980   7.4639992   4.5094990  18.4259997
   7.0329992   4.0644990  19.1549997   6.7459992   4.8804990  17.9129997
   7.3079176   4.4987063  18.4564913   0.7059992   4.2514990  25.4779997
   1.3369992   4.2224990  26.1969997   1.1559992   3.8264990  24.7469997
   0.8531082   4.1901269  25.4776307   1.9799992   4.9974990  20.9019997
   2.4549992   5.5884990  20.3169997   1.2629992   5.5274990  21.2489997
   1.9480406   5.1501011  20.8688495  37.5539992  40.9224990  92.8149997
  36.6369992  41.1934990  92.7789997  37.6769992  40.3874990  92.0309997
  37.4450828  40.8872711  92.7040767  12.1489992   8.5354990  30.9739997
  12.4729992   7.9044990  30.3309997  11.7089992   8.0014990  31.6349997
  12.1338707   8.3768261  30.9753195   8.9269992   4.4634990  25.7579997
   8.0159992   4.5204990  26.0469997   9.4319992   4.4034990  26.5689997
   8.8706873   4.4631838  25.9071190   3.7549992   6.0924990  24.5849997
   2.8659992   6.1914990  24.2449997   4.0509992   5.2504990  24.2389997
   3.6734001   5.9922473  24.4917318   7.4079992   6.0924990  22.2419997
   8.3399992   6.2214990  22.4199997   7.1929992   6.7614990  21.5919997
   7.5064472   6.2005817  22.1784873  13.3319992   3.6984990  29.0219997
  12.6549992   3.8294990  29.6859997  12.8459992   3.5434990  28.2119997
  13.1737265   3.6954665  29.0033380   6.0819992   7.2864990  19.8079997
   5.5399992   6.9074990  19.1169997   6.9159992   7.4814990  19.3799997
   6.1204390   7.2609091  19.6554374   4.2169992  11.8434990  34.9069997
   4.9489992  12.0984990  35.4689997   3.4369992  12.0484990  35.4229997
   4.2116526  11.9060438  35.0535168  10.2469992   7.2504990  27.6449997
  10.8109992   6.7044990  27.0979997  10.0989992   6.7294990  28.4339997
  10.3043037   7.1051798  27.6767212   5.2489992   3.3874990  24.0639997
   4.9309992   2.4844990  24.0279997   6.0299992   3.3894990  23.5109997
   5.3111079   3.2642240  23.9842908   8.8729992   5.6394990  30.0589997
   8.0379992   6.0934990  30.1699997   9.3969992   5.9154990  30.8109997
   8.8296072   5.7388960  30.1758118  19.8709992  40.8504990  80.6039997
  18.9459992  41.0584990  80.4739997  20.3249992  41.3344990  79.9139997
  19.8057401  40.9443895  80.4929433   9.4169992  11.8524990  21.7439997
   8.6719992  11.3444990  21.4219997   9.2829992  11.9014990  22.6899997
   9.2969334  11.7896144  21.8278892  16.5669992  10.9854990  30.5309997
  17.2089992  11.4414990  29.9869997  15.7369992  11.0984990  30.0679997
  16.5426536  11.0631813  30.3939579  13.3149992   4.6664990  19.9429997
  12.3759992   4.7774990  19.7919997  13.6119992   5.5224990  20.2499997
  13.2266136   4.7974977  19.9638568  10.9369992  12.0364990  32.9809997
  10.5909992  11.6544990  33.7879997  10.7369992  12.9694990  33.0519997
  10.8625987  12.1104013  33.1010443  14.0329992   6.5334990  21.6039997
  14.9249992   6.3954990  21.9229997  14.0899992   7.3244990  21.0669997
  14.1627380   6.6214777  21.5750981   4.5419992  11.1474990  27.5139997
   5.2869992  11.1444990  26.9119997   4.6199992  10.3234990  27.9949997
   4.6543365  11.0357395  27.4967412  11.5429992  13.3104990  20.7689997
  11.2479992  14.1374990  21.1509997  10.8399992  12.6914990  20.9659997
  11.4076379  13.3399182  20.8478636  13.1869992  14.4984990  32.9309997
  12.2859992  14.6814990  32.6639997  13.2209992  14.7574990  33.8519997
  13.0683861  14.5585245  33.0189517  18.9179992   6.7424990  21.2989997
  18.3639992   6.3464990  20.6259997  19.0189992   7.6534990  21.0209997
  18.8558589   6.8113904  21.1693839  17.2129992  15.5284990  21.7639997
  16.8409992  14.7034990  22.0729997  17.4909992  15.3454990  20.8659997
  17.1995807  15.3907031  21.6850063  34.6419992  55.8344990  82.5489997
  35.2939992  55.4864990  81.9409997  35.1529992  56.3224990  83.1949997
  34.8002872  55.8528248  82.5530964  14.3739992  10.3364990  28.7849997
  13.4459992  10.1054990  28.7579997  14.8249992   9.5594990  28.4549997
  14.3078165  10.1997785  28.7366772   6.9169992  14.6654990  24.9179997
   7.4439992  15.4384990  24.7179997   6.0369992  14.8894990  24.6159997
   6.8702121  14.8017344  24.8497460   2.6719992   9.5274990  19.5049997
   3.2879992  10.1544990  19.8849997   1.8099992   9.8434990  19.7769997
   2.6397678   9.6559423  19.5937192   8.3439992  12.3284990  24.4939997
   8.1029992  13.2534990  24.5359997   7.6039992  11.8694990  24.8909997
   8.2109463  12.3930969  24.5534279   8.8589992  16.4774990  30.8089997
   9.2219992  17.3314990  30.5759997   9.3909992  16.1854990  31.5499997
   8.9805141  16.5548907  30.8772079   7.0269992  17.3494990  24.0399997
   6.0779992  17.4554990  24.0909997   7.3789992  18.1704990  24.3839997
   6.9445647  17.4750029  24.0934882  12.4029992  12.5764990  30.5099997
  11.9769992  12.3484990  31.3359997  12.9839992  11.8374990  30.3279997
  12.4232088  12.4454393  30.5984454  14.6059992  13.5054990  19.5839997
  14.9589992  13.1254990  20.3879997  13.6569992  13.4114990  19.6709997
  14.5260956  13.4407867  19.7058005  15.0619992  17.1284990  32.9789997
  14.4599992  16.5724990  32.4839997  15.3429992  17.7954990  32.3529997
  15.0175757  17.1425755  32.8265657  19.1089992  17.9844990  19.7849997
  19.8529992  18.5704990  19.6449997  18.4149992  18.5534990  20.1179997
  19.1169809  18.1415830  19.8108572  19.8349992  39.5884990  88.9479997
  19.1699992  39.3424990  89.5909997  19.3919992  40.2104990  88.3709997
  19.6841168  39.6389225  88.9579830   3.1839992   4.3614990  32.3869997
   2.2909992   4.6994990  32.3189997   3.0849992   3.5054990  32.8049997
   3.0484752   4.2920986  32.4341644  15.4719992  12.1774990  21.8109997
  15.1949992  11.4494990  22.3669997  16.3989992  12.2964990  22.0159997
  15.5594419  12.0939436  21.9148264   2.8349992  16.1654990  30.8219997
   3.0519992  15.2334990  30.7909997   3.0819992  16.4404990  31.7049997
   2.8980948  16.0750976  30.9371268   8.6969992  14.6174990  18.0309997
   8.9359992  13.8684990  17.4839997   8.4279992  14.2294990  18.8639997
   8.6933233  14.4626865  18.0687791   7.6339992  14.1874990  20.4869997
   7.7809992  13.6674990  21.2769997   7.6309992  15.0944990  20.7939997
   7.6537102  14.2388964  20.6365907   4.0869992  11.4394990  20.9979997
   3.4009992  11.7924990  21.5649997   4.6099992  12.2024990  20.7509997
   4.0638402  11.5908912  21.0421784  11.9179992   4.1024990  31.2769997
  12.6169992   4.1764990  31.9269997  11.5379992   3.2374990  31.4309997
  11.9622662   3.9957050  31.3867412  12.7029992   3.7544990  22.3739997
  12.9229992   4.2254990  21.5699997  13.2609992   4.1484990  23.0439997
  12.8086044   3.8722946  22.3545207  10.3719992  15.8844990  21.2369997
   9.5549992  16.3814990  21.2889997  10.9009992  16.3604990  20.5959997
  10.3318125  16.0167000  21.1575289   9.9029992   5.4824990  23.2089997
  10.7149992   5.9864990  23.2549997   9.6579992   5.3374990  24.1229997
   9.9811091   5.5319366  23.3388552  22.0269992  52.7634990  93.0919997
  21.2059992  52.9384990  92.6319997  21.7749992  52.6904990  94.0129997
  21.8806173  52.7775806  93.1534954  10.4389992   6.4684990  32.3929997
  10.5579992   7.0424990  33.1499997  11.0939992   5.7804990  32.5079997
  10.5438684   6.4540205  32.5121656  10.7869992   2.5634990  24.1469997
  10.4399992   3.1804990  24.7909997  11.4449992   3.0644990  23.6649997
  10.8284430   2.7156860  24.1700046   7.7099992  16.9284990  21.2179997
   7.8709992  17.7284990  20.7179997   7.5129992  17.2354990  22.1029997
   7.7053906  17.0793690  21.2692316   6.4439992   3.6264990  20.8339997
   6.3609992   4.5144990  21.1809997   7.3339992   3.3614990  21.0659997
   6.5529331   3.7121177  20.9128067  15.2449992   8.1254990  27.3239997
  14.4479992   7.7104990  26.9959997  15.6899992   7.4354990  27.8149997
  15.1960367   7.9753372  27.3454897   4.7029992  14.0534990  19.8939997
   5.2949992  14.7534990  20.1709997   5.1619992  13.6204990  19.1749997
   4.8461652  14.0907686  19.8346515   3.0189992   6.7184990  19.0099997
   2.9739992   7.6574990  19.1889997   2.1309992   6.4824990  18.7409997
   2.8928166   6.8151698  18.9981507  16.3319992  17.3814990  28.9459997
  16.1759992  18.0604990  28.2889997  17.2639992  17.4534990  29.1489997
  16.4367328  17.4841586  28.8835529   3.8269992   1.4994990  27.6829997
   3.5979992   1.5584990  26.7559997   3.3839992   0.7084990  27.9899997
   3.7357387   1.4006412  27.5975223   2.7569992  15.4404990  23.8439997
   1.9249992  15.9124990  23.8709997   3.3029992  15.9504990  23.2449997
   2.7168710  15.5740317  23.7667570  24.9809992  53.7374990  89.3509997
  24.5559992  54.5474990  89.0679997  25.8849992  53.8234990  89.0489997
  25.0451002  53.8598728  89.2714798  10.7349992  16.4804990  18.1689997
  10.0909992  15.8494990  18.4909997  11.4969992  15.9494990  17.9379997
  10.7498708  16.3223171  18.1818461  15.3389992  16.2974990  18.4029997
  15.6219992  15.5024990  18.8559997  16.0789992  16.5304990  17.8419997
  15.4777295  16.2202349  18.3891469   6.2939992  12.2064990  18.2609997
   6.3579992  11.4124990  18.7909997   6.9469992  12.0884990  17.5709997
   6.3910483  12.0817496  18.2403407  11.6459992  13.2534990  17.9969997
  11.3779992  13.4344990  18.8969997  11.4399992  12.3284990  17.8649997
  11.5813443  13.1531873  18.1026643  14.3429992  11.7484990  32.9439997
  15.0879992  12.3374990  32.8249997  13.5849992  12.3304990  33.0069997
  14.3425289  11.9077067  32.9362292   7.4429992  10.1794990  20.5669997
   6.9839992   9.6954990  21.2519997   7.6979992   9.5104990  19.9309997
   7.4145997  10.0228491  20.5748734   6.7319992   8.0724990  32.9229997
   6.1139992   8.7464990  33.2029997   7.0759992   8.3934990  32.0889997
   6.6938078   8.2082298  32.8486609   8.5139992   8.4224990  18.8289997
   8.3339992   8.2674990  17.9019997   9.4639992   8.5304990  18.8739997
   8.6177804   8.4158821  18.7081966  17.9039992  10.7764990  18.2749997
  17.6309992  10.3524990  17.4619997  17.9439992  11.7084990  18.0579997
  17.8720201  10.8443523  18.1343548   7.0719992   5.4274990  34.0049997
   7.2219992   4.6984990  33.4029997   7.0739992   6.2044990  33.4459997
   7.0927967   5.4327720  33.8470523  29.2919992  55.1364990  92.3099997
  29.4769992  54.8034990  93.1879997  30.1389992  55.4464990  91.9879997
  29.4317291  55.1328214  92.3866140   7.4839992   3.7964990  31.4979997
   8.0199992   4.2484990  30.8459997   6.6319992   3.6884990  31.0749997
   7.4421795   3.8437444  31.3516211   9.0659992   9.2364990  31.7369997
   9.8169992   9.0804990  31.1639997   8.7269992  10.0884990  31.4619997
   9.1229587   9.3303149  31.6214060  14.7979992   9.8404990  34.8429997
  14.5169992  10.5494990  34.2649997  15.7409992   9.7674990  34.6919997
  14.8869272   9.9276704  34.7434976  12.2699992   4.7024990  34.5679997
  11.3219992   4.7344990  34.6999997  12.5819992   4.0764990  35.2219997
  12.1825293   4.6222934  34.6744130   8.4119992  19.1124990  19.8299997
   9.3449992  19.2704990  19.9739997   8.1469992  19.7884990  19.2049997
   8.5039846  19.2254567  19.7652930   1.9799992  13.7494990  19.3129997
   2.8939992  13.8284990  19.5859997   1.9869992  13.0624990  18.6469997
   2.1060624  13.6674074  19.2603045   0.6289992  19.1424990  24.3899997
  -0.0180008  18.6804990  23.8579997   0.9839992  18.4704990  24.9729997
   0.5883741  18.9884785  24.3959157   1.4989992  17.2224990  26.1949997
   1.1649992  16.3424990  26.3669997   1.7209992  17.5684990  27.0599997
   1.4832565  17.1487410  26.3354263  19.0479992  18.0324990  29.1759997
  19.0259992  18.2174990  30.1139997  19.7379992  18.6004990  28.8349997
  19.1383383  18.1347104  29.2584580  18.6109992  17.5994990  32.0969997
  18.1239992  16.8634990  31.7259997  19.1599992  17.2054990  32.7749997
  18.6186101  17.4456267  32.1379034  31.6369992  56.4224990  91.5539997
  32.3139992  55.7894990  91.3139997  31.9589992  56.8234990  92.3619997
  31.7731280  56.3900638  91.6303190  18.3629992  11.6454990  22.2499997
  19.2129992  12.0664990  22.3769997  18.3679992  10.9054990  22.8569997
  18.4801143  11.6031106  22.3494732  18.7569992   9.6994990  24.0729997
  18.0309992   9.2194990  24.4709997  19.3379992   9.9044990  24.8049997
  18.7362504   9.6615592  24.2264199  18.5159992  12.4844990  29.0209997
  19.3499992  12.1064990  28.7399997  18.6279992  13.4274990  28.9019997
  18.6451917  12.5602954  28.9664844  17.0019992  15.3624990  31.3279997
  16.3549992  15.6874990  31.9529997  16.4849992  14.9214990  30.6539997
  16.8434112  15.3474133  31.3225272  19.0249992   9.6004990  20.4639997
  18.5039992   9.9564990  19.7459997  18.9919992  10.2754990  21.1429997
  18.9490955   9.7405023  20.4572634  17.3739992   6.8394990  19.0149997
  17.4709992   7.5064990  18.3349997  17.2339992   6.0244990  18.5339997
  17.3683407   6.8205670  18.8568312  16.5439992   8.2204990  24.6359997
  16.3939992   7.2754990  24.6159997  16.1899992   8.5014990  25.4799997
  16.4756351   8.1291656  24.7473202   1.5789992  10.2984990  28.6469997
   1.7629992  10.2164990  27.7109997   2.4279992  10.1744990  29.0699997
   1.7190132  10.2705066  28.5761460  16.6219992   4.2474990  18.1329997
  17.2319992   3.8764990  18.7699997  15.7849992   3.8264990  18.3289997
  16.5923704   4.1397942  18.2467077  16.2539992   5.8024990  23.0989997
  16.5339992   4.8954990  23.2229997  17.0129992   6.2364990  22.7099997
  16.3949258   5.7370935  23.0633691  36.5549992  39.0124990  90.6339997
  35.7419992  39.3374990  90.2459997  36.7879992  38.2514990  90.1009997
  36.4752566  38.9541570  90.5089196  16.8659992   6.3844990  28.5349997
  17.7989992   6.5964990  28.4999997  16.6309992   6.4854990  29.4569997
  16.9619517   6.4271844  28.6549113  16.8949992   7.1214990  31.3109997
  16.0519992   7.3894990  31.6759997  17.3379992   7.9434990  31.0999997
  16.8394035   7.2693351  31.3324770  16.8679992   3.0654990  23.1469997
  17.0499992   2.6164990  23.9719997  16.2679992   2.4814990  22.6829997
  16.8118187   2.9250563  23.1972721   2.3979992   3.8814990  27.6789997
   2.8429992   3.0894990  27.9809997   2.8639992   4.5974990  28.1089997
   2.5219718   3.8699546  27.7785247   0.7019992   6.8804990  28.7479997
   1.1939992   6.6594990  27.9569997   1.0639992   7.7204990  29.0289997
   0.8182923   6.9638480  28.6777389  18.7339992   3.1334990  19.6749997
  19.1469992   2.4124990  19.1999997  19.4159992   3.8024990  19.7329997
  18.8826060   3.1253741  19.6179233   1.0149992   3.1384990  22.8019997
   0.0899992   3.3464990  22.6729997   1.4689992   3.6224990  22.1119997
   0.9496298   3.2324311  22.6910433  15.7859992  18.1224990  24.7479997
  16.4379992  17.7744990  24.1399997  16.2969992  18.6104990  25.3939997
  15.9442872  18.1408248  24.7520964   0.9789992   1.8764990  31.1459997
   0.3139992   1.6304990  31.7889997   0.5359992   2.4984990  30.5689997
   0.8281168   1.9269225  31.1559830   6.1249992  16.0254990  31.5489997
   5.6999992  16.8354990  31.2669997   7.0289992  16.1114990  31.2469997
   6.1890706  16.1479557  31.4695836  22.3829992  56.9944990  89.3979997
  21.6619992  57.4344990  88.9469997  22.0169992  56.7434990  90.2469997
  22.2349785  57.0207691  89.4509849  17.6989992   1.3004990  32.8319997
  16.8859992   1.6254990  32.4449997  17.9319992   0.5394990  32.2989997
  17.6191347   1.2421891  32.7069824   3.5269992  19.2824990  31.5969997
   2.8059992  19.7224990  31.1459997   3.1609992  19.0314990  32.4449997
   3.3789632  19.3087235  31.6499649   5.9939992  18.8824990  30.6259997
   5.1289992  18.9544990  31.0299997   5.9389992  19.4294990  29.8429997
   5.8682289  18.9663242  30.5753749  10.7049992  18.7704990  29.8019997
  10.2479992  19.2994990  29.1479997  10.8669992  19.3734990  30.5269997
  10.6643919  18.9243990  29.8105740  13.0319992  17.6484990  30.7469997
  12.1279992  17.8134990  30.4809997  13.4609992  18.5014990  30.6809997
  12.9662017  17.7864184  30.7016495  15.6359992  19.2184990  31.0419997
  15.4549992  20.1344990  30.8309997  15.8129992  18.8074990  30.1949997
  15.6351377  19.2883365  30.8987178   2.9419992  17.9054990  28.5069997
   2.9229992  17.4794990  29.3639997   3.7459992  17.5864990  28.0979997
   3.0481393  17.8040297  28.5690155   5.0829992  16.6154990  27.1619997
   4.8639992  15.6984990  27.3319997   5.9069992  16.7554990  27.6279997
   5.1644702  16.5090523  27.2482510   7.6199992  17.0854990  28.0109997
   7.8329992  16.1974990  27.7239997   7.6849992  17.0504990  28.9649997
   7.6579149  16.9593338  28.1007351  11.1289992   2.7494990  27.1549997
  10.4539992   2.1194990  27.4109997  11.6929992   2.2654990  26.5519997
  11.1129363   2.5978886  27.1084810  24.8499992  56.5944990  88.4279997
  23.9849992  56.6664990  88.8319997  24.7949992  57.1414990  87.6439997
  24.7242066  56.6782678  88.3773371  16.2709992   0.8564990  27.2679997
  16.8749992   1.4044990  26.7659997  15.4019992   1.1754990  27.0269997
  16.2360419   0.9745628  27.1667741  17.9979992   1.9954990  25.6009997
  18.6099992   1.4814990  25.0739997  18.3809992   2.8724990  25.6239997
  18.1333867   2.0437613  25.5320888   3.4549992   1.3834990  24.9769997
   2.6779992   1.1484990  24.4699997   3.9859992   0.5864990  24.9859997
   3.4203735   1.2436462  24.9088090   2.2919992   1.1814990  20.7809997
   2.7309992   1.7924990  20.1889997   1.6579992   1.7194990  21.2549997
   2.2663859   1.3379076  20.7640287   8.0349992   1.3094990  24.7899997
   8.9089992   1.6984990  24.7609997   7.8989992   1.0944990  25.7129997
   8.1361953   1.3336654  24.9107599  13.5909992   1.3394990  26.4399997
  13.6679992   1.4354990  25.4899997  13.3159992   0.4324990  26.5679997
  13.5643233   1.2299093  26.3273665  14.9449992   1.3654990  22.1319997
  14.2419992   1.9804990  21.9219997  14.4999992   0.5284990  22.2629997
  14.7886550   1.3364679  22.1209819   2.1929992  17.1294990  21.6779997
   1.5079992  17.0914990  21.0109997   2.1959992  18.0414990  21.9659997
   2.0996806  17.2476669  21.6256961   4.1529992   3.0974990  19.2229997
   4.6439992   2.4674990  18.6959997   4.7759992   3.3934990  19.8859997
   4.3045304   3.0512387  19.2404922   9.1789992   3.3904990  21.6799997
   9.3569992   2.7434990  22.3629997   9.1249992   4.2244990  22.1469997
   9.1960678   3.4146615  21.8366283  29.5609992  56.4824990  87.6039997
  29.1039992  57.0114990  86.9499997  29.7229992  57.0854990  88.3289997
  29.5203919  56.6363990  87.6125740  11.0569992  18.3384990  20.0759997
  11.9229992  18.7054990  19.8979997  10.8099992  17.8994990  19.2619997
  11.1421853  18.3294021  19.9415813  17.7659992  17.9014990  22.7549997
  17.5719992  17.1534990  22.1899997  17.7269992  18.6594990  22.1719997
  17.7341645  17.9015797  22.5988131   3.4129992   1.8974990  34.4949997
   3.0469992   1.1314990  34.9369997   4.3259992   1.9264990  34.7809997
   3.4863172   1.7965335  34.5941872   4.0109992  18.0494990  18.7029997
   3.7429992  18.3354990  19.5769997   4.7819992  17.5034990  18.8559997
   4.0785926  18.0147790  18.8431188  16.9839992  16.6524990  34.9049997
  16.2019992  16.4664990  34.3849997  16.9119992  17.5824990  35.1219997
  16.8672975  16.7526973  34.8631822  31.3899992  10.5394990  24.9359997
  31.4789992  11.4834990  24.8029997  30.7509992  10.2644990  24.2779997
  31.3158378  10.6313846  24.8289258  30.3229992   9.7944990  28.3549997
  30.2839992   9.1484990  29.0599997  29.9999992   9.3274990  27.5829997
  30.2740469   9.6430005  28.3472803  22.6909992   9.4084990  29.9479997
  22.7319992   8.7834990  30.6709997  23.3939992  10.0324990  30.1299997
  22.7916223   9.4072318  30.0716164  34.0289992  12.7334990  26.6559997
  33.5879992  12.0134990  27.1069997  34.0159992  13.4544990  27.2859997
  33.9669215  12.7324303  26.8028088  23.6149992  13.8584990  28.4829997
  23.2449992  13.0564990  28.1129997  24.5559992  13.6904990  28.5289997
  23.6915984  13.7259649  28.4385586  31.8879992  55.3604990  88.5489997
  30.9839992  55.5254990  88.2829997  32.3169992  56.2134990  88.4829997
  31.8222017  55.4984184  88.5036495  20.2249992   7.5184990  23.8749997
  19.7769992   8.3644990  23.8569997  19.6639992   6.9394990  23.3599997
  20.0878546   7.5559004  23.8028874  20.9349992   9.6804990  26.0009997
  21.1489992   8.9104990  26.5279997  21.6729992   9.7704990  25.3979997
  21.0640073   9.5873546  25.9915786  31.1399992  17.8374990  26.8679997
  31.7599992  17.1614990  26.5949997  30.9319992  17.6194990  27.7769997
  31.1967679  17.7155032  26.9534518  28.7119992  12.2264990  28.7609997
  29.0159992  11.5404990  28.1659997  29.4339992  12.3454990  29.3789997
  28.8511240  12.1487325  28.7630941  37.3749992   3.8284990  29.6209997
  37.4239992   4.4384990  30.3569997  37.8009992   4.2894990  28.8979997
  37.4392851   3.9743266  29.6240532  31.8529992   6.6204990  29.0879997
  31.9949992   5.6744990  29.1079997  31.7469992   6.8274990  28.1599997
  31.8581051   6.5189706  28.9652249  25.0079992   4.7224990  26.3609997
  25.0509992   5.5824990  25.9419997  24.5499992   4.1694990  25.7269997
  24.9520163   4.7654174  26.2180604  32.7299992   4.8534990  24.7609997
  33.3759992   4.5244990  25.3859997  33.2399992   5.3704990  24.1389997
  32.8874289   4.8784333  24.7623681  21.6279992   7.1194990  27.1229997
  22.2819992   6.5694990  27.5549997  21.6519992   6.8454990  26.2059997
  21.7207199   7.0072178  27.0581650  26.7839992   8.6694990  26.3379997
  27.3999992   8.1424990  26.8469997  26.1979992   8.0294990  25.9339997
  26.7890652   8.5108919  26.3530277  34.4919992  56.9304990  88.8439997
  34.3109992  57.8464990  88.6329997  34.6689992  56.5194990  87.9969997
  34.4911377  57.0003365  88.7007178  37.7669992   5.3064990  31.8569997
  37.0779992   5.9644990  31.7619997  37.7819992   5.1084990  32.7939997
  37.6747756   5.3697614  31.9705795  23.8179992   3.6404990  30.4349997
  23.5989992   4.1704990  29.6679997  23.1499992   3.8664990  31.0819997
  23.6976975   3.7435979  30.4175123  31.1869992  13.1404990  23.9789997
  30.8909992  12.8174990  23.1269997  30.8629992  14.0404990  24.0199997
  31.1027458  13.2179678  23.8680598  26.3869992  11.3154990  30.7219997
  25.6469992  11.9144990  30.8259997  27.1009992  11.8694990  30.4059997
  26.3823146  11.4722611  30.6935150  34.4939992   4.1444990  26.7419997
  34.2789992   3.3784990  27.2749997  35.1499992   4.6164990  27.2549997
  34.5532673   4.1035739  26.8841972  23.4119992   5.5324990  28.3869997
  24.0249992   6.1654990  28.7599997  23.9239992   5.0604990  27.7309997
  23.5651933   5.5553380  28.3493477  24.7939992  13.2804990  31.5089997
  24.7889992  14.1594990  31.1309997  23.9409992  13.1964990  31.9339997
  24.6779199  13.3895901  31.5146942  20.9159992  12.9514990  22.2909997
  20.6439992  13.1804990  21.4019997  20.9609992  13.7884990  22.7519997
  20.8848360  13.0961034  22.2316186  34.5409992  14.5724990  29.0039997
  33.5989992  14.6314990  29.1659997  34.8169992  15.4784990  28.8669997
  34.4495865  14.7030299  29.0076174  34.8409992   2.8594990  30.4209997
  34.1049992   3.4694990  30.3839997  35.5249992   3.2744990  29.8949997
  34.8325367   2.9992562  30.3448156  21.7979992  55.6174990  86.3089997
  21.7789992  55.1914990  87.1659997  22.6019992  55.2984990  85.8999997
  21.9041393  55.5160297  86.3710155  27.8439992   0.9454990  27.8869997
  27.7269992  -0.0025010  27.8329997  26.9889992   1.2784990  28.1599997
  27.7123691   0.8605842  27.9165072  32.7929992  16.3534990  25.6289997
  33.2179992  15.6464990  25.1439997  33.1099992  17.1554990  25.2119997
  32.8940266  16.3650201  25.5062461  33.9519992  14.2544990  24.1379997
  33.6949992  13.5644990  23.5259997  34.0229992  13.8114990  24.9829997
  33.9264322  14.1001568  24.1685372  35.6379992  12.8214990  32.6149997
  35.7779992  12.2294990  31.8759997  35.8059992  13.6944990  32.2589997
  35.6798734  12.8584041  32.4656937  30.1109992   9.7834990  22.3879997
  29.3989992  10.3184990  22.0359997  30.8019992   9.8384990  21.7279997
  30.1069704   9.8641663  22.2505797  30.1649992   8.2404990  19.4259997
  30.8659992   8.2634990  20.0779997  30.4669992   7.6124990  18.7699997
  30.3018202   8.1587223  19.4265591  37.4799992   9.1614990  30.6809997
  36.8279992   9.8554990  30.7699997  37.9449992   9.3714990  29.8709997
  37.4535357   9.2849544  30.5837056  33.5169992   9.9924990  23.3389997
  32.7849992  10.2214990  23.9119997  33.9639992   9.2794990  23.7939997
  33.4772753   9.9273984  23.4789698  33.4139992   8.1674990  32.4069997
  33.4939992   8.9304990  32.9789997  32.8129992   8.4464990  31.7169997
  33.3436547   8.3097468  32.3920029  25.1619992  10.6234990  25.2219997
  24.8319992  10.2524990  24.4039997  25.7499992   9.9524990  25.5689997
  25.1963182  10.4820648  25.1569898  23.9389992  54.3274990  84.9639997
  23.7199992  53.4104990  85.1329997  24.7629992  54.4674990  85.4299997
  24.0204637  54.2209586  85.0501414  26.5289992  14.0514990  27.9029997
  26.4339992  13.4724990  27.1469997  27.2579992  13.6804990  28.3989997
  26.6146011  13.9220572  27.8666011  25.5289992   9.3914990  28.8549997
  26.0939992   9.5134990  28.0929997  25.8469992  10.0294990  29.4939997
  25.6493619   9.4944388  28.8370019  31.8379992  14.8954990  29.5889997
  31.5969992  15.5574990  30.2369997  31.6399992  14.0604990  30.0139997
  31.7782662  14.8732704  29.7351008  26.4089992  13.7914990  33.5729997
  26.0969992  14.5734990  34.0279997  25.7589992  13.6384990  32.8869997
  26.2784858  13.8777882  33.5425344  32.3879992   9.1554990  21.0249997
  32.9669992   9.3054990  21.7709997  32.8019992   9.6254990  20.3009997
  32.5233358   9.2395966  21.0293935  30.1139992  15.8914990  24.4599997
  30.5879992  16.1874990  25.2369997  29.5509992  16.6304990  24.2269997
  30.1027890  16.0318047  24.5348084  36.0859992   0.9054990  20.8369997
  35.1859992   1.0434990  21.1329997  36.3379992   1.7364990  20.4359997
  35.9967727   1.0368705  20.8232935  24.1519992   9.6924990  22.8109997
  23.8599992  10.4604990  22.3199997  23.4779992   9.0334990  22.6479997
  24.0208843   9.7084537  22.7217695  37.2759992  15.2714990  19.2139997
  37.3489992  16.2104990  19.3839997  38.1809992  14.9664990  19.1579997
  37.4084170  15.3588294  19.2297045  20.2449992  12.0554990  31.6259997
  19.7439992  12.0274990  30.8109997  20.2509992  11.1504990  31.9359997
  20.1771690  11.9292234  31.5562770  26.4759992  54.7974990  85.8119997
  26.6889992  53.9094990  85.5249997  26.5409992  54.7624990  86.7669997
  26.5139075  54.6713318  85.9017355  19.9959992  14.8364990  28.5099997
  20.9419992  14.6914990  28.4909997  19.8829992  15.6204990  29.0469997
  20.1103578  14.9226708  28.5800300  29.1719992  15.0764990  33.0689997
  29.2589992  15.9024990  33.5439997  28.3079992  14.7464990  33.3179997
  29.0671944  15.1449871  33.1676558  29.5859992  18.8484990  22.8749997
  29.5109992  18.7274990  21.9279997  29.6189992  19.7974990  22.9929997
  29.5802083  18.9602639  22.7614973  23.2399992  17.6374990  24.6559997
  23.3919992  17.2894990  25.5339997  22.3889992  17.2804990  24.3999997
  23.1458344  17.5415891  24.7416851  32.6879992  18.0024990  19.8769997
  33.0629992  17.2584990  19.4059997  32.6919992  17.7324990  20.7949997
  32.7398969  17.8640920  19.9366475  32.3569992  17.9284990  22.6259997
  31.4219992  18.0284990  22.8049997  32.6369992  17.2184990  23.2049997
  32.2669471  17.8462944  22.7286678  35.3449992   6.9954990  34.6729997
  34.9379992   7.4754990  33.9519997  35.3859992   6.0894990  34.3649997
  35.2948403   6.9387989  34.5327253  22.4939992  13.3794990  32.6689997
  22.7099992  13.0174990  33.5289997  21.6389992  13.0044990  32.4599997
  22.4079082  13.2793377  32.7582396  25.1129992   1.8494990  28.6649997
  24.2509992   1.7624990  28.2569997  25.0909992   2.7054990  29.0929997
  24.9920557   1.9533078  28.6670202  29.7759992   1.5714990  32.0399997
  30.1959992   1.1564990  32.7929997  28.8429992   1.3924990  32.1569997
  29.7073736   1.4904921  32.1588950  29.9849992  40.4614990  84.9569997
  29.3099992  39.8314990  85.2119997  30.5489992  39.9774990  84.3539997
  29.9689558  40.3099283  84.9103451  33.1019992   5.3264990  32.8929997
  32.5879992   5.2014990  33.6909997  32.9469992   6.2394990  32.6489997
  33.0107802   5.4327433  32.9691504  33.8649992  10.1874990  18.6539997
  33.9069992   9.9654990  17.7239997  34.7139992  10.5864990  18.8439997
  33.9855253  10.2110510  18.5523804  29.4379992   4.0634990  19.3249997
  29.1839992   4.0824990  20.2469997  29.1809992   3.1924990  19.0229997
  29.3684508   3.9483292  19.4104786  25.2039992   6.8144990  29.7599997
  24.5619992   6.7744990  30.4689997  25.2409992   7.7414990  29.5219997
  25.1211659   6.9342540  29.8248463  25.2009992   7.0354990  24.6719997
  24.3079992   6.6954990  24.6129997  25.6519992   6.6584990  23.9159997
  25.1397185   6.9380220  24.5617698  30.7369992   7.4514990  23.4889997
  30.3279992   8.2664990  23.1969997  31.4569992   7.3114990  22.8749997
  30.7784439   7.5440383  23.3660098  31.7409992   6.8974990  26.3029997
  31.5459992   7.5034990  25.5879997  31.9229992   6.0644990  25.8689997
  31.7389195   6.8677936  26.1464079  22.9539992   7.1354990  31.6269997
  22.9159992   7.5354990  32.4959997  22.4629992   6.3184990  31.7169997
  22.8824374   7.0798228  31.7580980  26.3199992   4.5094990  18.4259997
  25.8889992   4.0644990  19.1549997  25.6019992   4.8804990  17.9129997
  26.1639176   4.4987063  18.4564913  19.5619992   4.2514990  25.4779997
  20.1929992   4.2224990  26.1969997  20.0119992   3.8264990  24.7469997
  19.7091082   4.1901269  25.4776307  35.1269992  38.5684990  85.0689997
  35.7309992  39.1164990  84.5679997  34.2579992  38.8874990  84.8289997
  35.0921126  38.6867070  84.9679180  20.8359992   4.9974990  20.9019997
  21.3109992   5.5884990  20.3169997  20.1189992   5.5274990  21.2489997
  20.8040406   5.1501011  20.8688495  31.0049992   8.5354990  30.9739997
  31.3289992   7.9044990  30.3309997  30.5649992   8.0014990  31.6349997
  30.9898707   8.3768261  30.9753195  27.7829992   4.4634990  25.7579997
  26.8719992   4.5204990  26.0469997  28.2879992   4.4034990  26.5689997
  27.7266873   4.4631838  25.9071190  22.6109992   6.0924990  24.5849997
  21.7219992   6.1914990  24.2449997  22.9069992   5.2504990  24.2389997
  22.5294001   5.9922473  24.4917318  26.2639992   6.0924990  22.2419997
  27.1959992   6.2214990  22.4199997  26.0489992   6.7614990  21.5919997
  26.3624472   6.2005817  22.1784873  32.1879992   3.6984990  29.0219997
  31.5109992   3.8294990  29.6859997  31.7019992   3.5434990  28.2119997
  32.0297265   3.6954665  29.0033380  24.9379992   7.2864990  19.8079997
  24.3959992   6.9074990  19.1169997  25.7719992   7.4814990  19.3799997
  24.9764390   7.2609091  19.6554374  35.4749992  19.3694990  35.2989997
  35.6749992  19.7934990  34.4649997  36.1309992  19.7134990  35.9059997
  35.5909937  19.4739993  35.2668645  29.1029992   7.2504990  27.6449997
  29.6669992   6.7044990  27.0979997  28.9549992   6.7294990  28.4339997
  29.1603037   7.1051798  27.6767212  24.1049992   3.3874990  24.0639997
  23.7869992   2.4844990  24.0279997  24.8859992   3.3894990  23.5109997
  24.1671079   3.2642240  23.9842908  36.8539992  39.7074990  83.4029997
  37.4659992  39.1934990  82.8759997  37.2369992  40.5844990  83.4259997
  36.9893867  39.7557613  83.3340888  27.7289992   5.6394990  30.0589997
  26.8939992   6.0934990  30.1699997  28.2529992   5.9154990  30.8109997
  27.6856072   5.7388960  30.1758118  28.2729992  11.8524990  21.7439997
  27.5279992  11.3444990  21.4219997  28.1389992  11.9014990  22.6899997
  28.1529334  11.7896144  21.8278892  35.4229992  10.9854990  30.5309997
  36.0649992  11.4414990  29.9869997  34.5929992  11.0984990  30.0679997
  35.3986536  11.0631813  30.3939579  32.1709992   4.6664990  19.9429997
  31.2319992   4.7774990  19.7919997  32.4679992   5.5224990  20.2499997
  32.0826136   4.7974977  19.9638568  29.7929992  12.0364990  32.9809997
  29.4469992  11.6544990  33.7879997  29.5929992  12.9694990  33.0519997
  29.7185987  12.1104013  33.1010443  32.8889992   6.5334990  21.6039997
  33.7809992   6.3954990  21.9229997  32.9459992   7.3244990  21.0669997
  33.0187380   6.6214777  21.5750981  23.3979992  11.1474990  27.5139997
  24.1429992  11.1444990  26.9119997  23.4759992  10.3234990  27.9949997
  23.5103365  11.0357395  27.4967412  30.3989992  13.3104990  20.7689997
  30.1039992  14.1374990  21.1509997  29.6959992  12.6914990  20.9659997
  30.2636379  13.3399182  20.8478636  20.4059992   9.6074990  32.8289997
  20.6289992   9.1894990  33.6599997  19.8039992   8.9954990  32.4059997
  20.3551513   9.4674617  32.8856722  32.0429992  14.4984990  32.9309997
  31.1419992  14.6814990  32.6639997  32.0769992  14.7574990  33.8519997
  31.9243861  14.5585245  33.0189517  22.3109992  39.0954990  82.7789997
  21.5339992  38.8604990  82.2709997  22.8419992  38.2984990  82.7879997
  22.2764443  38.9556721  82.7107200  37.7739992   6.7424990  21.2989997
  37.2199992   6.3464990  20.6259997  37.8749992   7.6534990  21.0209997
  37.7118589   6.8113904  21.1693839  36.0689992  15.5284990  21.7639997
  35.6969992  14.7034990  22.0729997  36.3469992  15.3454990  20.8659997
  36.0555807  15.3907031  21.6850063  33.2299992  10.3364990  28.7849997
  32.3019992  10.1054990  28.7579997  33.6809992   9.5594990  28.4549997
  33.1638165  10.1997785  28.7366772  25.7729992  14.6654990  24.9179997
  26.2999992  15.4384990  24.7179997  24.8929992  14.8894990  24.6159997
  25.7262121  14.8017344  24.8497460  21.5279992   9.5274990  19.5049997
  22.1439992  10.1544990  19.8849997  20.6659992   9.8434990  19.7769997
  21.4957678   9.6559423  19.5937192  27.1999992  12.3284990  24.4939997
  26.9589992  13.2534990  24.5359997  26.4599992  11.8694990  24.8909997
  27.0669463  12.3930969  24.5534279  27.7149992  16.4774990  30.8089997
  28.0779992  17.3314990  30.5759997  28.2469992  16.1854990  31.5499997
  27.8365141  16.5548907  30.8772079  25.8829992  17.3494990  24.0399997
  24.9339992  17.4554990  24.0909997  26.2349992  18.1704990  24.3839997
  25.8005647  17.4750029  24.0934882  31.2589992  12.5764990  30.5099997
  30.8329992  12.3484990  31.3359997  31.8399992  11.8374990  30.3279997
  31.2792088  12.4454393  30.5984454  33.4619992  13.5054990  19.5839997
  33.8149992  13.1254990  20.3879997  32.5129992  13.4114990  19.6709997
  33.3820956  13.4407867  19.7058005  21.1479992  38.8934990  78.5819997
  21.5869992  39.5044990  77.9909997  20.5139992  39.4314990  79.0559997
  21.1224103  39.0499233  78.5651376  33.9179992  17.1284990  32.9789997
  33.3159992  16.5724990  32.4839997  34.1989992  17.7954990  32.3529997
  33.8735757  17.1425755  32.8265657  37.9649992  17.9844990  19.7849997
  38.7089992  18.5704990  19.6449997  37.2709992  18.5534990  20.1179997
  37.9729809  18.1415830  19.8108572  22.0399992   4.3614990  32.3869997
  21.1469992   4.6994990  32.3189997  21.9409992   3.5054990  32.8049997
  21.9044752   4.2920986  32.4341644  34.3279992  12.1774990  21.8109997
  34.0509992  11.4494990  22.3669997  35.2549992  12.2964990  22.0159997
  34.4154419  12.0939436  21.9148264  21.6909992  16.1654990  30.8219997
  21.9079992  15.2334990  30.7909997  21.9379992  16.4404990  31.7049997
  21.7540948  16.0750976  30.9371268  27.5529992  14.6174990  18.0309997
  27.7919992  13.8684990  17.4839997  27.2839992  14.2294990  18.8639997
  27.5493233  14.4626865  18.0687791  26.4899992  14.1874990  20.4869997
  26.6369992  13.6674990  21.2769997  26.4869992  15.0944990  20.7939997
  26.5097102  14.2388964  20.6365907  22.9429992  11.4394990  20.9979997
  22.2569992  11.7924990  21.5649997  23.4659992  12.2024990  20.7509997
  22.9198402  11.5908912  21.0421783  30.7739992   4.1024990  31.2769997
  31.4729992   4.1764990  31.9269997  30.3939992   3.2374990  31.4309997
  30.8182662   3.9957050  31.3867412  31.5589992   3.7544990  22.3739997
  31.7789992   4.2254990  21.5699997  32.1169992   4.1484990  23.0439997
  31.6646044   3.8722946  22.3545207  26.8909992  39.0214990  82.5919997
  27.7649992  39.4104990  82.5619997  26.7549992  38.8064990  83.5149997
  26.9923125  39.0457120  82.7126523  29.2279992  15.8844990  21.2369997
  28.4109992  16.3814990  21.2889997  29.7569992  16.3604990  20.5959997
  29.1878125  16.0167000  21.1575289  28.7589992   5.4824990  23.2089997
  29.5709992   5.9864990  23.2549997  28.5139992   5.3374990  24.1229997
  28.8371091   5.5319366  23.3388552  29.2949992   6.4684990  32.3929997
  29.4139992   7.0424990  33.1499997  29.9499992   5.7804990  32.5079997
  29.3998684   6.4540205  32.5121656  29.6429992   2.5634990  24.1469997
  29.2959992   3.1804990  24.7909997  30.3009992   3.0644990  23.6649997
  29.6844430   2.7156860  24.1700045  26.5659992  16.9284990  21.2179997
  26.7269992  17.7284990  20.7179997  26.3689992  17.2354990  22.1029997
  26.5613906  17.0793690  21.2692316  25.2999992   3.6264990  20.8339997
  25.2169992   4.5144990  21.1809997  26.1899992   3.3614990  21.0659997
  25.4089331   3.7121177  20.9128067  35.4989992   4.3754990  33.2279997
  34.5829992   4.6374990  33.1409997  35.8349992   4.3724990  32.3319997
  35.4188499   4.4110174  33.0948748  34.1009992   8.1254990  27.3239997
  33.3039992   7.7104990  26.9959997  34.5459992   7.4354990  27.8149997
  34.0520367   7.9753372  27.3454897  23.5589992  14.0534990  19.8939997
  24.1509992  14.7534990  20.1709997  24.0179992  13.6204990  19.1749997
  23.7021652  14.0907686  19.8346515  21.8749992   6.7184990  19.0099997
  21.8299992   7.6574990  19.1889997  20.9869992   6.4824990  18.7409997
  21.7488166   6.8151698  18.9981507  32.4469992  39.0514990  84.2409997
  32.5239992  39.1474990  83.2919997  32.1719992  38.1444990  84.3699997
  32.4203407  38.9419188  84.1283532  35.1879992  17.3814990  28.9459997
  35.0319992  18.0604990  28.2889997  36.1199992  17.4534990  29.1489997
  35.2927328  17.4841586  28.8835529  22.6829992   1.4994990  27.6829997
  22.4539992   1.5584990  26.7559997  22.2399992   0.7084990  27.9899997
  22.5917387   1.4006412  27.5975223  21.6129992  15.4404990  23.8439997
  20.7809992  15.9124990  23.8709997  22.1589992  15.9504990  23.2449997
  21.5728710  15.5740317  23.7667570  29.5909992  16.4804990  18.1689997
  28.9469992  15.8494990  18.4909997  30.3529992  15.9494990  17.9379997
  29.6058708  16.3223171  18.1818462  34.1949992  16.2974990  18.4029997
  34.4779992  15.5024990  18.8559997  34.9349992  16.5304990  17.8419997
  34.3337295  16.2202349  18.3891469  25.1499992  12.2064990  18.2609997
  25.2139992  11.4124990  18.7909997  25.8029992  12.0884990  17.5709997
  25.2470483  12.0817496  18.2403407  27.4639992  11.8324990  35.5609997
  27.1359992  12.1034990  34.7039997  27.6159992  10.8914990  35.4729997
  27.4396412  11.7424058  35.4317804  30.5019992  13.2534990  17.9969997
  30.2339992  13.4344990  18.8969997  30.2959992  12.3284990  17.8649997
  30.4373443  13.1531873  18.1026643  33.1989992  11.7484990  32.9439997
  33.9439992  12.3374990  32.8249997  32.4409992  12.3304990  33.0069997
  33.1985289  11.9077067  32.9362292  26.2989992  10.1794990  20.5669997
  25.8399992   9.6954990  21.2519997  26.5539992   9.5104990  19.9309997
  26.2705997  10.0228491  20.5748734  33.8009992  39.0774990  79.9339997
  33.0979992  39.6924990  79.7239997  33.3559992  38.2404990  80.0649997
  33.6446550  39.0484679  79.9229819  27.3699992   8.4224990  18.8289997
  27.1899992   8.2674990  17.9019997  28.3199992   8.5304990  18.8739997
  27.4737804   8.4158821  18.7081966  36.7599992  10.7764990  18.2749997
  36.4869992  10.3524990  17.4619997  36.7999992  11.7084990  18.0579997
  36.7280201  10.8443523  18.1343548  25.9279992   5.4274990  34.0049997
  26.0779992   4.6984990  33.4029997  25.9299992   6.2044990  33.4459997
  25.9487967   5.4327720  33.8470523  26.3399992   3.7964990  31.4979997
  26.8759992   4.2484990  30.8459997  25.4879992   3.6884990  31.0749997
  26.2981795   3.8437444  31.3516211  27.9219992   9.2364990  31.7369997
  28.6729992   9.0804990  31.1639997  27.5829992  10.0884990  31.4619997
  27.9789587   9.3303149  31.6214060  27.1459992   1.2534990  31.9289997
  27.0479992   2.1994990  31.8239997  26.4029992   0.8804990  31.4529997
  27.0322123   1.3326811  31.8503204  22.5869992   4.5454990  35.6209997
  22.7979992   3.8394990  35.0109997  22.4749992   4.1084990  36.4649997
  22.6007668   4.3896619  35.6515445  27.3679992   0.5474990  34.5999997
  28.0789992  -0.0925010  34.5859997  27.2669992   0.8134990  33.6869997
  27.4516858   0.4958591  34.4745501  27.2679992  19.1124990  19.8299997
  28.2009992  19.2704990  19.9739997  27.0029992  19.7884990  19.2049997
  27.3599846  19.2254567  19.7652930  20.8359992  13.7494990  19.3129997
  21.7499992  13.8284990  19.5859997  20.8429992  13.0624990  18.6469997
  20.9620624  13.6674074  19.2603045  21.0489992  54.8414990  79.4799997
  20.3639992  54.8034990  78.8119997  21.0519992  55.7534990  79.7679997
  20.9557358  54.9596744  79.4276145  19.4849992  19.1424990  24.3899997
  18.8379992  18.6804990  23.8579997  19.8399992  18.4704990  24.9729997
  19.4443741  18.9884785  24.3959157  20.3549992  17.2224990  26.1949997
  20.0209992  16.3424990  26.3669997  20.5769992  17.5684990  27.0599997
  20.3392565  17.1487410  26.3354263  37.9039992  18.0324990  29.1759997
  37.8819992  18.2174990  30.1139997  38.5939992  18.6004990  28.8349997
  37.9943383  18.1347104  29.2584580  37.4669992  17.5994990  32.0969997
  36.9799992  16.8634990  31.7259997  38.0159992  17.2054990  32.7749997
  37.4746101  17.4456267  32.1379034  37.2189992  11.6454990  22.2499997
  38.0689992  12.0664990  22.3769997  37.2239992  10.9054990  22.8569997
  37.3361143  11.6031106  22.3494732  37.6129992   9.6994990  24.0729997
  36.8869992   9.2194990  24.4709997  38.1939992   9.9044990  24.8049997
  37.5922504   9.6615592  24.2264199  37.3719992  12.4844990  29.0209997
  38.2059992  12.1064990  28.7399997  37.4839992  13.4274990  28.9019997
  37.5011917  12.5602954  28.9664844  35.8579992  15.3624990  31.3279997
  35.2109992  15.6874990  31.9529997  35.3409992  14.9214990  30.6539997
  35.6994112  15.3474133  31.3225272  37.8809992   9.6004990  20.4639997
  37.3599992   9.9564990  19.7459997  37.8479992  10.2754990  21.1429997
  37.8050955   9.7405023  20.4572634  36.2299992   6.8394990  19.0149997
  36.3269992   7.5064990  18.3349997  36.0899992   6.0244990  18.5339997
  36.2243407   6.8205670  18.8568312  23.0089992  40.8094990  77.0249997
  23.4999992  40.1794990  76.4969997  23.6319992  41.1054990  77.6879997
  23.1605459  40.7632419  77.0423667  35.3999992   8.2204990  24.6359997
  35.2499992   7.2754990  24.6159997  35.0459992   8.5014990  25.4799997
  35.3316351   8.1291656  24.7473202  20.4349992  10.2984990  28.6469997
  20.6189992  10.2164990  27.7109997  21.2839992  10.1744990  29.0699997
  20.5750132  10.2705066  28.5761460  36.2559992  10.1904990  34.2749997
  36.8389992   9.4554990  34.4669997  36.8199992  10.9624990  34.3219997
  36.4119781  10.1943156  34.3076146  35.4779992   4.2474990  18.1329997
  36.0879992   3.8764990  18.7699997  34.6409992   3.8264990  18.3289997
  35.4483704   4.1397942  18.2467077  35.1099992   5.8024990  23.0989997
  35.3899992   4.8954990  23.2229997  35.8689992   6.2364990  22.7099997
  35.2509258   5.7370935  23.0633691  35.7219992   6.3844990  28.5349997
  36.6549992   6.5964990  28.4999997  35.4869992   6.4854990  29.4569997
  35.8179517   6.4271844  28.6549113  35.7509992   7.1214990  31.3109997
  34.9079992   7.3894990  31.6759997  36.1939992   7.9434990  31.0999997
  35.6954035   7.2693351  31.3324770  20.0319992   5.5684990  34.7869997
  20.9519992   5.4464990  35.0239997  19.5829992   4.8184990  35.1769997
  20.0970500   5.4504576  34.8721016  35.7239992   3.0654990  23.1469997
  35.9059992   2.6164990  23.9719997  35.1239992   2.4814990  22.6829997
  35.6678187   2.9250563  23.1972721  21.2539992   3.8814990  27.6789997
  21.6989992   3.0894990  27.9809997  21.7199992   4.5974990  28.1089997
  21.3779718   3.8699546  27.7785247  28.0349992  41.1024990  79.4819997
  28.2129992  40.4554990  80.1649997  27.9809992  41.9364990  79.9489997
  28.0520678  41.1266615  79.6386283  19.5579992   6.8804990  28.7479997
  20.0499992   6.6594990  27.9569997  19.9199992   7.7204990  29.0289997
  19.6742923   6.9638480  28.6777389  37.5539992   3.2104990  35.0129997
  36.6369992   3.4814990  34.9769997  37.6769992   2.6754990  34.2289997
  37.4450828   3.1752711  34.9020767  37.5899992   3.1334990  19.6749997
  38.0029992   2.4124990  19.1999997  38.2719992   3.8024990  19.7329997
  37.7386060   3.1253741  19.6179233  19.8709992   3.1384990  22.8019997
  18.9459992   3.3464990  22.6729997  20.3249992   3.6224990  22.1119997
  19.8056298   3.2324311  22.6910433  34.6419992  18.1224990  24.7479997
  35.2939992  17.7744990  24.1399997  35.1529992  18.6104990  25.3939997
  34.8002872  18.1408248  24.7520964  19.8349992   1.8764990  31.1459997
  19.1699992   1.6304990  31.7889997  19.3919992   2.4984990  30.5689997
  19.6841168   1.9269225  31.1559830  24.9809992  16.0254990  31.5489997
  24.5559992  16.8354990  31.2669997  25.8849992  16.1114990  31.2469997
  25.0450706  16.1479557  31.4695836  31.6369992  18.7104990  33.7529997
  32.3139992  18.0774990  33.5129997  31.9589992  19.1114990  34.5599997
  31.7731618  18.6781147  33.8292802  36.5549992   1.3004990  32.8319997
  35.7419992   1.6254990  32.4449997  36.7879992   0.5394990  32.2989997
  36.4751347   1.2421891  32.7069824  22.3829992  19.2824990  31.5969997
  21.6619992  19.7224990  31.1459997  22.0169992  19.0314990  32.4449997
  22.2349632  19.3087235  31.6499649  36.6219992  55.6134990  80.5569997
  36.4279992  54.8654990  79.9919997  36.5829992  56.3714990  79.9729997
  36.5901907  55.6135770  80.4008077  24.8499992  18.8824990  30.6259997
  23.9849992  18.9544990  31.0299997  24.7949992  19.4294990  29.8429997
  24.7242289  18.9663242  30.5753749  29.5609992  18.7704990  29.8019997
  29.1039992  19.2994990  29.1479997  29.7229992  19.3734990  30.5269997
  29.5203919  18.9243990  29.8105740  31.8879992  17.6484990  30.7469997
  30.9839992  17.8134990  30.4809997  32.3169992  18.5014990  30.6809997
  31.8222017  17.7864184  30.7016495  34.4919992  19.2184990  31.0419997
  34.3109992  20.1344990  30.8309997  34.6689992  18.8074990  30.1949997
  34.4911377  19.2883365  30.8987178  21.7979992  17.9054990  28.5069997
  21.7789992  17.4794990  29.3639997  22.6019992  17.5864990  28.0979997
  21.9041393  17.8040297  28.5690155  23.9389992  16.6154990  27.1619997
  23.7199992  15.6984990  27.3319997  24.7629992  16.7554990  27.6279997
  24.0204702  16.5090523  27.2482510  26.4759992  17.0854990  28.0109997
  26.6889992  16.1974990  27.7239997  26.5409992  17.0504990  28.9649997
  26.5139149  16.9593338  28.1007351  29.9849992   2.7494990  27.1549997
  29.3099992   2.1194990  27.4109997  30.5489992   2.2654990  26.5519997
  29.9689363   2.5978886  27.1084810  35.1269992   0.8564990  27.2679997
  35.7309992   1.4044990  26.7659997  34.2579992   1.1754990  27.0269997
  35.0920419   0.9745628  27.1667741  36.8539992   1.9954990  25.6009997
  37.4659992   1.4814990  25.0739997  37.2369992   2.8724990  25.6239997
  36.9893867   2.0437613  25.5320888  22.2689992  39.6094990  92.2959997
  21.9029992  38.8434990  92.7389997  23.1819992  39.6384990  92.5829997
  22.3423225  39.5086917  92.3953441  22.3109992   1.3834990  24.9769997
  21.5339992   1.1484990  24.4699997  22.8419992   0.5864990  24.9859997
  22.2763735   1.2436462  24.9088090  21.1479992   1.1814990  20.7809997
  21.5869992   1.7924990  20.1889997  20.5139992   1.7194990  21.2549997
  21.1223859   1.3379076  20.7640287  26.8909992   1.3094990  24.7899997
  27.7649992   1.6984990  24.7609997  26.7549992   1.0944990  25.7129997
  26.9921953   1.3336654  24.9107599  32.4469992   1.3394990  26.4399997
  32.5239992   1.4354990  25.4899997  32.1719992   0.4324990  26.5679997
  32.4203233   1.2299093  26.3273665  33.8009992   1.3654990  22.1319997
  33.0979992   1.9804990  21.9219997  33.3559992   0.5284990  22.2629997
  33.6446550   1.3364679  22.1209819  21.0489992  17.1294990  21.6779997
  20.3639992  17.0914990  21.0109997  21.0519992  18.0414990  21.9659997
  20.9556806  17.2476669  21.6256961  23.0089992   3.0974990  19.2229997
  23.4999992   2.4674990  18.6959997  23.6319992   3.3934990  19.8859997
  23.1605304   3.0512387  19.2404922  28.0349992   3.3904990  21.6799997
  28.2129992   2.7434990  22.3629997  27.9809992   4.2244990  22.1469997
  28.0520678   3.4146615  21.8366283  29.9129992  18.3384990  20.0759997
  30.7789992  18.7054990  19.8979997  29.6659992  17.8994990  19.2619997
  29.9981853  18.3294021  19.9415813  36.6219992  17.9014990  22.7549997
  36.4279992  17.1534990  22.1899997  36.5829992  18.6594990  22.1719997
  36.5901645  17.9015797  22.5988131  24.2419992  38.9594990  93.8319997
  25.1409992  38.6854990  93.6469997  23.8559992  38.2174990  94.2959997
  24.3127237  38.8216520  93.8694693  22.2689992   1.8974990  34.4949997
  21.9029992   1.1314990  34.9369997  23.1819992   1.9264990  34.7809997
  22.3423172   1.7965335  34.5941872  22.8669992  18.0494990  18.7029997
  22.5989992  18.3354990  19.5769997  23.6379992  17.5034990  18.8559997
  22.9345926  18.0147790  18.8431188  50.2459992  10.5394990  24.9359997
  50.3349992  11.4834990  24.8029997  49.6069992  10.2644990  24.2779997
  50.1718378  10.6313846  24.8289258  49.1789992   9.7944990  28.3549997
  49.1399992   9.1484990  29.0599997  48.8559992   9.3274990  27.5829997
  49.1300469   9.6430005  28.3472803  41.5469992   9.4084990  29.9479997
  41.5879992   8.7834990  30.6709997  42.2499992  10.0324990  30.1299997
  41.6476223   9.4072318  30.0716164  52.8849992  12.7334990  26.6559997
  52.4439992  12.0134990  27.1069997  52.8719992  13.4544990  27.2859997
  52.8229215  12.7324303  26.8028088  42.4709992  13.8584990  28.4829997
  42.1009992  13.0564990  28.1129997  43.4119992  13.6904990  28.5289997
  42.5475984  13.7259649  28.4385586  39.0809992   7.5184990  23.8749997
  38.6329992   8.3644990  23.8569997  38.5199992   6.9394990  23.3599997
  38.9438546   7.5559004  23.8028874  39.7909992   9.6804990  26.0009997
  40.0049992   8.9104990  26.5279997  40.5289992   9.7704990  25.3979997
  39.9200073   9.5873546  25.9915786  49.9959992  17.8374990  26.8679997
  50.6159992  17.1614990  26.5949997  49.7879992  17.6194990  27.7769997
  50.0527679  17.7155032  26.9534518  32.6629992  38.2924990  94.0139997
  32.7399992  37.8664990  94.8679997  33.5569992  38.3054990  93.6719997
  32.7943315  38.2360320  94.0845052  47.5679992  12.2264990  28.7609997
  47.8719992  11.5404990  28.1659997  48.2899992  12.3454990  29.3789997
  47.7071240  12.1487325  28.7630941  56.2309992   3.8284990  29.6209997
  56.2799992   4.4384990  30.3569997  56.6569992   4.2894990  28.8979997
  56.2952851   3.9743266  29.6240532  50.7089992   6.6204990  29.0879997
  50.8509992   5.6744990  29.1079997  50.6029992   6.8274990  28.1599997
  50.7141051   6.5189706  28.9652249  43.8639992   4.7224990  26.3609997
  43.9069992   5.5824990  25.9419997  43.4059992   4.1694990  25.7269997
  43.8080163   4.7654174  26.2180604  51.5859992   4.8534990  24.7609997
  52.2319992   4.5244990  25.3859997  52.0959992   5.3704990  24.1389997
  51.7434289   4.8784333  24.7623681  40.4839992   7.1194990  27.1229997
  41.1379992   6.5694990  27.5549997  40.5079992   6.8454990  26.2059997
  40.5767199   7.0072178  27.0581650  45.6399992   8.6694990  26.3379997
  46.2559992   8.1424990  26.8469997  45.0539992   8.0294990  25.9339997
  45.6450652   8.5108919  26.3530277  56.6229992   5.3064990  31.8569997
  55.9339992   5.9644990  31.7619997  56.6379992   5.1084990  32.7939997
  56.5307756   5.3697614  31.9705795  42.6739992   3.6404990  30.4349997
  42.4549992   4.1704990  29.6679997  42.0059992   3.8664990  31.0819997
  42.5536975   3.7435979  30.4175123  50.0429992  13.1404990  23.9789997
  49.7469992  12.8174990  23.1269997  49.7189992  14.0404990  24.0199997
  49.9587458  13.2179678  23.8680598  35.8399992  54.3644990  92.7069997
  35.0579992  54.1784990  92.1869997  35.7679992  55.2944990  92.9239997
  35.7232975  54.4646973  92.6651822  45.2429992  11.3154990  30.7219997
  44.5029992  11.9144990  30.8259997  45.9569992  11.8694990  30.4059997
  45.2383146  11.4722611  30.6935150  53.3499992   4.1444990  26.7419997
  53.1349992   3.3784990  27.2749997  54.0059992   4.6164990  27.2549997
  53.4092673   4.1035739  26.8841972  42.2679992   5.5324990  28.3869997
  42.8809992   6.1654990  28.7599997  42.7799992   5.0604990  27.7309997
  42.4211933   5.5553380  28.3493477  43.6499992  13.2804990  31.5089997
  43.6449992  14.1594990  31.1309997  42.7969992  13.1964990  31.9339997
  43.5339199  13.3895901  31.5146942  39.7719992  12.9514990  22.2909997
  39.4999992  13.1804990  21.4019997  39.8169992  13.7884990  22.7519997
  39.7408360  13.0961034  22.2316186  53.3969992  14.5724990  29.0039997
  52.4549992  14.6314990  29.1659997  53.6729992  15.4784990  28.8669997
  53.3055865  14.7030299  29.0076174  53.6969992   2.8594990  30.4209997
  52.9609992   3.4694990  30.3839997  54.3809992   3.2744990  29.8949997
  53.6885367   2.9992562  30.3448156  46.6999992   0.9454990  27.8869997
  46.5829992  -0.0025010  27.8329997  45.8449992   1.2784990  28.1599997
  46.5683691   0.8605842  27.9165072  51.6489992  16.3534990  25.6289997
  52.0739992  15.6464990  25.1439997  51.9659992  17.1554990  25.2119997
  51.7500266  16.3650201  25.5062461  52.8079992  14.2544990  24.1379997
  52.5509992  13.5644990  23.5259997  52.8789992  13.8114990  24.9829997
  52.7824322  14.1001568  24.1685372  50.2459992  48.2514990  82.7369997
  50.3349992  49.1954990  82.6049997  49.6069992  47.9764990  82.0789997
  50.1718319  48.3434984  82.6300276  54.4939992  12.8214990  32.6149997
  54.6339992  12.2294990  31.8759997  54.6619992  13.6944990  32.2589997
  54.5358734  12.8584041  32.4656937  48.9669992   9.7834990  22.3879997
  48.2549992  10.3184990  22.0359997  49.6579992   9.8384990  21.7279997
  48.9629704   9.8641663  22.2505797  49.0209992   8.2404990  19.4259997
  49.7219992   8.2634990  20.0779997  49.3229992   7.6124990  18.7699997
  49.1578202   8.1587223  19.4265591  56.3359992   9.1614990  30.6809997
  55.6839992   9.8554990  30.7699997  56.8009992   9.3714990  29.8709997
  56.3095357   9.2849544  30.5837056  52.3729992   9.9924990  23.3389997
  51.6409992  10.2214990  23.9119997  52.8199992   9.2794990  23.7939997
  52.3332753   9.9273984  23.4789698  52.2699992   8.1674990  32.4069997
  52.3499992   8.9304990  32.9789997  51.6689992   8.4464990  31.7169997
  52.1996547   8.3097468  32.3920029  44.0179992  10.6234990  25.2219997
  43.6879992  10.2524990  24.4039997  44.6059992   9.9524990  25.5689997
  44.0523182  10.4820648  25.1569898  45.3849992  14.0514990  27.9029997
  45.2899992  13.4724990  27.1469997  46.1139992  13.6804990  28.3989997
  45.4706011  13.9220572  27.8666011  44.3849992   9.3914990  28.8549997
  44.9499992   9.5134990  28.0929997  44.7029992  10.0294990  29.4939997
  44.5053619   9.4944388  28.8370019  50.6939992  14.8954990  29.5889997
  50.4529992  15.5574990  30.2369997  50.4959992  14.0604990  30.0139997
  50.6342662  14.8732704  29.7351008  49.1789992  47.5064990  86.1559997
  49.1399992  46.8604990  86.8609997  48.8559992  47.0394990  85.3849997
  49.1300199  47.3550089  86.1482865  45.2649992  13.7914990  33.5729997
  44.9529992  14.5734990  34.0279997  44.6149992  13.6384990  32.8869997
  45.1344858  13.8777882  33.5425344  51.2439992   9.1554990  21.0249997
  51.8229992   9.3054990  21.7709997  51.6579992   9.6254990  20.3009997
  51.3793358   9.2395966  21.0293935  42.1849992   9.9894990  32.8009997
  42.2549992  10.6404990  33.4999997  41.2939992  10.0924990  32.4659997
  42.0741690  10.0924261  32.8513026  48.9699992  15.8914990  24.4599997
  49.4439992  16.1874990  25.2369997  48.4069992  16.6304990  24.2269997
  48.9587890  16.0318047  24.5348084  43.5039992  15.8624990  34.3359997
  43.5119992  15.7264990  33.3889997  42.5879992  15.7454990  34.5879997
  43.3812528  15.8280475  34.2403226  54.9419992   0.9054990  20.8369997
  54.0419992   1.0434990  21.1329997  55.1939992   1.7364990  20.4359997
  54.8527727   1.0368705  20.8232935  43.0079992   9.6924990  22.8109997
  42.7159992  10.4604990  22.3199997  42.3339992   9.0334990  22.6479997
  42.8768843   9.7084537  22.7217695  56.1319992  15.2714990  19.2139997
  56.2049992  16.2104990  19.3839997  57.0369992  14.9664990  19.1579997
  56.2644170  15.3588294  19.2297045  39.1009992  12.0554990  31.6259997
  38.5999992  12.0274990  30.8109997  39.1069992  11.1504990  31.9359997
  39.0331690  11.9292234  31.5562770  38.8519992  14.8364990  28.5099997
  39.7979992  14.6914990  28.4909997  38.7389992  15.6204990  29.0469997
  38.9663578  14.9226708  28.5800300  41.5469992  47.1204990  87.7489997
  41.5879992  46.4954990  88.4729997  42.2499992  47.7444990  87.9309997
  41.6476054  47.1193262  87.8726311  48.0279992  15.0764990  33.0689997
  48.1149992  15.9024990  33.5439997  47.1639992  14.7464990  33.3179997
  47.9231944  15.1449871  33.1676558  48.4419992  18.8484990  22.8749997
  48.3669992  18.7274990  21.9279997  48.4749992  19.7974990  22.9929997
  48.4362083  18.9602639  22.7614973  42.0959992  17.6374990  24.6559997
  42.2479992  17.2894990  25.5339997  41.2449992  17.2804990  24.3999997
  42.0018344  17.5415891  24.7416851  51.5439992  18.0024990  19.8769997
  51.9189992  17.2584990  19.4059997  51.5479992  17.7324990  20.7949997
  51.5958969  17.8640920  19.9366475  51.2129992  17.9284990  22.6259997
  50.2779992  18.0284990  22.8049997  51.4929992  17.2184990  23.2049997
  51.1229471  17.8462944  22.7286678  41.3499992  13.3794990  32.6689997
  41.5659992  13.0174990  33.5289997  40.4949992  13.0044990  32.4599997
  41.2639082  13.2793377  32.7582396  43.9689992   1.8494990  28.6649997
  43.1069992   1.7624990  28.2569997  43.9469992   2.7054990  29.0929997
  43.8480557   1.9533078  28.6670202  52.7209992  10.1874990  18.6539997
  52.7629992   9.9654990  17.7239997  53.5699992  10.5864990  18.8439997
  52.8415253  10.2110510  18.5523804  48.2939992   4.0634990  19.3249997
  48.0399992   4.0824990  20.2469997  48.0369992   3.1924990  19.0229997
  48.2244508   3.9483292  19.4104786  44.0599992   6.8144990  29.7599997
  43.4179992   6.7744990  30.4689997  44.0969992   7.7414990  29.5219997
  43.9771659   6.9342540  29.8248463  52.8849992  50.4454990  84.4579997
  52.4439992  49.7254990  84.9079997  52.8719992  51.1664990  85.0879997
  52.8228398  50.4443187  84.6047734  44.0569992   7.0354990  24.6719997
  43.1639992   6.6954990  24.6129997  44.5079992   6.6584990  23.9159997
  43.9957185   6.9380220  24.5617698  49.5929992   7.4514990  23.4889997
  49.1839992   8.2664990  23.1969997  50.3129992   7.3114990  22.8749997
  49.6344439   7.5440383  23.3660098  48.6949992   7.6274990  34.9769997
  48.1319992   6.9224990  35.2979997  49.5209992   7.5064990  35.4449997
  48.7296674   7.5147176  35.0841734  50.5969992   6.8974990  26.3029997
  50.4019992   7.5034990  25.5879997  50.7789992   6.0644990  25.8689997
  50.5949195   6.8677936  26.1464079  41.8099992   7.1354990  31.6269997
  41.7719992   7.5354990  32.4959997  41.3189992   6.3184990  31.7169997
  41.7384374   7.0798228  31.7580980  45.1759992   4.5094990  18.4259997
  44.7449992   4.0644990  19.1549997  44.4579992   4.8804990  17.9129997
  45.0199176   4.4987063  18.4564913  38.4179992   4.2514990  25.4779997
  39.0489992   4.2224990  26.1969997  38.8679992   3.8264990  24.7469997
  38.5651082   4.1901269  25.4776307  39.6919992   4.9974990  20.9019997
  40.1669992   5.5884990  20.3169997  38.9749992   5.5274990  21.2489997
  39.6600406   5.1501011  20.8688495  49.8609992   8.5354990  30.9739997
  50.1849992   7.9044990  30.3309997  49.4209992   8.0014990  31.6349997
  49.8458707   8.3768261  30.9753195  46.6389992   4.4634990  25.7579997
  45.7279992   4.5204990  26.0469997  47.1439992   4.4034990  26.5689997
  46.5826873   4.4631838  25.9071190  42.4709992  51.5704990  86.2839997
  42.1009992  50.7684990  85.9149997  43.4119992  51.4024990  86.3309997
  42.5475630  51.4378680  86.2397873  41.4669992   6.0924990  24.5849997
  40.5779992   6.1914990  24.2449997  41.7629992   5.2504990  24.2389997
  41.3854001   5.9922473  24.4917318  45.1199992   6.0924990  22.2419997
  46.0519992   6.2214990  22.4199997  44.9049992   6.7614990  21.5919997
  45.2184472   6.2005817  22.1784873  51.0439992   3.6984990  29.0219997
  50.3669992   3.8294990  29.6859997  50.5579992   3.5434990  28.2119997
  50.8857265   3.6954665  29.0033380  43.7939992   7.2864990  19.8079997
  43.2519992   6.9074990  19.1169997  44.6279992   7.4814990  19.3799997
  43.8324390   7.2609091  19.6554374  54.3309992  19.3694990  35.2989997
  54.5309992  19.7934990  34.4649997  54.9869992  19.7134990  35.9059997
  54.4469937  19.4739993  35.2668645  47.9589992   7.2504990  27.6449997
  48.5229992   6.7044990  27.0979997  47.8109992   6.7294990  28.4339997
  48.0163037   7.1051798  27.6767212  42.9609992   3.3874990  24.0639997
  42.6429992   2.4844990  24.0279997  43.7419992   3.3894990  23.5109997
  43.0231079   3.2642240  23.9842908  46.5849992   5.6394990  30.0589997
  45.7499992   6.0934990  30.1699997  47.1089992   5.9154990  30.8109997
  46.5416072   5.7388960  30.1758118  47.1289992  11.8524990  21.7439997
  46.3839992  11.3444990  21.4219997  46.9949992  11.9014990  22.6899997
  47.0089334  11.7896144  21.8278892  54.2789992  10.9854990  30.5309997
  54.9209992  11.4414990  29.9869997  53.4489992  11.0984990  30.0679997
  54.2546536  11.0631813  30.3939579  39.0809992  45.2304990  81.6769997
  38.6329992  46.0764990  81.6589997  38.5199992  44.6514990  81.1619997
  38.9438546  45.2679004  81.6048874  51.0269992   4.6664990  19.9429997
  50.0879992   4.7774990  19.7919997  51.3239992   5.5224990  20.2499997
  50.9386136   4.7974977  19.9638568  48.6489992  12.0364990  32.9809997
  48.3029992  11.6544990  33.7879997  48.4489992  12.9694990  33.0519997
  48.5745987  12.1104013  33.1010443  51.7449992   6.5334990  21.6039997
  52.6369992   6.3954990  21.9229997  51.8019992   7.3244990  21.0669997
  51.8747380   6.6214777  21.5750981  42.2539992  11.1474990  27.5139997
  42.9989992  11.1444990  26.9119997  42.3319992  10.3234990  27.9949997
  42.3663365  11.0357395  27.4967412  49.2549992  13.3104990  20.7689997
  48.9599992  14.1374990  21.1509997  48.5519992  12.6914990  20.9659997
  49.1196379  13.3399182  20.8478636  39.2619992   9.6074990  32.8289997
  39.4849992   9.1894990  33.6599997  38.6599992   8.9954990  32.4059997
  39.2111513   9.4674617  32.8856722  50.8989992  14.4984990  32.9309997
  49.9979992  14.6814990  32.6639997  50.9329992  14.7574990  33.8519997
  50.7803861  14.5585245  33.0189517  56.6299992   6.7424990  21.2989997
  56.0759992   6.3464990  20.6259997  56.7309992   7.6534990  21.0209997
  56.5678589   6.8113904  21.1693839  54.9249992  15.5284990  21.7639997
  54.5529992  14.7034990  22.0729997  55.2029992  15.3454990  20.8659997
  54.9115807  15.3907031  21.6850063  52.0859992  10.3364990  28.7849997
  51.1579992  10.1054990  28.7579997  52.5369992   9.5594990  28.4549997
  52.0198165  10.1997785  28.7366772  39.7909992  47.3924990  83.8029997
  40.0049992  46.6224990  84.3299997  40.5289992  47.4824990  83.1999997
  39.9200073  47.2993546  83.7935786  44.6289992  14.6654990  24.9179997
  45.1559992  15.4384990  24.7179997  43.7489992  14.8894990  24.6159997
  44.5822121  14.8017344  24.8497460  40.3839992   9.5274990  19.5049997
  40.9999992  10.1544990  19.8849997  39.5219992   9.8434990  19.7769997
  40.3517678   9.6559423  19.5937192  46.0559992  12.3284990  24.4939997
  45.8149992  13.2534990  24.5359997  45.3159992  11.8694990  24.8909997
  45.9229463  12.3930969  24.5534279  46.5709992  16.4774990  30.8089997
  46.9339992  17.3314990  30.5759997  47.1029992  16.1854990  31.5499997
  46.6925141  16.5548907  30.8772079  44.7389992  17.3494990  24.0399997
  43.7899992  17.4554990  24.0909997  45.0909992  18.1704990  24.3839997
  44.6565647  17.4750029  24.0934882  50.1149992  12.5764990  30.5099997
  49.6889992  12.3484990  31.3359997  50.6959992  11.8374990  30.3279997
  50.1352088  12.4454393  30.5984454  52.3179992  13.5054990  19.5839997
  52.6709992  13.1254990  20.3879997  51.3689992  13.4114990  19.6709997
  52.2380956  13.4407867  19.7058005  52.7739992  17.1284990  32.9789997
  52.1719992  16.5724990  32.4839997  53.0549992  17.7954990  32.3529997
  52.7295757  17.1425755  32.8265657  56.8209992  17.9844990  19.7849997
  57.5649992  18.5704990  19.6449997  56.1269992  18.5534990  20.1179997
  56.8289809  18.1415830  19.8108572  40.8959992   4.3614990  32.3869997
  40.0029992   4.6994990  32.3189997  40.7969992   3.5054990  32.8049997
  40.7604752   4.2920986  32.4341644  49.9959992  55.5494990  84.6699997
  50.6159992  54.8734990  84.3969997  49.7879992  55.3314990  85.5779997
  50.0527360  55.4274792  84.7554387  53.1839992  12.1774990  21.8109997
  52.9069992  11.4494990  22.3669997  54.1109992  12.2964990  22.0159997
  53.2714419  12.0939436  21.9148264  40.5469992  16.1654990  30.8219997
  40.7639992  15.2334990  30.7909997  40.7939992  16.4404990  31.7049997
  40.6100948  16.0750976  30.9371268  46.4089992  14.6174990  18.0309997
  46.6479992  13.8684990  17.4839997  46.1399992  14.2294990  18.8639997
  46.4053233  14.4626865  18.0687791  45.3459992  14.1874990  20.4869997
  45.4929992  13.6674990  21.2769997  45.3429992  15.0944990  20.7939997
  45.3657102  14.2388964  20.6365907  41.7989992  11.4394990  20.9979997
  41.1129992  11.7924990  21.5649997  42.3219992  12.2024990  20.7509997
  41.7758402  11.5908912  21.0421783  49.6299992   4.1024990  31.2769997
  50.3289992   4.1764990  31.9269997  49.2499992   3.2374990  31.4309997
  49.6742662   3.9957050  31.3867412  50.4149992   3.7544990  22.3739997
  50.6349992   4.2254990  21.5699997  50.9729992   4.1484990  23.0439997
  50.5206044   3.8722946  22.3545207  48.0839992  15.8844990  21.2369997
  47.2669992  16.3814990  21.2889997  48.6129992  16.3604990  20.5959997
  48.0438125  16.0167000  21.1575289  47.6149992   5.4824990  23.2089997
  48.4269992   5.9864990  23.2549997  47.3699992   5.3374990  24.1229997
  47.6931091   5.5319366  23.3388552  48.1509992   6.4684990  32.3929997
  48.2699992   7.0424990  33.1499997  48.8059992   5.7804990  32.5079997
  48.2558684   6.4540205  32.5121656  47.5679992  49.9384990  86.5619997
  47.8719992  49.2524990  85.9679997  48.2899992  50.0574990  87.1799997
  47.7071152  49.8607201  86.5642106  48.4989992   2.5634990  24.1469997
  48.1519992   3.1804990  24.7909997  49.1569992   3.0644990  23.6649997
  48.5404430   2.7156860  24.1700046  45.4219992  16.9284990  21.2179997
  45.5829992  17.7284990  20.7179997  45.2249992  17.2354990  22.1029997
  45.4173906  17.0793690  21.2692316  44.1559992   3.6264990  20.8339997
  44.0729992   4.5144990  21.1809997  45.0459992   3.3614990  21.0659997
  44.2649331   3.7121177  20.9128067  52.9569992   8.1254990  27.3239997
  52.1599992   7.7104990  26.9959997  53.4019992   7.4354990  27.8149997
  52.9080367   7.9753372  27.3454897  42.4149992  14.0534990  19.8939997
  43.0069992  14.7534990  20.1709997  42.8739992  13.6204990  19.1749997
  42.5581652  14.0907686  19.8346515  40.7309992   6.7184990  19.0099997
  40.6859992   7.6574990  19.1889997  39.8429992   6.4824990  18.7409997
  40.6048166   6.8151698  18.9981507  54.0439992  17.3814990  28.9459997
  53.8879992  18.0604990  28.2889997  54.9759992  17.4534990  29.1489997
  54.1487328  17.4841586  28.8835529  41.5389992   1.4994990  27.6829997
  41.3099992   1.5584990  26.7559997  41.0959992   0.7084990  27.9899997
  41.4477387   1.4006412  27.5975223  40.4689992  15.4404990  23.8439997
  39.6369992  15.9124990  23.8709997  41.0149992  15.9504990  23.2449997
  40.4288710  15.5740317  23.7667570  48.4469992  16.4804990  18.1689997
  47.8029992  15.8494990  18.4909997  49.2089992  15.9494990  17.9379997
  48.4618708  16.3223171  18.1818462  56.2309992  41.5404990  87.4229997
  56.2799992  42.1504990  88.1589997  56.6569992  42.0014990  86.6999997
  56.2952851  41.6863266  87.4260532  53.0509992  16.2974990  18.4029997
  53.3339992  15.5024990  18.8559997  53.7909992  16.5304990  17.8419997
  53.1897295  16.2202349  18.3891469  44.0059992  12.2064990  18.2609997
  44.0699992  11.4124990  18.7909997  44.6589992  12.0884990  17.5709997
  44.1030483  12.0817496  18.2403407  49.3579992  13.2534990  17.9969997
  49.0899992  13.4344990  18.8969997  49.1519992  12.3284990  17.8649997
  49.2933443  13.1531873  18.1026643  52.0549992  11.7484990  32.9439997
  52.7999992  12.3374990  32.8249997  51.2969992  12.3304990  33.0069997
  52.0545289  11.9077067  32.9362292  45.1549992  10.1794990  20.5669997
  44.6959992   9.6954990  21.2519997  45.4099992   9.5104990  19.9309997
  45.1265997  10.0228491  20.5748734  44.4439992   8.0724990  32.9229997
  43.8259992   8.7464990  33.2029997  44.7879992   8.3934990  32.0889997
  44.4058078   8.2082298  32.8486609  46.2259992   8.4224990  18.8289997
  46.0459992   8.2674990  17.9019997  47.1759992   8.5304990  18.8739997
  46.3297804   8.4158821  18.7081966  55.6159992  10.7764990  18.2749997
  55.3429992  10.3524990  17.4619997  55.6559992  11.7084990  18.0579997
  55.5840201  10.8443523  18.1343548  44.7839992   5.4274990  34.0049997
  44.9339992   4.6984990  33.4029997  44.7859992   6.2044990  33.4459997
  44.8047967   5.4327720  33.8470523  45.1959992   3.7964990  31.4979997
  45.7319992   4.2484990  30.8459997  44.3439992   3.6884990  31.0749997
  45.1541795   3.8437444  31.3516211  50.7089992  44.3324990  86.8899997
  50.8509992  43.3864990  86.9099997  50.6029992  44.5394990  85.9609997
  50.7141158  44.2309722  86.7672241  46.7779992   9.2364990  31.7369997
  47.5289992   9.0804990  31.1639997  46.4389992  10.0884990  31.4619997
  46.8349587   9.3303149  31.6214060  52.5099992   9.8404990  34.8429997
  52.2289992  10.5494990  34.2649997  53.4529992   9.7674990  34.6919997
  52.5989272   9.9276704  34.7434976  46.0019992   1.2534990  31.9289997
  45.9039992   2.1994990  31.8239997  45.2589992   0.8804990  31.4529997
  45.8882123   1.3326811  31.8503204  46.1239992  19.1124990  19.8299997
  47.0569992  19.2704990  19.9739997  45.8589992  19.7884990  19.2049997
  46.2159846  19.2254567  19.7652930  39.6919992  13.7494990  19.3129997
  40.6059992  13.8284990  19.5859997  39.6989992  13.0624990  18.6469997
  39.8180624  13.6674074  19.2603045  38.3409992  19.1424990  24.3899997
  37.6939992  18.6804990  23.8579997  38.6959992  18.4704990  24.9729997
  38.3003741  18.9884785  24.3959157  39.2109992  17.2224990  26.1949997
  38.8769992  16.3424990  26.3669997  39.4329992  17.5684990  27.0599997
  39.1952565  17.1487410  26.3354263  56.7599992  18.0324990  29.1759997
  56.7379992  18.2174990  30.1139997  57.4499992  18.6004990  28.8349997
  56.8503383  18.1347104  29.2584580  56.3229992  17.5994990  32.0969997
  55.8359992  16.8634990  31.7259997  56.8719992  17.2054990  32.7749997
  56.3306101  17.4456267  32.1379034  56.0749992  11.6454990  22.2499997
  56.9249992  12.0664990  22.3769997  56.0799992  10.9054990  22.8569997
  56.1921143  11.6031106  22.3494732  43.8639992  42.4344990  84.1619997
  43.9069992  43.2944990  83.7439997  43.4059992  41.8814990  83.5289997
  43.8079613  42.4775689  84.0191276  56.4689992   9.6994990  24.0729997
  55.7429992   9.2194990  24.4709997  57.0499992   9.9044990  24.8049997
  56.4482504   9.6615592  24.2264199  56.2279992  12.4844990  29.0209997
  57.0619992  12.1064990  28.7399997  56.3399992  13.4274990  28.9019997
  56.3571917  12.5602954  28.9664844  54.7139992  15.3624990  31.3279997
  54.0669992  15.6874990  31.9529997  54.1969992  14.9214990  30.6539997
  54.5554112  15.3474133  31.3225272  56.7369992   9.6004990  20.4639997
  56.2159992   9.9564990  19.7459997  56.7039992  10.2754990  21.1429997
  56.6610955   9.7405023  20.4572634  55.0859992   6.8394990  19.0149997
  55.1829992   7.5064990  18.3349997  54.9459992   6.0244990  18.5339997
  55.0803407   6.8205670  18.8568312  54.2559992   8.2204990  24.6359997
  54.1059992   7.2754990  24.6159997  53.9019992   8.5014990  25.4799997
  54.1876351   8.1291656  24.7473202  39.2909992  10.2984990  28.6469997
  39.4749992  10.2164990  27.7109997  40.1399992  10.1744990  29.0699997
  39.4310132  10.2705066  28.5761460  55.1119992  10.1904990  34.2749997
  55.6949992   9.4554990  34.4669997  55.6759992  10.9624990  34.3219997
  55.2679781  10.1943156  34.3076146  54.3339992   4.2474990  18.1329997
  54.9439992   3.8764990  18.7699997  53.4969992   3.8264990  18.3289997
  54.3043704   4.1397942  18.2467077  53.9659992   5.8024990  23.0989997
  54.2459992   4.8954990  23.2229997  54.7249992   6.2364990  22.7099997
  54.1069258   5.7370935  23.0633691  51.5859992  42.5654990  82.5629997
  52.2319992  42.2364990  83.1879997  52.0959992  43.0824990  81.9399997
  51.7434392  42.5903710  82.5643248  54.5779992   6.3844990  28.5349997
  55.5109992   6.5964990  28.4999997  54.3429992   6.4854990  29.4569997
  54.6739517   6.4271844  28.6549113  54.6069992   7.1214990  31.3109997
  53.7639992   7.3894990  31.6759997  55.0499992   7.9434990  31.0999997
  54.5514035   7.2693351  31.3324770  54.5799992   3.0654990  23.1469997
  54.7619992   2.6164990  23.9719997  53.9799992   2.4814990  22.6829997
  54.5238187   2.9250563  23.1972721  40.1099992   3.8814990  27.6789997
  40.5549992   3.0894990  27.9809997  40.5759992   4.5974990  28.1089997
  40.2339718   3.8699546  27.7785247  38.4139992   6.8804990  28.7479997
  38.9059992   6.6594990  27.9569997  38.7759992   7.7204990  29.0289997
  38.5302923   6.9638480  28.6777389  56.4459992   3.1334990  19.6749997
  56.8589992   2.4124990  19.1999997  57.1279992   3.8024990  19.7329997
  56.5946060   3.1253741  19.6179233  38.7269992   3.1384990  22.8019997
  37.8019992   3.3464990  22.6729997  39.1809992   3.6224990  22.1119997
  38.6616298   3.2324311  22.6910433  53.4979992  18.1224990  24.7479997
  54.1499992  17.7744990  24.1399997  54.0089992  18.6104990  25.3939997
  53.6562872  18.1408248  24.7520964  38.6909992   1.8764990  31.1459997
  38.0259992   1.6304990  31.7889997  38.2479992   2.4984990  30.5689997
  38.5401168   1.9269225  31.1559830  43.8369992  16.0254990  31.5489997
  43.4119992  16.8354990  31.2669997  44.7409992  16.1114990  31.2469997
  43.9010706  16.1479557  31.4695836  40.4839992  44.8314990  84.9239997
  41.1379992  44.2814990  85.3559997  40.5079992  44.5574990  84.0079997
  40.5767022  44.7192005  84.8591698  55.4109992   1.3004990  32.8319997
  54.5979992   1.6254990  32.4449997  55.6439992   0.5394990  32.2989997
  55.3311347   1.2421891  32.7069824  41.2389992  19.2824990  31.5969997
  40.5179992  19.7224990  31.1459997  40.8729992  19.0314990  32.4449997
  41.0909632  19.3087235  31.6499649  43.7059992  18.8824990  30.6259997
  42.8409992  18.9544990  31.0299997  43.6509992  19.4294990  29.8429997
  43.5802289  18.9663242  30.5753749  48.4169992  18.7704990  29.8019997
  47.9599992  19.2994990  29.1479997  48.5789992  19.3734990  30.5269997
  48.3763919  18.9243990  29.8105740  50.7439992  17.6484990  30.7469997
  49.8399992  17.8134990  30.4809997  51.1729992  18.5014990  30.6809997
  50.6782017  17.7864184  30.7016495  53.3479992  19.2184990  31.0419997
  53.1669992  20.1344990  30.8309997  53.5249992  18.8074990  30.1949997
  53.3471377  19.2883365  30.8987178  40.6539992  17.9054990  28.5069997
  40.6349992  17.4794990  29.3639997  41.4579992  17.5864990  28.0979997
  40.7601393  17.8040297  28.5690155  42.7949992  16.6154990  27.1619997
  42.5759992  15.6984990  27.3319997  43.6189992  16.7554990  27.6279997
  42.8764702  16.5090523  27.2482510  45.3319992  17.0854990  28.0109997
  45.5449992  16.1974990  27.7239997  45.3969992  17.0504990  28.9649997
  45.3699149  16.9593338  28.1007351  48.8409992   2.7494990  27.1549997
  48.1659992   2.1194990  27.4109997  49.4049992   2.2654990  26.5519997
  48.8249363   2.5978886  27.1084810  45.6399992  46.3814990  84.1399997
  46.2559992  45.8544990  84.6489997  45.0539992  45.7414990  83.7359997
  45.6450652  46.2228919  84.1550277  53.9829992   0.8564990  27.2679997
  54.5869992   1.4044990  26.7659997  53.1139992   1.1754990  27.0269997
  53.9480419   0.9745628  27.1667741  55.7099992   1.9954990  25.6009997
  56.3219992   1.4814990  25.0739997  56.0929992   2.8724990  25.6239997
  55.8453867   2.0437613  25.5320888  41.1669992   1.3834990  24.9769997
  40.3899992   1.1484990  24.4699997  41.6979992   0.5864990  24.9859997
  41.1323735   1.2436462  24.9088090  40.0039992   1.1814990  20.7809997
  40.4429992   1.7924990  20.1889997  39.3699992   1.7194990  21.2549997
  39.9783859   1.3379076  20.7640287  45.7469992   1.3094990  24.7899997
  46.6209992   1.6984990  24.7609997  45.6109992   1.0944990  25.7129997
  45.8481953   1.3336654  24.9107599  51.3029992   1.3394990  26.4399997
  51.3799992   1.4354990  25.4899997  51.0279992   0.4324990  26.5679997
  51.2763233   1.2299093  26.3273665  52.6569992   1.3654990  22.1319997
  51.9539992   1.9804990  21.9219997  52.2119992   0.5284990  22.2629997
  52.5006550   1.3364679  22.1209819  39.9049992  17.1294990  21.6779997
  39.2199992  17.0914990  21.0109997  39.9079992  18.0414990  21.9659997
  39.8116806  17.2476669  21.6256961  41.8649992   3.0974990  19.2229997
  42.3559992   2.4674990  18.6959997  42.4879992   3.3934990  19.8859997
  42.0165304   3.0512387  19.2404922  46.8909992   3.3904990  21.6799997
  47.0689992   2.7434990  22.3629997  46.8369992   4.2244990  22.1469997
  46.9080678   3.4146615  21.8366283  56.6229992  43.0184990  89.6589997
  55.9339992  43.6764990  89.5639997  56.6379992  42.8204990  90.5959997
  56.5307756  43.0817614  89.7725795  48.7689992  18.3384990  20.0759997
  49.6349992  18.7054990  19.8979997  48.5219992  17.8994990  19.2619997
  48.8541853  18.3294021  19.9415813  55.4779992  17.9014990  22.7549997
  55.2839992  17.1534990  22.1899997  55.4389992  18.6594990  22.1719997
  55.4461645  17.9015797  22.5988131  41.1249992   1.8974990  34.4949997
  40.7589992   1.1314990  34.9369997  42.0379992   1.9264990  34.7809997
  41.1983172   1.7965335  34.5941872  41.7229992  18.0494990  18.7029997
  41.4549992  18.3354990  19.5769997  42.4939992  17.5034990  18.8559997
  41.7905926  18.0147790  18.8431188  69.1019992  10.5394990  24.9359997
  69.1909992  11.4834990  24.8029997  68.4629992  10.2644990  24.2779997
  69.0278378  10.6313846  24.8289258  68.0349992   9.7944990  28.3549997
  67.9959992   9.1484990  29.0599997  67.7119992   9.3274990  27.5829997
  67.9860469   9.6430005  28.3472803  60.4029992   9.4084990  29.9479997
  60.4439992   8.7834990  30.6709997  61.1059992  10.0324990  30.1299997
  60.5036223   9.4072318  30.0716164  71.7409992  12.7334990  26.6559997
  71.2999992  12.0134990  27.1069997  71.7279992  13.4544990  27.2859997
  71.6789215  12.7324303  26.8028088  61.3269992  13.8584990  28.4829997
  60.9569992  13.0564990  28.1129997  62.2679992  13.6904990  28.5289997
  61.4035984  13.7259649  28.4385586  57.9369992   7.5184990  23.8749997
  57.4889992   8.3644990  23.8569997  57.3759992   6.9394990  23.3599997
  57.7998546   7.5559004  23.8028874  42.6739992  41.3524990  88.2359997
  42.4549992  41.8824990  87.4699997  42.0059992  41.5784990  88.8839997
  42.5537271  41.4556508  88.2186206  58.6469992   9.6804990  26.0009997
  58.8609992   8.9104990  26.5279997  59.3849992   9.7704990  25.3979997
  58.7760073   9.5873546  25.9915786  68.8519992  17.8374990  26.8679997
  69.4719992  17.1614990  26.5949997  68.6439992  17.6194990  27.7769997
  68.9087679  17.7155032  26.9534518  66.4239992  12.2264990  28.7609997
  66.7279992  11.5404990  28.1659997  67.1459992  12.3454990  29.3789997
  66.5631240  12.1487325  28.7630941  75.0869992   3.8284990  29.6209997
  75.1359992   4.4384990  30.3569997  75.5129992   4.2894990  28.8979997
  75.1512851   3.9743266  29.6240532  69.5649992   6.6204990  29.0879997
  69.7069992   5.6744990  29.1079997  69.4589992   6.8274990  28.1599997
  69.5701051   6.5189706  28.9652249  62.7199992   4.7224990  26.3609997
  62.7629992   5.5824990  25.9419997  62.2619992   4.1694990  25.7269997
  62.6640163   4.7654174  26.2180604  70.4419992   4.8534990  24.7609997
  71.0879992   4.5244990  25.3859997  70.9519992   5.3704990  24.1389997
  70.5994289   4.8784333  24.7623681  59.3399992   7.1194990  27.1229997
  59.9939992   6.5694990  27.5549997  59.3639992   6.8454990  26.2059997
  59.4327199   7.0072178  27.0581650  64.4959992   8.6694990  26.3379997
  65.1119992   8.1424990  26.8469997  63.9099992   8.0294990  25.9339997
  64.5010652   8.5108919  26.3530277  75.4789992   5.3064990  31.8569997
  74.7899992   5.9644990  31.7619997  75.4939992   5.1084990  32.7939997
  75.3867756   5.3697614  31.9705795  50.0429992  50.8524990  81.7799997
  49.7469992  50.5294990  80.9289997  49.9862325  51.6913664  81.6167953
  49.9986285  50.9371508  81.6524339  61.5299992   3.6404990  30.4349997
  61.3109992   4.1704990  29.6679997  60.8619992   3.8664990  31.0819997
  61.4096975   3.7435979  30.4175123  68.8989992  13.1404990  23.9789997
  68.6029992  12.8174990  23.1269997  68.5749992  14.0404990  24.0199997
  68.8147458  13.2179678  23.8680598  64.0989992  11.3154990  30.7219997
  63.3589992  11.9144990  30.8259997  64.8129992  11.8694990  30.4059997
  64.0943146  11.4722611  30.6935150  72.2059992   4.1444990  26.7419997
  71.9909992   3.3784990  27.2749997  72.8619992   4.6164990  27.2549997
  72.2652673   4.1035739  26.8841972  61.1239992   5.5324990  28.3869997
  61.7369992   6.1654990  28.7599997  61.6359992   5.0604990  27.7309997
  61.2771933   5.5553380  28.3493477  62.5059992  13.2804990  31.5089997
  62.5009992  14.1594990  31.1309997  61.6529992  13.1964990  31.9339997
  62.3899199  13.3895901  31.5146942  58.6279992  12.9514990  22.2909997
  58.3559992  13.1804990  21.4019997  58.6729992  13.7884990  22.7519997
  58.5968360  13.0961034  22.2316186  72.2529992  14.5724990  29.0039997
  71.3109992  14.6314990  29.1659997  72.5289992  15.4784990  28.8669997
  72.1615865  14.7030299  29.0076174  72.5529992   2.8594990  30.4209997
  71.8169992   3.4694990  30.3839997  73.2369992   3.2744990  29.8949997
  72.5445367   2.9992562  30.3448156  65.5559992   0.9454990  27.8869997
  65.4389992  -0.0025010  27.8329997  64.7009992   1.2784990  28.1599997
  65.4243691   0.8605842  27.9165072  45.2429992  49.0274990  88.5239997
  44.5029992  49.6264990  88.6269997  45.9569992  49.5814990  88.2079997
  45.2383288  49.1842368  88.4953787  70.5049992  16.3534990  25.6289997
  70.9299992  15.6464990  25.1439997  70.8219992  17.1554990  25.2119997
  70.6060266  16.3650201  25.5062461  71.6639992  14.2544990  24.1379997
  71.4069992  13.5644990  23.5259997  71.7349992  13.8114990  24.9829997
  71.6384322  14.1001568  24.1685372  73.3499992  12.8214990  32.6149997
  73.4899992  12.2294990  31.8759997  73.5179992  13.6944990  32.2589997
  73.3918734  12.8584041  32.4656937  67.8229992   9.7834990  22.3879997
  67.1109992  10.3184990  22.0359997  68.5139992   9.8384990  21.7279997
  67.8189704   9.8641663  22.2505797  67.8769992   8.2404990  19.4259997
  68.5779992   8.2634990  20.0779997  68.1789992   7.6124990  18.7699997
  68.0138202   8.1587223  19.4265591  75.1919992   9.1614990  30.6809997
  74.5399992   9.8554990  30.7699997  75.6569992   9.3714990  29.8709997
  75.1655357   9.2849544  30.5837056  71.2289992   9.9924990  23.3389997
  70.4969992  10.2214990  23.9119997  71.6759992   9.2794990  23.7939997
  71.1892753   9.9273984  23.4789698  62.8739992  10.6234990  25.2219997
  62.5439992  10.2524990  24.4039997  63.4619992   9.9524990  25.5689997
  62.9083182  10.4820648  25.1569898  64.2409992  14.0514990  27.9029997
  64.1459992  13.4724990  27.1469997  64.9699992  13.6804990  28.3989997
  64.3266011  13.9220572  27.8666011  63.2409992   9.3914990  28.8549997
  63.8059992   9.5134990  28.0929997  63.5589992  10.0294990  29.4939997
  63.3613619   9.4944388  28.8370019  53.3499992  41.8564990  84.5439997
  53.1349992  41.0904990  85.0759997  54.0059992  42.3284990  85.0569997
  53.4092451  41.8154472  84.6861699  69.5499992  14.8954990  29.5889997
  69.3089992  15.5574990  30.2369997  69.3519992  14.0604990  30.0139997
  69.4902662  14.8732704  29.7351008  64.1209992  13.7914990  33.5729997
  63.8089992  14.5734990  34.0279997  63.4709992  13.6384990  32.8869997
  63.9904858  13.8777882  33.5425344  70.0999992   9.1554990  21.0249997
  70.6789992   9.3054990  21.7709997  70.5139992   9.6254990  20.3009997
  70.2353358   9.2395966  21.0293935  67.8259992  15.8914990  24.4599997
  68.2999992  16.1874990  25.2369997  67.2629992  16.6304990  24.2269997
  67.8147890  16.0318047  24.5348084  62.3599992  15.8624990  34.3359997
  62.3679992  15.7264990  33.3889997  61.4439992  15.7454990  34.5879997
  62.2372528  15.8280475  34.2403226  73.7979992   0.9054990  20.8369997
  72.8979992   1.0434990  21.1329997  74.0499992   1.7364990  20.4359997
  73.7087727   1.0368705  20.8232935  61.8639992   9.6924990  22.8109997
  61.5719992  10.4604990  22.3199997  61.1899992   9.0334990  22.6479997
  61.7328843   9.7084537  22.7217695  74.9879992  15.2714990  19.2139997
  75.0609992  16.2104990  19.3839997  75.8929992  14.9664990  19.1579997
  75.1204170  15.3588294  19.2297045  57.9569992  12.0554990  31.6259997
  57.4559992  12.0274990  30.8109997  57.9629992  11.1504990  31.9359997
  57.8891690  11.9292234  31.5562770  57.7079992  14.8364990  28.5099997
  58.6539992  14.6914990  28.4909997  57.5949992  15.6204990  29.0469997
  57.8223578  14.9226708  28.5800300  42.2679992  43.2444990  86.1889997
  42.8809992  43.8774990  86.5619997  42.7799992  42.7724990  85.5319997
  42.4211680  43.2674006  86.1512830  66.8839992  15.0764990  33.0689997
  66.9709992  15.9024990  33.5439997  66.0199992  14.7464990  33.3179997
  66.7791944  15.1449871  33.1676558  67.2979992  18.8484990  22.8749997
  67.2229992  18.7274990  21.9279997  67.3309992  19.7974990  22.9929997
  67.2922083  18.9602639  22.7614973  60.9519992  17.6374990  24.6559997
  61.1039992  17.2894990  25.5339997  60.1009992  17.2804990  24.3999997
  60.8578344  17.5415891  24.7416851  70.3999992  18.0024990  19.8769997
  70.7749992  17.2584990  19.4059997  70.4039992  17.7324990  20.7949997
  70.4518969  17.8640920  19.9366475  70.0689992  17.9284990  22.6259997
  69.1339992  18.0284990  22.8049997  70.3489992  17.2184990  23.2049997
  69.9789471  17.8462944  22.7286678  60.2059992  13.3794990  32.6689997
  60.4219992  13.0174990  33.5289997  59.3509992  13.0044990  32.4599997
  60.1199082  13.2793377  32.7582396  62.8249992   1.8494990  28.6649997
  61.9629992   1.7624990  28.2569997  62.8029992   2.7054990  29.0929997
  62.7040557   1.9533078  28.6670202  67.4879992   1.5714990  32.0399997
  67.9079992   1.1564990  32.7929997  66.5549992   1.3924990  32.1569997
  67.4193736   1.4904921  32.1588950  71.5769992  10.1874990  18.6539997
  71.6189992   9.9654990  17.7239997  72.4259992  10.5864990  18.8439997
  71.6975253  10.2110510  18.5523804  67.1499992   4.0634990  19.3249997
  66.8959992   4.0824990  20.2469997  66.8929992   3.1924990  19.0229997
  67.0804508   3.9483292  19.4104786  43.6499992  50.9924990  89.3109997
  43.6449992  51.8714990  88.9329997  42.7969992  50.9084990  89.7359997
  43.5339199  51.1015901  89.3166942  62.9159992   6.8144990  29.7599997
  62.2739992   6.7744990  30.4689997  62.9529992   7.7414990  29.5219997
  62.8331659   6.9342540  29.8248463  62.9129992   7.0354990  24.6719997
  62.0199992   6.6954990  24.6129997  63.3639992   6.6584990  23.9159997
  62.8517185   6.9380220  24.5617698  68.4489992   7.4514990  23.4889997
  68.0399992   8.2664990  23.1969997  69.1689992   7.3114990  22.8749997
  68.4904439   7.5440383  23.3660098  69.4529992   6.8974990  26.3029997
  69.2579992   7.5034990  25.5879997  69.6349992   6.0644990  25.8689997
  69.4509195   6.8677936  26.1464079  60.6659992   7.1354990  31.6269997
  60.6279992   7.5354990  32.4959997  60.1749992   6.3184990  31.7169997
  60.5944374   7.0798228  31.7580980  64.0319992   4.5094990  18.4259997
  63.6009992   4.0644990  19.1549997  63.3139992   4.8804990  17.9129997
  63.8759176   4.4987063  18.4564913  57.2739992   4.2514990  25.4779997
  57.9049992   4.2224990  26.1969997  57.7239992   3.8264990  24.7469997
  57.4211082   4.1901269  25.4776307  58.5479992   4.9974990  20.9019997
  59.0229992   5.5884990  20.3169997  57.8309992   5.5274990  21.2489997
  58.5160406   5.1501011  20.8688495  68.7169992   8.5354990  30.9739997
  69.0409992   7.9044990  30.3309997  68.2769992   8.0014990  31.6349997
  68.7018707   8.3768261  30.9753195  65.4949992   4.4634990  25.7579997
  64.5839992   4.5204990  26.0469997  65.9999992   4.4034990  26.5689997
  65.4386873   4.4631838  25.9071190  39.7719992  50.6634990  80.0929997
  39.4999992  50.8924990  79.2039997  39.8169992  51.5004990  80.5529997
  39.7408709  50.8081069  80.0336089  60.3229992   6.0924990  24.5849997
  59.4339992   6.1914990  24.2449997  60.6189992   5.2504990  24.2389997
  60.2414001   5.9922473  24.4917318  63.9759992   6.0924990  22.2419997
  64.9079992   6.2214990  22.4199997  63.7609992   6.7614990  21.5919997
  64.0744472   6.2005817  22.1784873  69.8999992   3.6984990  29.0219997
  69.2229992   3.8294990  29.6859997  69.4139992   3.5434990  28.2119997
  69.7417265   3.6954665  29.0033380  62.6499992   7.2864990  19.8079997
  62.1079992   6.9074990  19.1169997  63.4839992   7.4814990  19.3799997
  62.6884390   7.2609091  19.6554374  73.1869992  19.3694990  35.2989997
  73.3869992  19.7934990  34.4649997  73.8429992  19.7134990  35.9059997
  73.3029937  19.4739993  35.2668645  66.8149992   7.2504990  27.6449997
  67.3789992   6.7044990  27.0979997  66.6669992   6.7294990  28.4339997
  66.8723037   7.1051798  27.6767212  61.8169992   3.3874990  24.0639997
  61.4989992   2.4844990  24.0279997  62.5979992   3.3894990  23.5109997
  61.8791079   3.2642240  23.9842908  65.4409992   5.6394990  30.0589997
  64.6059992   6.0934990  30.1699997  65.9649992   5.9154990  30.8109997
  65.3976072   5.7388960  30.1758118  65.9849992  11.8524990  21.7439997
  65.2399992  11.3444990  21.4219997  65.8509992  11.9014990  22.6899997
  65.8649334  11.7896144  21.8278892  73.1349992  10.9854990  30.5309997
  73.7769992  11.4414990  29.9869997  72.3049992  11.0984990  30.0679997
  73.1106536  11.0631813  30.3939579  53.3969992  52.2844990  86.8059997
  52.4549992  52.3434990  86.9669997  53.6729992  53.1904990  86.6689997
  53.3055771  52.4150270  86.8094827  69.8829992   4.6664990  19.9429997
  68.9439992   4.7774990  19.7919997  70.1799992   5.5224990  20.2499997
  69.7946136   4.7974977  19.9638568  67.5049992  12.0364990  32.9809997
  67.1589992  11.6544990  33.7879997  67.3049992  12.9694990  33.0519997
  67.4305987  12.1104013  33.1010443  70.6009992   6.5334990  21.6039997
  71.4929992   6.3954990  21.9229997  70.6579992   7.3244990  21.0669997
  70.7307380   6.6214777  21.5750981  61.1099992  11.1474990  27.5139997
  61.8549992  11.1444990  26.9119997  61.1879992  10.3234990  27.9949997
  61.2223366  11.0357395  27.4967412  68.1109992  13.3104990  20.7689997
  67.8159992  14.1374990  21.1509997  67.4079992  12.6914990  20.9659997
  67.9756379  13.3399182  20.8478636  58.1179992   9.6074990  32.8289997
  58.3409992   9.1894990  33.6599997  57.5159992   8.9954990  32.4059997
  58.0671513   9.4674617  32.8856722  65.1349992   9.1244990  35.0419997
  64.8389992   8.9594990  34.1459997  66.0659992   8.9044990  35.0309997
  65.2204401   9.0721891  34.9180189  75.4859992   6.7424990  21.2989997
  74.9319992   6.3464990  20.6259997  75.5869992   7.6534990  21.0209997
  75.4238589   6.8113904  21.1693839  75.4489992  12.5434990  34.1359997
  74.5979992  12.7814990  33.7679997  76.0399992  12.5264990  33.3819997
  75.4123831  12.5737623  33.9838448  73.7809992  15.5284990  21.7639997
  73.4089992  14.7034990  22.0729997  74.0589992  15.3454990  20.8659997
  73.7675807  15.3907031  21.6850063  53.6969992  40.5714990  88.2229997
  52.9609992  41.1814990  88.1849997  54.3809992  40.9864990  87.6969997
  53.6885885  40.7111924  88.1466931  70.9419992  10.3364990  28.7849997
  70.0139992  10.1054990  28.7579997  71.3929992   9.5594990  28.4549997
  70.8758165  10.1997785  28.7366772  63.4849992  14.6654990  24.9179997
  64.0119992  15.4384990  24.7179997  62.6049992  14.8894990  24.6159997
  63.4382121  14.8017344  24.8497460  59.2399992   9.5274990  19.5049997
  59.8559992  10.1544990  19.8849997  58.3779992   9.8434990  19.7769997
  59.2077678   9.6559423  19.5937192  64.9119992  12.3284990  24.4939997
  64.6709992  13.2534990  24.5359997  64.1719992  11.8694990  24.8909997
  64.7789463  12.3930969  24.5534279  65.4269992  16.4774990  30.8089997
  65.7899992  17.3314990  30.5759997  65.9589992  16.1854990  31.5499997
  65.5485141  16.5548907  30.8772079  63.5949992  17.3494990  24.0399997
  62.6459992  17.4554990  24.0909997  63.9469992  18.1704990  24.3839997
  63.5125647  17.4750029  24.0934882  68.9709992  12.5764990  30.5099997
  68.5449992  12.3484990  31.3359997  69.5519992  11.8374990  30.3279997
  68.9912088  12.4454393  30.5984454  71.1739992  13.5054990  19.5839997
  71.5269992  13.1254990  20.3879997  70.2249992  13.4114990  19.6709997
  71.0940956  13.4407867  19.7058005  71.6299992  17.1284990  32.9789997
  71.0279992  16.5724990  32.4839997  71.9109992  17.7954990  32.3529997
  71.5855757  17.1425755  32.8265657  75.6769992  17.9844990  19.7849997
  76.4209992  18.5704990  19.6449997  74.9829992  18.5534990  20.1179997
  75.6849809  18.1415830  19.8108572  46.6999992  38.6574990  85.6889997
  46.5829992  37.7094990  85.6349997  45.8449992  38.9904990  85.9619997
  46.5683691  38.5725842  85.7185072  59.7519992   4.3614990  32.3869997
  58.8589992   4.6994990  32.3189997  59.6529992   3.5054990  32.8049997
  59.6164752   4.2920986  32.4341644  72.0399992  12.1774990  21.8109997
  71.7629992  11.4494990  22.3669997  72.9669992  12.2964990  22.0159997
  72.1274419  12.0939436  21.9148264  59.4029992  16.1654990  30.8219997
  59.6199992  15.2334990  30.7909997  59.6499992  16.4404990  31.7049997
  59.4660948  16.0750976  30.9371268  65.2649992  14.6174990  18.0309997
  65.5039992  13.8684990  17.4839997  64.9959992  14.2294990  18.8639997
  65.2613233  14.4626865  18.0687791  64.2019992  14.1874990  20.4869997
  64.3489992  13.6674990  21.2769997  64.1989992  15.0944990  20.7939997
  64.2217102  14.2388964  20.6365907  60.6549992  11.4394990  20.9979997
  59.9689992  11.7924990  21.5649997  61.1779992  12.2024990  20.7509997
  60.6318402  11.5908912  21.0421783  68.4859992   4.1024990  31.2769997
  69.1849992   4.1764990  31.9269997  68.1059992   3.2374990  31.4309997
  68.5302662   3.9957050  31.3867412  69.2709992   3.7544990  22.3739997
  69.4909992   4.2254990  21.5699997  69.8289992   4.1484990  23.0439997
  69.3766044   3.8722946  22.3545207  66.9399992  15.8844990  21.2369997
  66.1229992  16.3814990  21.2889997  67.4689992  16.3604990  20.5959997
  66.8998125  16.0167000  21.1575289  66.4709992   5.4824990  23.2089997
  67.2829992   5.9864990  23.2549997  66.2259992   5.3374990  24.1229997
  66.5491091   5.5319366  23.3388552  67.0069992   6.4684990  32.3929997
  67.1259992   7.0424990  33.1499997  67.6619992   5.7804990  32.5079997
  67.1118684   6.4540205  32.5121656  67.3549992   2.5634990  24.1469997
  67.0079992   3.1804990  24.7909997  68.0129992   3.0644990  23.6649997
  67.3964430   2.7156860  24.1700046  64.2779992  16.9284990  21.2179997
  64.4389992  17.7284990  20.7179997  64.0809992  17.2354990  22.1029997
  64.2733906  17.0793690  21.2692316  63.0119992   3.6264990  20.8339997
  62.9289992   4.5144990  21.1809997  63.9019992   3.3614990  21.0659997
  63.1209331   3.7121177  20.9128067  73.2109992   4.3754990  33.2279997
  72.2949992   4.6374990  33.1409997  73.5469992   4.3724990  32.3319997
  73.1308499   4.4110174  33.0948748  71.8129992   8.1254990  27.3239997
  71.0159992   7.7104990  26.9959997  72.2579992   7.4354990  27.8149997
  71.7640367   7.9753372  27.3454897  61.2709992  14.0534990  19.8939997
  61.8629992  14.7534990  20.1709997  61.7299992  13.6204990  19.1749997
  61.4141652  14.0907686  19.8346515  59.5869992   6.7184990  19.0099997
  59.5419992   7.6574990  19.1889997  58.6989992   6.4824990  18.7409997
  59.4608166   6.8151698  18.9981507  72.8999992  17.3814990  28.9459997
  72.7439992  18.0604990  28.2889997  73.8319992  17.4534990  29.1489997
  73.0047328  17.4841586  28.8835529  60.3949992   1.4994990  27.6829997
  60.1659992   1.5584990  26.7559997  59.9519992   0.7084990  27.9899997
  60.3037387   1.4006412  27.5975223  59.3249992  15.4404990  23.8439997
  58.4929992  15.9124990  23.8709997  59.8709992  15.9504990  23.2449997
  59.2848710  15.5740317  23.7667570  58.6139992  18.0524990  35.1739997
  59.1539992  17.8364990  35.9339997  58.1319992  17.2474990  34.9839997
  58.6228485  17.9140463  35.2524870  67.3029992  16.4804990  18.1689997
  66.6589992  15.8494990  18.4909997  68.0649992  15.9494990  17.9379997
  67.3178708  16.3223171  18.1818461  71.9069992  16.2974990  18.4029997
  72.1899992  15.5024990  18.8559997  72.6469992  16.5304990  17.8419997
  72.0457295  16.2202349  18.3891469  62.8619992  12.2064990  18.2609997
  62.9259992  11.4124990  18.7909997  63.5149992  12.0884990  17.5709997
  62.9590483  12.0817496  18.2403407  68.2139992  13.2534990  17.9969997
  67.9459992  13.4344990  18.8969997  68.0079992  12.3284990  17.8649997
  68.1493443  13.1531873  18.1026643  70.9109992  11.7484990  32.9439997
  71.6559992  12.3374990  32.8249997  70.1529992  12.3304990  33.0069997
  70.9105289  11.9077067  32.9362292  64.0109992  10.1794990  20.5669997
  63.5519992   9.6954990  21.2519997  64.2659992   9.5104990  19.9309997
  63.9825997  10.0228491  20.5748734  63.2999992   8.0724990  32.9229997
  62.6819992   8.7464990  33.2029997  63.6439992   8.3934990  32.0889997
  63.2618078   8.2082298  32.8486609  65.0819992   8.4224990  18.8289997
  64.9019992   8.2674990  17.9019997  66.0319992   8.5304990  18.8739997
  65.1857804   8.4158821  18.7081966  54.4939992  50.5334990  90.4169997
  54.6339992  49.9414990  89.6779997  54.6619992  51.4064990  90.0609997
  54.5358734  50.5704041  90.2676937  74.4719992  10.7764990  18.2749997
  74.1989992  10.3524990  17.4619997  74.5119992  11.7084990  18.0579997
  74.4400201  10.8443523  18.1343548  63.6399992   5.4274990  34.0049997
  63.7899992   4.6984990  33.4029997  63.6419992   6.2044990  33.4459997
  63.6607967   5.4327720  33.8470523  64.0519992   3.7964990  31.4979997
  64.5879992   4.2484990  30.8459997  63.1999992   3.6884990  31.0749997
  64.0101795   3.8437444  31.3516211  65.6339992   9.2364990  31.7369997
  66.3849992   9.0804990  31.1639997  65.2949992  10.0884990  31.4619997
  65.6909587   9.3303149  31.6214060  64.8579992   1.2534990  31.9289997
  64.7599992   2.1994990  31.8239997  64.1149992   0.8804990  31.4529997
  64.7442123   1.3326811  31.8503204  66.1219992   5.5744990  35.4929997
  65.8859992   5.3554990  36.3939997  65.3389992   5.3674990  34.9829997
  65.9838382   5.5165340  35.5473991  64.9799992  19.1124990  19.8299997
  65.9129992  19.2704990  19.9739997  64.7149992  19.7884990  19.2049997
  65.0719846  19.2254567  19.7652930  58.5479992  13.7494990  19.3129997
  59.4619992  13.8284990  19.5859997  58.5549992  13.0624990  18.6469997
  58.6740624  13.6674074  19.2603045  57.1969992  19.1424990  24.3899997
  56.5499992  18.6804990  23.8579997  57.5519992  18.4704990  24.9729997
  57.1563741  18.9884785  24.3959157  58.0669992  17.2224990  26.1949997
  57.7329992  16.3424990  26.3669997  58.2889992  17.5684990  27.0599997
  58.0512565  17.1487410  26.3354263  56.3359992  46.8734990  88.4829997
  55.6839992  47.5674990  88.5719997  56.8009992  47.0834990  87.6729997
  56.3095357  46.9969544  88.3857056  75.6159992  18.0324990  29.1759997
  75.5939992  18.2174990  30.1139997  76.3059992  18.6004990  28.8349997
  75.7063383  18.1347104  29.2584580  75.1789992  17.5994990  32.0969997
  74.6919992  16.8634990  31.7259997  75.7279992  17.2054990  32.7749997
  75.1866101  17.4456267  32.1379034  74.9309992  11.6454990  22.2499997
  75.7809992  12.0664990  22.3769997  74.9359992  10.9054990  22.8569997
  75.0481143  11.6031106  22.3494732  75.3249992   9.6994990  24.0729997
  74.5989992   9.2194990  24.4709997  75.9059992   9.9044990  24.8049997
  75.3042504   9.6615592  24.2264199  75.0839992  12.4844990  29.0209997
  75.9179992  12.1064990  28.7399997  75.1959992  13.4274990  28.9019997
  75.2131917  12.5602954  28.9664844  73.5699992  15.3624990  31.3279997
  72.9229992  15.6874990  31.9529997  73.0529992  14.9214990  30.6539997
  73.4114112  15.3474133  31.3225272  75.5929992   9.6004990  20.4639997
  75.0719992   9.9564990  19.7459997  75.5599992  10.2754990  21.1429997
  75.5170955   9.7405023  20.4572634  73.9419992   6.8394990  19.0149997
  74.0389992   7.5064990  18.3349997  73.8019992   6.0244990  18.5339997
  73.9363407   6.8205670  18.8568312  73.1119992   8.2204990  24.6359997
  72.9619992   7.2754990  24.6159997  72.7579992   8.5014990  25.4799997
  73.0436351   8.1291656  24.7473202  58.1469992  10.2984990  28.6469997
  58.3309992  10.2164990  27.7109997  58.9959992  10.1744990  29.0699997
  58.2870132  10.2705066  28.5761460  52.3729992  47.7044990  81.1409997
  51.6409992  47.9334990  81.7139997  52.8199992  46.9914990  81.5959997
  52.3332753  47.6393984  81.2809698  73.1899992   4.2474990  18.1329997
  73.7999992   3.8764990  18.7699997  72.3529992   3.8264990  18.3289997
  73.1603704   4.1397942  18.2467077  72.8219992   5.8024990  23.0989997
  73.1019992   4.8954990  23.2229997  73.5809992   6.2364990  22.7099997
  72.9629258   5.7370935  23.0633691  73.4339992   6.3844990  28.5349997
  74.3669992   6.5964990  28.4999997  73.1989992   6.4854990  29.4569997
  73.5299517   6.4271844  28.6549113  73.4629992   7.1214990  31.3109997
  72.6199992   7.3894990  31.6759997  73.9059992   7.9434990  31.0999997
  73.4074035   7.2693351  31.3324770  73.4359992   3.0654990  23.1469997
  73.6179992   2.6164990  23.9719997  72.8359992   2.4814990  22.6829997
  73.3798187   2.9250563  23.1972721  58.9659992   3.8814990  27.6789997
  59.4109992   3.0894990  27.9809997  59.4319992   4.5974990  28.1089997
  59.0899718   3.8699546  27.7785247  57.2699992   6.8804990  28.7479997
  57.7619992   6.6594990  27.9569997  57.6319992   7.7204990  29.0289997
  57.3862923   6.9638480  28.6777389  75.2659992   3.2104990  35.0129997
  74.3489992   3.4814990  34.9769997  75.3889992   2.6754990  34.2289997
  75.1570828   3.1752711  34.9020767  75.3019992   3.1334990  19.6749997
  75.7149992   2.4124990  19.1999997  75.9839992   3.8024990  19.7329997
  75.4506060   3.1253741  19.6179233  57.5829992   3.1384990  22.8019997
  56.6579992   3.3464990  22.6729997  58.0369992   3.6224990  22.1119997
  57.5176298   3.2324311  22.6910433  52.2699992  45.8794990  90.2089997
  52.3499992  46.6424990  90.7809997  51.6689992  46.1584990  89.5179997
  52.1997115  46.0217707  90.1939631  72.3539992  18.1224990  24.7479997
  73.0059992  17.7744990  24.1399997  72.8649992  18.6104990  25.3939997
  72.5122872  18.1408248  24.7520964  57.5469992   1.8764990  31.1459997
  56.8819992   1.6304990  31.7889997  57.1039992   2.4984990  30.5689997
  57.3961168   1.9269225  31.1559830  62.6929992  16.0254990  31.5489997
  62.2679992  16.8354990  31.2669997  63.5969992  16.1114990  31.2469997
  62.7570706  16.1479557  31.4695836  67.0039992  17.4244990  34.5089997
  67.1889992  17.0914990  35.3869997  67.8509992  17.7344990  34.1869997
  67.1437291  17.4208214  34.5856140  69.3489992  18.7104990  33.7529997
  70.0259992  18.0774990  33.5129997  69.6709992  19.1114990  34.5599997
  69.4851618  18.6781147  33.8292802  74.2669992   1.3004990  32.8319997
  73.4539992   1.6254990  32.4449997  74.4999992   0.5394990  32.2989997
  74.1871347   1.2421891  32.7069824  60.0949992  19.2824990  31.5969997
  59.3739992  19.7224990  31.1459997  59.7289992  19.0314990  32.4449997
  59.9469632  19.3087235  31.6499649  62.5619992  18.8824990  30.6259997
  61.6969992  18.9544990  31.0299997  62.5069992  19.4294990  29.8429997
  62.4362290  18.9663242  30.5753749  67.2729992  18.7704990  29.8019997
  66.8159992  19.2994990  29.1479997  67.4349992  19.3734990  30.5269997
  67.2323919  18.9243990  29.8105740  69.5999992  17.6484990  30.7469997
  68.6959992  17.8134990  30.4809997  70.0289992  18.5014990  30.6809997
  69.5342017  17.7864184  30.7016495  44.0179992  48.3354990  83.0239997
  43.6879992  47.9644990  82.2049997  44.6059992  47.6644990  83.3699997
  44.0524056  48.1941257  82.9589035  72.2039992  19.2184990  31.0419997
  72.0229992  20.1344990  30.8309997  72.3809992  18.8074990  30.1949997
  72.2031377  19.2883365  30.8987178  59.5099992  17.9054990  28.5069997
  59.4909992  17.4794990  29.3639997  60.3139992  17.5864990  28.0979997
  59.6161393  17.8040297  28.5690155  61.6509992  16.6154990  27.1619997
  61.4319992  15.6984990  27.3319997  62.4749992  16.7554990  27.6279997
  61.7324702  16.5090523  27.2482510  64.1879992  17.0854990  28.0109997
  64.4009992  16.1974990  27.7239997  64.2529992  17.0504990  28.9649997
  64.2259149  16.9593338  28.1007351  67.6969992   2.7494990  27.1549997
  67.0219992   2.1194990  27.4109997  68.2609992   2.2654990  26.5519997
  67.6809363   2.5978886  27.1084810  72.8389992   0.8564990  27.2679997
  73.4429992   1.4044990  26.7659997  71.9699992   1.1754990  27.0269997
  72.8040419   0.9745628  27.1667741  74.5659992   1.9954990  25.6009997
  75.1779992   1.4814990  25.0739997  74.9489992   2.8724990  25.6239997
  74.7013867   2.0437613  25.5320888  60.0229992   1.3834990  24.9769997
  59.2459992   1.1484990  24.4699997  60.5539992   0.5864990  24.9859997
  59.9883735   1.2436462  24.9088090  58.8599992   1.1814990  20.7809997
  59.2989992   1.7924990  20.1889997  58.2259992   1.7194990  21.2549997
  58.8343859   1.3379076  20.7640287  64.6029992   1.3094990  24.7899997
  65.4769992   1.6984990  24.7609997  64.4669992   1.0944990  25.7129997
  64.7041953   1.3336654  24.9107599  45.3849992  51.7634990  85.7049997
  45.2899992  51.1844990  84.9479997  46.1139992  51.3924990  86.2009997
  45.4706161  51.6340902  85.6685192  70.1589992   1.3394990  26.4399997
  70.2359992   1.4354990  25.4899997  69.8839992   0.4324990  26.5679997
  70.1323233   1.2299093  26.3273665  71.5129992   1.3654990  22.1319997
  70.8099992   1.9804990  21.9219997  71.0679992   0.5284990  22.2629997
  71.3566550   1.3364679  22.1209819  58.7609992  17.1294990  21.6779997
  58.0759992  17.0914990  21.0109997  58.7639992  18.0414990  21.9659997
  58.6676806  17.2476669  21.6256961  60.7209992   3.0974990  19.2229997
  61.2119992   2.4674990  18.6959997  61.3439992   3.3934990  19.8859997
  60.8725304   3.0512387  19.2404922  65.7469992   3.3904990  21.6799997
  65.9249992   2.7434990  22.3629997  65.6929992   4.2244990  22.1469997
  65.7640678   3.4146615  21.8366283  67.6249992  18.3384990  20.0759997
  68.4909992  18.7054990  19.8979997  67.3779992  17.8994990  19.2619997
  67.7101853  18.3294021  19.9415813  74.3339992  17.9014990  22.7549997
  74.1399992  17.1534990  22.1899997  74.2949992  18.6594990  22.1719997
  74.3021645  17.9015797  22.5988131  60.5789992  18.0494990  18.7029997
  60.3109992  18.3354990  19.5769997  61.3499992  17.5034990  18.8559997
  60.6465926  18.0147790  18.8431188  87.9579992  10.5394990  24.9359997
  88.0469992  11.4834990  24.8029997  87.3189992  10.2644990  24.2779997
  87.8838378  10.6313846  24.8289258  86.8909992   9.7944990  28.3549997
  86.8519992   9.1484990  29.0599997  86.5679992   9.3274990  27.5829997
  86.8420469   9.6430005  28.3472803  44.3849992  47.1034990  86.6569997
  44.9499992  47.2254990  85.8939997  44.7029992  47.7414990  87.2959997
  44.5053430  47.2064448  86.6389094  79.2589992   9.4084990  29.9479997
  79.2999992   8.7834990  30.6709997  79.9619992  10.0324990  30.1299997
  79.3596223   9.4072318  30.0716164  90.5969992  12.7334990  26.6559997
  90.1559992  12.0134990  27.1069997  90.5839992  13.4544990  27.2859997
  90.5349215  12.7324303  26.8028088  80.1829992  13.8584990  28.4829997
  79.8129992  13.0564990  28.1129997  81.1239992  13.6904990  28.5289997
  80.2595984  13.7259649  28.4385586  76.7929992   7.5184990  23.8749997
  76.3449992   8.3644990  23.8569997  76.2319992   6.9394990  23.3599997
  76.6558546   7.5559004  23.8028874  77.5029992   9.6804990  26.0009997
  77.7169992   8.9104990  26.5279997  78.2409992   9.7704990  25.3979997
  77.6320073   9.5873546  25.9915786  87.7079992  17.8374990  26.8679997
  88.3279992  17.1614990  26.5949997  87.4999992  17.6194990  27.7769997
  87.7647679  17.7155032  26.9534518  85.2799992  12.2264990  28.7609997
  85.5839992  11.5404990  28.1659997  86.0019992  12.3454990  29.3789997
  85.4191240  12.1487325  28.7630941  93.9429992   3.8284990  29.6209997
  93.9919992   4.4384990  30.3569997  94.3689992   4.2894990  28.8979997
  94.0072851   3.9743266  29.6240532  88.4209992   6.6204990  29.0879997
  88.5629992   5.6744990  29.1079997  88.3149992   6.8274990  28.1599997
  88.4261051   6.5189706  28.9652249  81.5759992   4.7224990  26.3609997
  81.6189992   5.5824990  25.9419997  81.1179992   4.1694990  25.7269997
  81.5200163   4.7654174  26.2180604  50.6939992  52.6074990  87.3909997
  50.4529992  53.2694990  88.0389997  50.4959992  51.7724990  87.8159997
  50.6342662  52.5852704  87.5371008  89.2979992   4.8534990  24.7609997
  89.9439992   4.5244990  25.3859997  89.8079992   5.3704990  24.1389997
  89.4554289   4.8784333  24.7623681  78.1959992   7.1194990  27.1229997
  78.8499992   6.5694990  27.5549997  78.2199992   6.8454990  26.2059997
  78.2887199   7.0072178  27.0581650  83.3519992   8.6694990  26.3379997
  83.9679992   8.1424990  26.8469997  82.7659992   8.0294990  25.9339997
  83.3570652   8.5108919  26.3530277  94.3349992   5.3064990  31.8569997
  93.6459992   5.9644990  31.7619997  94.3499992   5.1084990  32.7939997
  94.2427756   5.3697614  31.9705795  80.3859992   3.6404990  30.4349997
  80.1669992   4.1704990  29.6679997  79.7179992   3.8664990  31.0819997
  80.2656975   3.7435979  30.4175123  87.7549992  13.1404990  23.9789997
  87.4589992  12.8174990  23.1269997  87.4309992  14.0404990  24.0199997
  87.6707458  13.2179678  23.8680598  82.9549992  11.3154990  30.7219997
  82.2149992  11.9144990  30.8259997  83.6689992  11.8694990  30.4059997
  82.9503146  11.4722611  30.6935150  91.0619992   4.1444990  26.7419997
  90.8469992   3.3784990  27.2749997  91.7179992   4.6164990  27.2549997
  91.1212673   4.1035739  26.8841972  79.9799992   5.5324990  28.3869997
  80.5929992   6.1654990  28.7599997  80.4919992   5.0604990  27.7309997
  80.1331933   5.5553380  28.3493477  81.3619992  13.2804990  31.5089997
  81.3569992  14.1594990  31.1309997  80.5089992  13.1964990  31.9339997
  81.2459199  13.3895901  31.5146942  45.2649992  51.5034990  91.3739997
  44.9529992  52.2854990  91.8299997  44.6149992  51.3504990  90.6879997
  45.1344643  51.5898019  91.3436657  77.4839992  12.9514990  22.2909997
  77.2119992  13.1804990  21.4019997  77.5289992  13.7884990  22.7519997
  77.4528360  13.0961034  22.2316186  91.1089992  14.5724990  29.0039997
  90.1669992  14.6314990  29.1659997  91.3849992  15.4784990  28.8669997
  91.0175865  14.7030299  29.0076174  91.4089992   2.8594990  30.4209997
  90.6729992   3.4694990  30.3839997  92.0929992   3.2744990  29.8949997
  91.4005367   2.9992562  30.3448156  84.4119992   0.9454990  27.8869997
  84.2949992  -0.0025010  27.8329997  83.5569992   1.2784990  28.1599997
  84.2803691   0.8605842  27.9165072  89.3609992  16.3534990  25.6289997
  89.7859992  15.6464990  25.1439997  89.6779992  17.1554990  25.2119997
  89.4620266  16.3650201  25.5062461  90.5199992  14.2544990  24.1379997
  90.2629992  13.5644990  23.5259997  90.5909992  13.8114990  24.9829997
  90.4944322  14.1001568  24.1685372  92.2059992  12.8214990  32.6149997
  92.3459992  12.2294990  31.8759997  92.3739992  13.6944990  32.2589997
  92.2478734  12.8584041  32.4656937  86.6789992   9.7834990  22.3879997
  85.9669992  10.3184990  22.0359997  87.3699992   9.8384990  21.7279997
  86.6749704   9.8641663  22.2505797  86.7329992   8.2404990  19.4259997
  87.4339992   8.2634990  20.0779997  87.0349992   7.6124990  18.7699997
  86.8698202   8.1587223  19.4265591  94.0479992   9.1614990  30.6809997
  93.3959992   9.8554990  30.7699997  94.5129992   9.3714990  29.8709997
  94.0215357   9.2849544  30.5837056  42.1849992  47.7014990  90.6029997
  42.2549992  48.3524990  91.3009997  41.2939992  47.8044990  90.2679997
  42.0741802  47.8044769  90.6532231  90.0849992   9.9924990  23.3389997
  89.3529992  10.2214990  23.9119997  90.5319992   9.2794990  23.7939997
  90.0452753   9.9273984  23.4789698  89.9819992   8.1674990  32.4069997
  90.0619992   8.9304990  32.9789997  89.3809992   8.4464990  31.7169997
  89.9116547   8.3097468  32.3920029  81.7299992  10.6234990  25.2219997
  81.3999992  10.2524990  24.4039997  82.3179992   9.9524990  25.5689997
  81.7643182  10.4820648  25.1569898  83.0969992  14.0514990  27.9029997
  83.0019992  13.4724990  27.1469997  83.8259992  13.6804990  28.3989997
  83.1826011  13.9220572  27.8666011  82.0969992   9.3914990  28.8549997
  82.6619992   9.5134990  28.0929997  82.4149992  10.0294990  29.4939997
  82.2173619   9.4944388  28.8370019  88.4059992  14.8954990  29.5889997
  88.1649992  15.5574990  30.2369997  88.2079992  14.0604990  30.0139997
  88.3462662  14.8732704  29.7351008  82.9769992  13.7914990  33.5729997
  82.6649992  14.5734990  34.0279997  82.3269992  13.6384990  32.8869997
  82.8464858  13.8777882  33.5425344  88.9559992   9.1554990  21.0249997
  89.5349992   9.3054990  21.7709997  89.3699992   9.6254990  20.3009997
  89.0913358   9.2395966  21.0293935  79.8969992   9.9894990  32.8009997
  79.9669992  10.6404990  33.4999997  79.0059992  10.0924990  32.4659997
  79.7861690  10.0924261  32.8513026  86.6819992  15.8914990  24.4599997
  87.1559992  16.1874990  25.2369997  86.1189992  16.6304990  24.2269997
  86.6707890  16.0318047  24.5348084  49.0926070  54.8820188  82.0279997
  49.7782145  54.3424990  82.0279997  48.4069992  54.3424990  82.0279997
  49.0926070  54.7226209  82.0279997  92.6539992   0.9054990  20.8369997
  91.7539992   1.0434990  21.1329997  92.9059992   1.7364990  20.4359997
  92.5647727   1.0368705  20.8232935  80.7199992   9.6924990  22.8109997
  80.4279992  10.4604990  22.3199997  80.0459992   9.0334990  22.6479997
  80.5888843   9.7084537  22.7217695  93.8439992  15.2714990  19.2139997
  93.9169992  16.2104990  19.3839997  94.7489992  14.9664990  19.1579997
  93.9764170  15.3588294  19.2297045  76.8129992  12.0554990  31.6259997
  76.3119992  12.0274990  30.8109997  76.8189992  11.1504990  31.9359997
  76.7451690  11.9292234  31.5562770  76.5639992  14.8364990  28.5099997
  77.5099992  14.6914990  28.4909997  76.4509992  15.6204990  29.0469997
  76.6783578  14.9226708  28.5800300  86.1539992  18.8484990  22.8749997
  86.0789992  18.7274990  21.9279997  86.1869992  19.7974990  22.9929997
  86.1482083  18.9602639  22.7614973  79.8079992  17.6374990  24.6559997
  79.9599992  17.2894990  25.5339997  78.9569992  17.2804990  24.3999997
  79.7138344  17.5415891  24.7416851  89.2559992  18.0024990  19.8769997
  89.6309992  17.2584990  19.4059997  89.2599992  17.7324990  20.7949997
  89.3078969  17.8640920  19.9366475  88.9249992  17.9284990  22.6259997
  87.9899992  18.0284990  22.8049997  89.2049992  17.2184990  23.2049997
  88.8349471  17.8462944  22.7286678  79.0619992  13.3794990  32.6689997
  79.2779992  13.0174990  33.5289997  78.2069992  13.0044990  32.4599997
  78.9759082  13.2793377  32.7582396  43.5039992  53.5744990  92.1379997
  43.5119992  53.4384990  91.1899997  42.5879992  53.4574990  92.3899997
  43.3812512  53.5400663  92.0423179  81.6809992   1.8494990  28.6649997
  80.8189992   1.7624990  28.2569997  81.6589992   2.7054990  29.0929997
  81.5600557   1.9533078  28.6670202  86.3439992   1.5714990  32.0399997
  86.7639992   1.1564990  32.7929997  85.4109992   1.3924990  32.1569997
  86.2753736   1.4904921  32.1588950  89.6699992   5.3264990  32.8929997
  89.1559992   5.2014990  33.6909997  89.5149992   6.2394990  32.6489997
  89.5787802   5.4327433  32.9691504  90.4329992  10.1874990  18.6539997
  90.4749992   9.9654990  17.7239997  91.2819992  10.5864990  18.8439997
  90.5535253  10.2110510  18.5523804  86.0059992   4.0634990  19.3249997
  85.7519992   4.0824990  20.2469997  85.7489992   3.1924990  19.0229997
  85.9364508   3.9483292  19.4104786  81.7719992   6.8144990  29.7599997
  81.1299992   6.7744990  30.4689997  81.8089992   7.7414990  29.5219997
  81.6891659   6.9342540  29.8248463  81.7689992   7.0354990  24.6719997
  80.8759992   6.6954990  24.6129997  82.2199992   6.6584990  23.9159997
  81.7077185   6.9380220  24.5617698  87.3049992   7.4514990  23.4889997
  86.8959992   8.2664990  23.1969997  88.0249992   7.3114990  22.8749997
  87.3464439   7.5440383  23.3660098  86.4069992   7.6274990  34.9769997
  85.8439992   6.9224990  35.2979997  87.2329992   7.5064990  35.4449997
  86.4416674   7.5147176  35.0841734  88.3089992   6.8974990  26.3029997
  88.1139992   7.5034990  25.5879997  88.4909992   6.0644990  25.8689997
  88.3069195   6.8677936  26.1464079  54.9419992  38.6174990  78.6389997
  54.0419992  38.7554990  78.9339997  55.1939992  39.4484990  78.2369997
  54.8527355  38.7488200  78.6250539  79.5219992   7.1354990  31.6269997
  79.4839992   7.5354990  32.4959997  79.0309992   6.3184990  31.7169997
  79.4504374   7.0798228  31.7580980  82.8879992   4.5094990  18.4259997
  82.4569992   4.0644990  19.1549997  82.1699992   4.8804990  17.9129997
  82.7319176   4.4987063  18.4564913  76.1299992   4.2514990  25.4779997
  76.7609992   4.2224990  26.1969997  76.5799992   3.8264990  24.7469997
  76.2771082   4.1901269  25.4776307  77.4039992   4.9974990  20.9019997
  77.8789992   5.5884990  20.3169997  76.6869992   5.5274990  21.2489997
  77.3720406   5.1501011  20.8688495  87.5729992   8.5354990  30.9739997
  87.8969992   7.9044990  30.3309997  87.1329992   8.0014990  31.6349997
  87.5578707   8.3768261  30.9753195  84.3509992   4.4634990  25.7579997
  83.4399992   4.5204990  26.0469997  84.8559992   4.4034990  26.5689997
  84.2946873   4.4631838  25.9071190  79.1789992   6.0924990  24.5849997
  78.2899992   6.1914990  24.2449997  79.4749992   5.2504990  24.2389997
  79.0974001   5.9922473  24.4917318  82.8319992   6.0924990  22.2419997
  83.7639992   6.2214990  22.4199997  82.6169992   6.7614990  21.5919997
  82.9304472   6.2005817  22.1784873  88.7559992   3.6984990  29.0219997
  88.0789992   3.8294990  29.6859997  88.2699992   3.5434990  28.2119997
  88.5977265   3.6954665  29.0033380  81.5059992   7.2864990  19.8079997
  80.9639992   6.9074990  19.1169997  82.3399992   7.4814990  19.3799997
  81.5444390   7.2609091  19.6554374  43.0079992  47.4044990  80.6129997
  42.7159992  48.1724990  80.1219997  42.3339992  46.7454990  80.4499997
  42.8768843  47.4204537  80.5237695  92.0429992  19.3694990  35.2989997
  92.2429992  19.7934990  34.4649997  92.6989992  19.7134990  35.9059997
  92.1589937  19.4739993  35.2668645  85.6709992   7.2504990  27.6449997
  86.2349992   6.7044990  27.0979997  85.5229992   6.7294990  28.4339997
  85.7283037   7.1051798  27.6767212  80.6729992   3.3874990  24.0639997
  80.3549992   2.4844990  24.0279997  81.4539992   3.3894990  23.5109997
  80.7351079   3.2642240  23.9842908  84.2969992   5.6394990  30.0589997
  83.4619992   6.0934990  30.1699997  84.8209992   5.9154990  30.8109997
  84.2536072   5.7388960  30.1758118  84.8409992  11.8524990  21.7439997
  84.0959992  11.3444990  21.4219997  84.7069992  11.9014990  22.6899997
  84.7209334  11.7896144  21.8278892  91.9909992  10.9854990  30.5309997
  92.6329992  11.4414990  29.9869997  91.1609992  11.0984990  30.0679997
  91.9666536  11.0631813  30.3939579  88.7389992   4.6664990  19.9429997
  87.7999992   4.7774990  19.7919997  89.0359992   5.5224990  20.2499997
  88.6506136   4.7974977  19.9638568  89.4569992   6.5334990  21.6039997
  90.3489992   6.3954990  21.9229997  89.5139992   7.3244990  21.0669997
  89.5867380   6.6214777  21.5750981  79.9659992  11.1474990  27.5139997
  80.7109992  11.1444990  26.9119997  80.0439992  10.3234990  27.9949997
  80.0783366  11.0357395  27.4967412  86.9669992  13.3104990  20.7689997
  86.6719992  14.1374990  21.1509997  86.2639992  12.6914990  20.9659997
  86.8316379  13.3399182  20.8478636  39.1009992  49.7674990  89.4279997
  38.5999992  49.7394990  88.6129997  39.1069992  48.8624990  89.7379997
  39.0331690  49.6412234  89.3582770  83.9909992   9.1244990  35.0419997
  83.6949992   8.9594990  34.1459997  84.9219992   8.9044990  35.0309997
  84.0764401   9.0721891  34.9180189  88.6109992  14.4984990  32.9309997
  87.7099992  14.6814990  32.6639997  88.6449992  14.7574990  33.8519997
  88.4923861  14.5585245  33.0189517  94.3419992   6.7424990  21.2989997
  93.7879992   6.3464990  20.6259997  94.4429992   7.6534990  21.0209997
  94.2798589   6.8113904  21.1693839  94.3049992  12.5434990  34.1359997
  93.4539992  12.7814990  33.7679997  94.8959992  12.5264990  33.3819997
  94.2683831  12.5737623  33.9838448  92.6369992  15.5284990  21.7639997
  92.2649992  14.7034990  22.0729997  92.9149992  15.3454990  20.8659997
  92.6235807  15.3907031  21.6850063  89.7979992  10.3364990  28.7849997
  88.8699992  10.1054990  28.7579997  90.2489992   9.5594990  28.4549997
  89.7318165  10.1997785  28.7366772  82.3409992  14.6654990  24.9179997
  82.8679992  15.4384990  24.7179997  81.4609992  14.8894990  24.6159997
  82.2942121  14.8017344  24.8497460  78.0959992   9.5274990  19.5049997
  78.7119992  10.1544990  19.8849997  77.2339992   9.8434990  19.7769997
  78.0637678   9.6559423  19.5937192  83.7679992  12.3284990  24.4939997
  83.5269992  13.2534990  24.5359997  83.0279992  11.8694990  24.8909997
  83.6349463  12.3930969  24.5534279  84.2829992  16.4774990  30.8089997
  84.6459992  17.3314990  30.5759997  84.8149992  16.1854990  31.5499997
  84.4045141  16.5548907  30.8772079  38.8519992  52.5484990  86.3119997
  39.7979992  52.4034990  86.2929997  38.7389992  53.3324990  86.8489997
  38.9663578  52.6346708  86.3820300  82.4509992  17.3494990  24.0399997
  81.5019992  17.4554990  24.0909997  82.8029992  18.1704990  24.3839997
  82.3685647  17.4750029  24.0934882  87.8269992  12.5764990  30.5099997
  87.4009992  12.3484990  31.3359997  88.4079992  11.8374990  30.3279997
  87.8472088  12.4454393  30.5984454  90.0299992  13.5054990  19.5839997
  90.3829992  13.1254990  20.3879997  89.0809992  13.4114990  19.6709997
  89.9500956  13.4407867  19.7058005  90.4859992  17.1284990  32.9789997
  89.8839992  16.5724990  32.4839997  90.7669992  17.7954990  32.3529997
  90.4415757  17.1425755  32.8265657  94.5329992  17.9844990  19.7849997
  95.2769992  18.5704990  19.6449997  93.8389992  18.5534990  20.1179997
  94.5409809  18.1415830  19.8108572  78.6079992   4.3614990  32.3869997
  77.7149992   4.6994990  32.3189997  78.5089992   3.5054990  32.8049997
  78.4724752   4.2920986  32.4341644  90.8959992  12.1774990  21.8109997
  90.6189992  11.4494990  22.3669997  91.8229992  12.2964990  22.0159997
  90.9834419  12.0939436  21.9148264  78.2589992  16.1654990  30.8219997
  78.4759992  15.2334990  30.7909997  78.5059992  16.4404990  31.7049997
  78.3220948  16.0750976  30.9371268  84.1209992  14.6174990  18.0309997
  84.3599992  13.8684990  17.4839997  83.8519992  14.2294990  18.8639997
  84.1173233  14.4626865  18.0687791  83.0579992  14.1874990  20.4869997
  83.2049992  13.6674990  21.2769997  83.0549992  15.0944990  20.7939997
  83.0777102  14.2388964  20.6365907  57.0489992  53.2144990  91.9939997
  56.9999992  52.2584990  91.9569997  56.2229992  53.4814990  92.3959997
  56.9305767  53.1198841  92.0433133  79.5109992  11.4394990  20.9979997
  78.8249992  11.7924990  21.5649997  80.0339992  12.2024990  20.7509997
  79.4878402  11.5908912  21.0421783  87.3419992   4.1024990  31.2769997
  88.0409992   4.1764990  31.9269997  86.9619992   3.2374990  31.4309997
  87.3862662   3.9957050  31.3867412  88.1269992   3.7544990  22.3739997
  88.3469992   4.2254990  21.5699997  88.6849992   4.1484990  23.0439997
  88.2326044   3.8722946  22.3545207  85.7959992  15.8844990  21.2369997
  84.9789992  16.3814990  21.2889997  86.3249992  16.3604990  20.5959997
  85.7558125  16.0167000  21.1575289  85.3269992   5.4824990  23.2089997
  86.1389992   5.9864990  23.2549997  85.0819992   5.3374990  24.1229997
  85.4051091   5.5319366  23.3388552  85.8629992   6.4684990  32.3929997
  85.9819992   7.0424990  33.1499997  86.5179992   5.7804990  32.5079997
  85.9678684   6.4540205  32.5121656  86.2109992   2.5634990  24.1469997
  85.8639992   3.1804990  24.7909997  86.8689992   3.0644990  23.6649997
  86.2524430   2.7156860  24.1700046  83.1339992  16.9284990  21.2179997
  83.2949992  17.7284990  20.7179997  82.9369992  17.2354990  22.1029997
  83.1293906  17.0793690  21.2692316  81.8679992   3.6264990  20.8339997
  81.7849992   4.5144990  21.1809997  82.7579992   3.3614990  21.0659997
  81.9769331   3.7121177  20.9128067  90.6689992   8.1254990  27.3239997
  89.8719992   7.7104990  26.9959997  91.1139992   7.4354990  27.8149997
  90.6200367   7.9753372  27.3454897  48.0279992  52.7884990  90.8699997
  48.1149992  53.6144990  91.3449997  47.1639992  52.4584990  91.1189997
  47.9231944  52.8569871  90.9686558  80.1269992  14.0534990  19.8939997
  80.7189992  14.7534990  20.1709997  80.5859992  13.6204990  19.1749997
  80.2701652  14.0907686  19.8346515  78.4429992   6.7184990  19.0099997
  78.3979992   7.6574990  19.1889997  77.5549992   6.4824990  18.7409997
  78.3168166   6.8151698  18.9981507  91.7559992  17.3814990  28.9459997
  91.5999992  18.0604990  28.2889997  92.6879992  17.4534990  29.1489997
  91.8607328  17.4841586  28.8835529  79.2509992   1.4994990  27.6829997
  79.0219992   1.5584990  26.7559997  78.8079992   0.7084990  27.9899997
  79.1597387   1.4006412  27.5975223  78.1809992  15.4404990  23.8439997
  77.3489992  15.9124990  23.8709997  78.7269992  15.9504990  23.2449997
  78.1408710  15.5740317  23.7667570  86.1589992  16.4804990  18.1689997
  85.5149992  15.8494990  18.4909997  86.9209992  15.9494990  17.9379997
  86.1738708  16.3223171  18.1818461  90.7629992  16.2974990  18.4029997
  91.0459992  15.5024990  18.8559997  91.5029992  16.5304990  17.8419997
  90.9017295  16.2202349  18.3891469  81.7179992  12.2064990  18.2609997
  81.7819992  11.4124990  18.7909997  82.3709992  12.0884990  17.5709997
  81.8150483  12.0817496  18.2403407  87.0699992  13.2534990  17.9969997
  86.8019992  13.4344990  18.8969997  86.8639992  12.3284990  17.8649997
  87.0053443  13.1531873  18.1026643  89.7669992  11.7484990  32.9439997
  90.5119992  12.3374990  32.8249997  89.0089992  12.3304990  33.0069997
  89.7665289  11.9077067  32.9362292  82.8669992  10.1794990  20.5669997
  82.4079992   9.6954990  21.2519997  83.1219992   9.5104990  19.9309997
  82.8385997  10.0228491  20.5748734  82.1559992   8.0724990  32.9229997
  81.5379992   8.7464990  33.2029997  82.4999992   8.3934990  32.0889997
  82.1178078   8.2082298  32.8486609  83.9379992   8.4224990  18.8289997
  83.7579992   8.2674990  17.9019997  84.8879992   8.5304990  18.8739997
  84.0417804   8.4158821  18.7081966  93.3279992  10.7764990  18.2749997
  93.0549992  10.3524990  17.4619997  93.3679992  11.7084990  18.0579997
  93.2960201  10.8443523  18.1343548  84.4899992   9.2364990  31.7369997
  85.2409992   9.0804990  31.1639997  84.1509992  10.0884990  31.4619997
  84.5469587   9.3303149  31.6214060  90.2219992   9.8404990  34.8429997
  89.9409992  10.5494990  34.2649997  91.1649992   9.7674990  34.6919997
  90.3109272   9.9276704  34.7434976  83.7139992   1.2534990  31.9289997
  83.6159992   2.1994990  31.8239997  82.9709992   0.8804990  31.4529997
  83.6002123   1.3326811  31.8503204  79.1549992   4.5454990  35.6209997
  79.3659992   3.8394990  35.0109997  79.0429992   4.1084990  36.4649997
  79.1687668   4.3896619  35.6515445  83.8359992  19.1124990  19.8299997
  84.7689992  19.2704990  19.9739997  83.5709992  19.7884990  19.2049997
  83.9279846  19.2254567  19.7652930  77.4039992  13.7494990  19.3129997
  78.3179992  13.8284990  19.5859997  77.4109992  13.0624990  18.6469997
  77.5300624  13.6674074  19.2603045  42.0959992  55.3494990  82.4569997
  42.2479992  55.0014990  83.3359997  41.2449992  54.9924990  82.2019997
  42.0017899  55.2536749  82.5427322  76.0529992  19.1424990  24.3899997
  75.4059992  18.6804990  23.8579997  76.4079992  18.4704990  24.9729997
  76.0123741  18.9884785  24.3959157  76.9229992  17.2224990  26.1949997
  76.5889992  16.3424990  26.3669997  77.1449992  17.5684990  27.0599997
  76.9072565  17.1487410  26.3354263  94.4719992  18.0324990  29.1759997
  94.4499992  18.2174990  30.1139997  95.1619992  18.6004990  28.8349997
  94.5623383  18.1347104  29.2584580  94.0349992  17.5994990  32.0969997
  93.5479992  16.8634990  31.7259997  94.5839992  17.2054990  32.7749997
  94.0426101  17.4456267  32.1379034  93.7869992  11.6454990  22.2499997
  94.6369992  12.0664990  22.3769997  93.7919992  10.9054990  22.8569997
  93.9041143  11.6031106  22.3494732  94.1809992   9.6994990  24.0729997
  93.4549992   9.2194990  24.4709997  94.7619992   9.9044990  24.8049997
  94.1602504   9.6615592  24.2264199  93.9399992  12.4844990  29.0209997
  94.7739992  12.1064990  28.7399997  94.0519992  13.4274990  28.9019997
  94.0691917  12.5602954  28.9664844  92.4259992  15.3624990  31.3279997
  91.7789992  15.6874990  31.9529997  91.9089992  14.9214990  30.6539997
  92.2674112  15.3474133  31.3225272  94.4489992   9.6004990  20.4639997
  93.9279992   9.9564990  19.7459997  94.4159992  10.2754990  21.1429997
  94.3730955   9.7405023  20.4572634  92.7979992   6.8394990  19.0149997
  92.8949992   7.5064990  18.3349997  92.6579992   6.0244990  18.5339997
  92.7923407   6.8205670  18.8568312  91.9679992   8.2204990  24.6359997
  91.8179992   7.2754990  24.6159997  91.6139992   8.5014990  25.4799997
  91.8996351   8.1291656  24.7473202  77.0029992  10.2984990  28.6469997
  77.1869992  10.2164990  27.7109997  77.8519992  10.1744990  29.0699997
  77.1430132  10.2705066  28.5761460  92.8239992  10.1904990  34.2749997
  93.4069992   9.4554990  34.4669997  93.3879992  10.9624990  34.3219997
  92.9799781  10.1943156  34.3076146  92.0459992   4.2474990  18.1329997
  92.6559992   3.8764990  18.7699997  91.2089992   3.8264990  18.3289997
  92.0163704   4.1397942  18.2467077  91.6779992   5.8024990  23.0989997
  91.9579992   4.8954990  23.2229997  92.4369992   6.2364990  22.7099997
  91.8189258   5.7370935  23.0633691  92.2899992   6.3844990  28.5349997
  93.2229992   6.5964990  28.4999997  92.0549992   6.4854990  29.4569997
  92.3859517   6.4271844  28.6549113  92.3189992   7.1214990  31.3109997
  91.4759992   7.3894990  31.6759997  92.7619992   7.9434990  31.0999997
  92.2634035   7.2693351  31.3324770  92.2919992   3.0654990  23.1469997
  92.4739992   2.6164990  23.9719997  91.6919992   2.4814990  22.6829997
  92.2358187   2.9250563  23.1972721  77.8219992   3.8814990  27.6789997
  78.2669992   3.0894990  27.9809997  78.2879992   4.5974990  28.1089997
  77.9459718   3.8699546  27.7785247  76.1259992   6.8804990  28.7479997
  76.6179992   6.6594990  27.9569997  76.4879992   7.7204990  29.0289997
  76.2422923   6.9638480  28.6777389  54.2009992  44.7074990  92.4739997
  53.7939992  45.1874990  91.7539997  54.2419992  43.8014990  92.1669997
  54.1507178  44.6508609  92.3337441  94.1219992   3.2104990  35.0129997
  93.2049992   3.4814990  34.9769997  94.2449992   2.6754990  34.2289997
  94.0130828   3.1752711  34.9020767  94.1579992   3.1334990  19.6749997
  94.5709992   2.4124990  19.1999997  94.8399992   3.8024990  19.7329997
  94.3066060   3.1253741  19.6179233  76.4389992   3.1384990  22.8019997
  75.5139992   3.3464990  22.6729997  76.8929992   3.6224990  22.1119997
  76.3736298   3.2324311  22.6910433  91.2099992  18.1224990  24.7479997
  91.8619992  17.7744990  24.1399997  91.7209992  18.6104990  25.3939997
  91.3682872  18.1408248  24.7520964  76.4029992   1.8764990  31.1459997
  75.7379992   1.6304990  31.7889997  75.9599992   2.4984990  30.5689997
  76.2521168   1.9269225  31.1559830  81.5489992  16.0254990  31.5489997
  81.1239992  16.8354990  31.2669997  82.4529992  16.1114990  31.2469997
  81.6130706  16.1479557  31.4695836  93.1229992   1.3004990  32.8319997
  92.3099992   1.6254990  32.4449997  93.3559992   0.5394990  32.2989997
  93.0431347   1.2421891  32.7069824  81.4179992  18.8824990  30.6259997
  80.5529992  18.9544990  31.0299997  81.3629992  19.4294990  29.8429997
  81.2922289  18.9663242  30.5753749  86.1289992  18.7704990  29.8019997
  85.6719992  19.2994990  29.1479997  86.2909992  19.3734990  30.5269997
  86.0883919  18.9243990  29.8105740  88.4559992  17.6484990  30.7469997
  87.5519992  17.8134990  30.4809997  88.8849992  18.5014990  30.6809997
  88.3902017  17.7864184  30.7016495  41.3499992  51.0914990  90.4709997
  41.5659992  50.7294990  91.3309997  40.4949992  50.7164990  90.2609997
  41.2639349  50.9912914  90.5602134  91.0599992  19.2184990  31.0419997
  90.8789992  20.1344990  30.8309997  91.2369992  18.8074990  30.1949997
  91.0591377  19.2883365  30.8987178  78.3659992  17.9054990  28.5069997
  78.3469992  17.4794990  29.3639997  79.1699992  17.5864990  28.0979997
  78.4721393  17.8040297  28.5690155  80.5069992  16.6154990  27.1619997
  80.2879992  15.6984990  27.3319997  81.3309992  16.7554990  27.6279997
  80.5884702  16.5090523  27.2482510  83.0439992  17.0854990  28.0109997
  83.2569992  16.1974990  27.7239997  83.1089992  17.0504990  28.9649997
  83.0819149  16.9593338  28.1007351  86.5529992   2.7494990  27.1549997
  85.8779992   2.1194990  27.4109997  87.1169992   2.2654990  26.5519997
  86.5369363   2.5978886  27.1084810  91.6949992   0.8564990  27.2679997
  92.2989992   1.4044990  26.7659997  90.8259992   1.1754990  27.0269997
  91.6600419   0.9745628  27.1667741  93.4219992   1.9954990  25.6009997
  94.0339992   1.4814990  25.0739997  93.8049992   2.8724990  25.6239997
  93.5573867   2.0437613  25.5320888  78.8789992   1.3834990  24.9769997
  78.1019992   1.1484990  24.4699997  79.4099992   0.5864990  24.9859997
  78.8443735   1.2436462  24.9088090  77.7159992   1.1814990  20.7809997
  78.1549992   1.7924990  20.1889997  77.0819992   1.7194990  21.2549997
  77.6903859   1.3379076  20.7640287  83.4589992   1.3094990  24.7899997
  84.3329992   1.6984990  24.7609997  83.3229992   1.0944990  25.7129997
  83.5601953   1.3336654  24.9107599  43.9689992  39.5614990  86.4669997
  43.1069992  39.4744990  86.0589997  43.9469992  40.4174990  86.8939997
  43.8480953  39.6653558  86.4689262  89.0149992   1.3394990  26.4399997
  89.0919992   1.4354990  25.4899997  88.7399992   0.4324990  26.5679997
  88.9883233   1.2299093  26.3273665  90.3689992   1.3654990  22.1319997
  89.6659992   1.9804990  21.9219997  89.9239992   0.5284990  22.2629997
  90.2126550   1.3364679  22.1209819  77.6169992  17.1294990  21.6779997
  76.9319992  17.0914990  21.0109997  77.6199992  18.0414990  21.9659997
  77.5236806  17.2476669  21.6256961  79.5769992   3.0974990  19.2229997
  80.0679992   2.4674990  18.6959997  80.1999992   3.3934990  19.8859997
  79.7285304   3.0512387  19.2404922  84.6029992   3.3904990  21.6799997
  84.7809992   2.7434990  22.3629997  84.5489992   4.2244990  22.1469997
  84.6200678   3.4146615  21.8366283  86.4809992  18.3384990  20.0759997
  87.3469992  18.7054990  19.8979997  86.2339992  17.8994990  19.2619997
  86.5661853  18.3294021  19.9415813  93.1899992  17.9014990  22.7549997
  92.9959992  17.1534990  22.1899997  93.1509992  18.6594990  22.1719997
  93.1581645  17.9015797  22.5988131  78.8369992   1.8974990  34.4949997
  78.4709992   1.1314990  34.9369997  79.7499992   1.9264990  34.7809997
  78.9103172   1.7965335  34.5941872  79.4349992  18.0494990  18.7029997
  79.1669992  18.3354990  19.5769997  80.2059992  17.5034990  18.8559997
  79.5025926  18.0147790  18.8431188 106.8139992  10.5394990  24.9359997
 106.9029992  11.4834990  24.8029997 106.1749992  10.2644990  24.2779997
 106.7398378  10.6313846  24.8289258  48.6319992  39.2834990  89.8409997
  49.0519992  38.8684990  90.5939997  47.6989992  39.1044990  89.9579997
  48.5633736  39.2024921  89.9598950 105.7469992   9.7944990  28.3549997
 105.7079992   9.1484990  29.0599997 105.4239992   9.3274990  27.5829997
 105.6980469   9.6430005  28.3472803  98.1149992   9.4084990  29.9479997
  98.1559992   8.7834990  30.6709997  98.8179992  10.0324990  30.1299997
  98.2156223   9.4072318  30.0716164 109.4529992  12.7334990  26.6559997
 109.0119992  12.0134990  27.1069997 109.4399992  13.4544990  27.2859997
 109.3909215  12.7324303  26.8028088  99.0389992  13.8584990  28.4829997
  98.6689992  13.0564990  28.1129997  99.9799992  13.6904990  28.5289997
  99.1155984  13.7259649  28.4385586  95.6489992   7.5184990  23.8749997
  95.2009992   8.3644990  23.8569997  95.0879992   6.9394990  23.3599997
  95.5118546   7.5559004  23.8028874  96.3589992   9.6804990  26.0009997
  96.5729992   8.9104990  26.5279997  97.0969992   9.7704990  25.3979997
  96.4880073   9.5873546  25.9915786 106.5639992  17.8374990  26.8679997
 107.1839992  17.1614990  26.5949997 106.3559992  17.6194990  27.7769997
 106.6207679  17.7155032  26.9534518 104.1359992  12.2264990  28.7609997
 104.4399992  11.5404990  28.1659997 104.8579992  12.3454990  29.3789997
 104.2751240  12.1487325  28.7630941 112.7989992   3.8284990  29.6209997
 112.8479992   4.4384990  30.3569997 113.2249992   4.2894990  28.8979997
 112.8632851   3.9743266  29.6240532 107.2769992   6.6204990  29.0879997
 107.4189992   5.6744990  29.1079997 107.1709992   6.8274990  28.1599997
 107.2821051   6.5189706  28.9652249  51.9579992  43.0384990  90.6949997
  51.4439992  42.9134990  91.4919997  51.8029992  43.9514990  90.4499997
  51.8666643  43.1447068  90.7710624 100.4319992   4.7224990  26.3609997
 100.4749992   5.5824990  25.9419997  99.9739992   4.1694990  25.7269997
 100.3760163   4.7654174  26.2180604 108.1539992   4.8534990  24.7609997
 108.7999992   4.5244990  25.3859997 108.6639992   5.3704990  24.1389997
 108.3114289   4.8784333  24.7623681  97.0519992   7.1194990  27.1229997
  97.7059992   6.5694990  27.5549997  97.0759992   6.8454990  26.2059997
  97.1447199   7.0072178  27.0581650 102.2079992   8.6694990  26.3379997
 102.8239992   8.1424990  26.8469997 101.6219992   8.0294990  25.9339997
 102.2130652   8.5108919  26.3530277 113.1909992   5.3064990  31.8569997
 112.5019992   5.9644990  31.7619997 113.2059992   5.1084990  32.7939997
 113.0987756   5.3697614  31.9705795  99.2419992   3.6404990  30.4349997
  99.0229992   4.1704990  29.6679997  98.5739992   3.8664990  31.0819997
  99.1216975   3.7435979  30.4175123 106.6109992  13.1404990  23.9789997
 106.3149992  12.8174990  23.1269997 106.2869992  14.0404990  24.0199997
 106.5267458  13.2179678  23.8680598 101.8109992  11.3154990  30.7219997
 101.0709992  11.9144990  30.8259997 102.5249992  11.8694990  30.4059997
 101.8063146  11.4722611  30.6935150 109.9179992   4.1444990  26.7419997
 109.7029992   3.3784990  27.2749997 110.5739992   4.6164990  27.2549997
 109.9772673   4.1035739  26.8841972  98.8359992   5.5324990  28.3869997
  99.4489992   6.1654990  28.7599997  99.3479992   5.0604990  27.7309997
  98.9891933   5.5553379  28.3493477  48.2939992  41.7754990  77.1259997
  48.0399992  41.7944990  78.0489997  48.0369992  40.9044990  76.8249997
  48.2245133  41.6603121  77.2115065 100.2179992  13.2804990  31.5089997
 100.2129992  14.1594990  31.1309997  99.3649992  13.1964990  31.9339997
 100.1019199  13.3895901  31.5146942  96.3399992  12.9514990  22.2909997
  96.0679992  13.1804990  21.4019997  96.3849992  13.7884990  22.7519997
  96.3088360  13.0961034  22.2316186 109.9649992  14.5724990  29.0039997
 109.0229992  14.6314990  29.1659997 110.2409992  15.4784990  28.8669997
 109.8735865  14.7030299  29.0076174 110.2649992   2.8594990  30.4209997
 109.5289992   3.4694990  30.3839997 110.9489992   3.2744990  29.8949997
 110.2565367   2.9992562  30.3448156 103.2679992   0.9454990  27.8869997
 103.1509992  -0.0025010  27.8329997 102.4129992   1.2784990  28.1599997
 103.1363691   0.8605842  27.9165072 108.2169992  16.3534990  25.6289997
 108.6419992  15.6464990  25.1439997 108.5339992  17.1554990  25.2119997
 108.3180266  16.3650201  25.5062461 109.3759992  14.2544990  24.1379997
 109.1189992  13.5644990  23.5259997 109.4469992  13.8114990  24.9829997
 109.3504322  14.1001568  24.1685372 111.0619992  12.8214990  32.6149997
 111.2019992  12.2294990  31.8759997 111.2299992  13.6944990  32.2589997
 111.1038734  12.8584041  32.4656937 105.5349992   9.7834990  22.3879997
 104.8229992  10.3184990  22.0359997 106.2259992   9.8384990  21.7279997
 105.5309704   9.8641663  22.2505797 105.5889992   8.2404990  19.4259997
 106.2899992   8.2634990  20.0779997 105.8909992   7.6124990  18.7699997
 105.7258202   8.1587223  19.4265591  44.0599992  44.5264990  87.5619997
  43.4179992  44.4864990  88.2709997  44.0969992  45.4534990  87.3239997
  43.9771659  44.6462540  87.6268463 112.9039992   9.1614990  30.6809997
 112.2519992   9.8554990  30.7699997 113.3689992   9.3714990  29.8709997
 112.8775357   9.2849544  30.5837056 108.9409992   9.9924990  23.3389997
 108.2089992  10.2214990  23.9119997 109.3879992   9.2794990  23.7939997
 108.9012753   9.9273984  23.4789698 100.5859992  10.6234990  25.2219997
 100.2559992  10.2524990  24.4039997 101.1739992   9.9524990  25.5689997
 100.6203182  10.4820648  25.1569898 101.9529992  14.0514990  27.9029997
 101.8579992  13.4724990  27.1469997 102.6819992  13.6804990  28.3989997
 102.0386011  13.9220572  27.8666011 100.9529992   9.3914990  28.8549997
 101.5179992   9.5134990  28.0929997 101.2709992  10.0294990  29.4939997
 101.0733619   9.4944388  28.8370019 107.2619992  14.8954990  29.5889997
 107.0209992  15.5574990  30.2369997 107.0639992  14.0604990  30.0139997
 107.2022662  14.8732704  29.7351008 107.8119992   9.1554990  21.0249997
 108.3909992   9.3054990  21.7709997 108.2259992   9.6254990  20.3009997
 107.9473358   9.2395966  21.0293935  98.7529992   9.9894990  32.8009997
  98.8229992  10.6404990  33.4999997  97.8619992  10.0924990  32.4659997
  98.6421690  10.0924261  32.8513026 105.5379992  15.8914990  24.4599997
 106.0119992  16.1874990  25.2369997 104.9749992  16.6304990  24.2269997
 105.5267890  16.0318047  24.5348084 111.5099992   0.9054990  20.8369997
 110.6099992   1.0434990  21.1329997 111.7619992   1.7364990  20.4359997
 111.4207727   1.0368705  20.8232935  44.0569992  44.7474990  82.4739997
  43.1639992  44.4074990  82.4149997  44.5079992  44.3704990  81.7179997
  43.9957185  44.6500220  82.3637698  99.5759992   9.6924990  22.8109997
  99.2839992  10.4604990  22.3199997  98.9019992   9.0334990  22.6479997
  99.4448843   9.7084537  22.7217695 112.6999992  15.2714990  19.2139997
 112.7729992  16.2104990  19.3839997 113.6049992  14.9664990  19.1579997
 112.8324170  15.3588294  19.2297045  95.6689992  12.0554990  31.6259997
  95.1679992  12.0274990  30.8109997  95.6749992  11.1504990  31.9359997
  95.6011690  11.9292234  31.5562770  95.4199992  14.8364990  28.5099997
  96.3659992  14.6914990  28.4909997  95.3069992  15.6204990  29.0469997
  95.5343578  14.9226708  28.5800300 104.5959992  15.0764990  33.0689997
 104.6829992  15.9024990  33.5439997 103.7319992  14.7464990  33.3179997
 104.4911944  15.1449871  33.1676558 105.0099992  18.8484990  22.8749997
 104.9349992  18.7274990  21.9279997 105.0429992  19.7974990  22.9929997
 105.0042083  18.9602639  22.7614973  98.6639992  17.6374990  24.6559997
  98.8159992  17.2894990  25.5339997  97.8129992  17.2804990  24.3999997
  98.5698344  17.5415891  24.7416851 108.1119992  18.0024990  19.8769997
 108.4869992  17.2584990  19.4059997 108.1159992  17.7324990  20.7949997
 108.1638969  17.8640920  19.9366475 107.7809992  17.9284990  22.6259997
 106.8459992  18.0284990  22.8049997 108.0609992  17.2184990  23.2049997
 107.6909471  17.8462944  22.7286678  97.9179992  13.3794990  32.6689997
  98.1339992  13.0174990  33.5289997  97.0629992  13.0044990  32.4599997
  97.8319082  13.2793377  32.7582396  49.5929992  45.1634990  81.2909997
  49.1839992  45.9784990  80.9989997  50.3129992  45.0234990  80.6759997
  49.6343946  45.2559963  81.1679616 100.5369992   1.8494990  28.6649997
  99.6749992   1.7624990  28.2569997 100.5149992   2.7054990  29.0929997
 100.4160557   1.9533078  28.6670202 105.1999992   1.5714990  32.0399997
 105.6199992   1.1564990  32.7929997 104.2669992   1.3924990  32.1569997
 105.1313736   1.4904921  32.1588950 108.5259992   5.3264990  32.8929997
 108.0119992   5.2014990  33.6909997 108.3709992   6.2394990  32.6489997
 108.4347802   5.4327433  32.9691504 109.2889992  10.1874990  18.6539997
 109.3309992   9.9654990  17.7239997 110.1379992  10.5864990  18.8439997
 109.4095253  10.2110510  18.5523804 104.8619992   4.0634990  19.3249997
 104.6079992   4.0824990  20.2469997 104.6049992   3.1924990  19.0229997
 104.7924508   3.9483292  19.4104786 100.6279992   6.8144990  29.7599997
  99.9859992   6.7744990  30.4689997 100.6649992   7.7414990  29.5219997
 100.5451659   6.9342540  29.8248463 100.6249992   7.0354990  24.6719997
  99.7319992   6.6954990  24.6129997 101.0759992   6.6584990  23.9159997
 100.5637185   6.9380220  24.5617698 106.1609992   7.4514990  23.4889997
 105.7519992   8.2664990  23.1969997 106.8809992   7.3114990  22.8749997
 106.2024439   7.5440383  23.3660098 105.2629992   7.6274990  34.9769997
 104.6999992   6.9224990  35.2979997 106.0889992   7.5064990  35.4449997
 105.2976674   7.5147176  35.0841734 107.1649992   6.8974990  26.3029997
 106.9699992   7.5034990  25.5879997 107.3469992   6.0644990  25.8689997
 107.1629195   6.8677936  26.1464079  48.6949992  45.3394990  92.7789997
  48.1319992  44.6344990  93.0989997  49.5209992  45.2184990  93.2459997
  48.7296423  45.2265614  92.8860168  98.3779992   7.1354990  31.6269997
  98.3399992   7.5354990  32.4959997  97.8869992   6.3184990  31.7169997
  98.3064374   7.0798228  31.7580980 101.7439992   4.5094990  18.4259997
 101.3129992   4.0644990  19.1549997 101.0259992   4.8804990  17.9129997
 101.5879176   4.4987063  18.4564913  94.9859992   4.2514990  25.4779997
  95.6169992   4.2224990  26.1969997  95.4359992   3.8264990  24.7469997
  95.1331082   4.1901269  25.4776307  96.2599992   4.9974990  20.9019997
  96.7349992   5.5884990  20.3169997  95.5429992   5.5274990  21.2489997
  96.2280406   5.1501011  20.8688495 106.4289992   8.5354990  30.9739997
 106.7529992   7.9044990  30.3309997 105.9889992   8.0014990  31.6349997
 106.4138707   8.3768261  30.9753195 103.2069992   4.4634990  25.7579997
 102.2959992   4.5204990  26.0469997 103.7119992   4.4034990  26.5689997
 103.1506873   4.4631838  25.9071190  98.0349992   6.0924990  24.5849997
  97.1459992   6.1914990  24.2449997  98.3309992   5.2504990  24.2389997
  97.9534001   5.9922473  24.4917318 101.6879992   6.0924990  22.2419997
 102.6199992   6.2214990  22.4199997 101.4729992   6.7614990  21.5919997
 101.7864472   6.2005817  22.1784873 107.6119992   3.6984990  29.0219997
 106.9349992   3.8294990  29.6859997 107.1259992   3.5434990  28.2119997
 107.4537265   3.6954665  29.0033380 100.3619992   7.2864990  19.8079997
  99.8199992   6.9074990  19.1169997 101.1959992   7.4814990  19.3799997
 100.4004390   7.2609091  19.6554374  50.5969992  44.6094990  84.1049997
  50.4019992  45.2154990  83.3899997  50.7789992  43.7764990  83.6699997
  50.5949272  44.5797955  83.9484075 110.8989992  19.3694990  35.2989997
 111.0989992  19.7934990  34.4649997 111.5549992  19.7134990  35.9059997
 111.0149937  19.4739993  35.2668645 104.5269992   7.2504990  27.6449997
 105.0909992   6.7044990  27.0979997 104.3789992   6.7294990  28.4339997
 104.5843037   7.1051798  27.6767212  99.5289992   3.3874990  24.0639997
  99.2109992   2.4844990  24.0279997 100.3099992   3.3894990  23.5109997
  99.5911079   3.2642240  23.9842908 103.1529992   5.6394990  30.0589997
 102.3179992   6.0934990  30.1699997 103.6769992   5.9154990  30.8109997
 103.1096072   5.7388960  30.1758118 103.6969992  11.8524990  21.7439997
 102.9519992  11.3444990  21.4219997 103.5629992  11.9014990  22.6899997
 103.5769334  11.7896144  21.8278892 110.8469992  10.9854990  30.5309997
 111.4889992  11.4414990  29.9869997 110.0169992  11.0984990  30.0679997
 110.8226536  11.0631813  30.3939579 107.5949992   4.6664990  19.9429997
 106.6559992   4.7774990  19.7919997 107.8919992   5.5224990  20.2499997
 107.5066136   4.7974977  19.9638568 105.2169992  12.0364990  32.9809997
 104.8709992  11.6544990  33.7879997 105.0169992  12.9694990  33.0519997
 105.1425987  12.1104013  33.1010443 108.3129992   6.5334990  21.6039997
 109.2049992   6.3954990  21.9229997 108.3699992   7.3244990  21.0669997
 108.4427380   6.6214777  21.5750981  98.8219992  11.1474990  27.5139997
  99.5669992  11.1444990  26.9119997  98.8999992  10.3234990  27.9949997
  98.9343365  11.0357395  27.4967412  41.8099992  44.8474990  89.4289997
  41.7719992  45.2474990  90.2969997  41.3189992  44.0304990  89.5189997
  41.7384246  44.7918842  89.5601171 105.8229992  13.3104990  20.7689997
 105.5279992  14.1374990  21.1509997 105.1199992  12.6914990  20.9659997
 105.6876379  13.3399182  20.8478636  95.8299992   9.6074990  32.8289997
  96.0529992   9.1894990  33.6599997  95.2279992   8.9954990  32.4059997
  95.7791513   9.4674617  32.8856722 113.1979992   6.7424990  21.2989997
 112.6439992   6.3464990  20.6259997 113.2989992   7.6534990  21.0209997
 113.1358589   6.8113904  21.1693839 113.1609992  12.5434990  34.1359997
 112.3099992  12.7814990  33.7679997 113.7519992  12.5264990  33.3819997
 113.1243831  12.5737623  33.9838448 111.4929992  15.5284990  21.7639997
 111.1209992  14.7034990  22.0729997 111.7709992  15.3454990  20.8659997
 111.4795807  15.3907031  21.6850063 108.6539992  10.3364990  28.7849997
 107.7259992  10.1054990  28.7579997 109.1049992   9.5594990  28.4549997
 108.5878165  10.1997785  28.7366772 101.1969992  14.6654990  24.9179997
 101.7239992  15.4384990  24.7179997 100.3169992  14.8894990  24.6159997
 101.1502121  14.8017344  24.8497460  96.9519992   9.5274990  19.5049997
  97.5679992  10.1544990  19.8849997  96.0899992   9.8434990  19.7769997
  96.9197678   9.6559423  19.5937192 102.6239992  12.3284990  24.4939997
 102.3829992  13.2534990  24.5359997 101.8839992  11.8694990  24.8909997
 102.4909463  12.3930969  24.5534279 103.1389992  16.4774990  30.8089997
 103.5019992  17.3314990  30.5759997 103.6709992  16.1854990  31.5499997
 103.2605141  16.5548907  30.8772079  38.4179992  41.9634990  83.2789997
  39.0489992  41.9344990  83.9989997  38.8679992  41.5384990  82.5489997
  38.5650905  41.9020839  83.2787479 101.3069992  17.3494990  24.0399997
 100.3579992  17.4554990  24.0909997 101.6589992  18.1704990  24.3839997
 101.2245647  17.4750029  24.0934882 106.6829992  12.5764990  30.5099997
 106.2569992  12.3484990  31.3359997 107.2639992  11.8374990  30.3279997
 106.7032088  12.4454393  30.5984454 108.8859992  13.5054990  19.5839997
 109.2389992  13.1254990  20.3879997 107.9369992  13.4114990  19.6709997
 108.8060956  13.4407867  19.7058005 113.3889992  17.9844990  19.7849997
 114.1329992  18.5704990  19.6449997 112.6949992  18.5534990  20.1179997
 113.3969809  18.1415830  19.8108572  97.4639992   4.3614990  32.3869997
  96.5709992   4.6994990  32.3189997  97.3649992   3.5054990  32.8049997
  97.3284752   4.2920986  32.4341644 109.7519992  12.1774990  21.8109997
 109.4749992  11.4494990  22.3669997 110.6789992  12.2964990  22.0159997
 109.8394419  12.0939436  21.9148264  97.1149992  16.1654990  30.8219997
  97.3319992  15.2334990  30.7909997  97.3619992  16.4404990  31.7049997
  97.1780948  16.0750976  30.9371268 102.9769992  14.6174990  18.0309997
 103.2159992  13.8684990  17.4839997 102.7079992  14.2294990  18.8639997
 102.9733233  14.4626865  18.0687791 101.9139992  14.1874990  20.4869997
 102.0609992  13.6674990  21.2769997 101.9109992  15.0944990  20.7939997
 101.9337102  14.2388964  20.6365907  98.3669992  11.4394990  20.9979997
  97.6809992  11.7924990  21.5649997  98.8899992  12.2024990  20.7509997
  98.3438402  11.5908912  21.0421783  39.6919992  42.7094990  78.7029997
  40.1669992  43.3004990  78.1179997  38.9749992  43.2394990  79.0499997
  39.6600406  42.8621011  78.6698495 106.1979992   4.1024990  31.2769997
 106.8969992   4.1764990  31.9269997 105.8179992   3.2374990  31.4309997
 106.2422662   3.9957050  31.3867412 106.9829992   3.7544990  22.3739997
 107.2029992   4.2254990  21.5699997 107.5409992   4.1484990  23.0439997
 107.0886044   3.8722946  22.3545207 104.6519992  15.8844990  21.2369997
 103.8349992  16.3814990  21.2889997 105.1809992  16.3604990  20.5959997
 104.6118125  16.0167000  21.1575289 104.1829992   5.4824990  23.2089997
 104.9949992   5.9864990  23.2549997 103.9379992   5.3374990  24.1229997
 104.2611091   5.5319366  23.3388552 104.7189992   6.4684990  32.3929997
 104.8379992   7.0424990  33.1499997 105.3739992   5.7804990  32.5079997
 104.8238684   6.4540205  32.5121656 105.0669992   2.5634990  24.1469997
 104.7199992   3.1804990  24.7909997 105.7249992   3.0644990  23.6649997
 105.1084430   2.7156860  24.1700045 101.9899992  16.9284990  21.2179997
 102.1509992  17.7284990  20.7179997 101.7929992  17.2354990  22.1029997
 101.9853906  17.0793690  21.2692316 100.7239992   3.6264990  20.8339997
 100.6409992   4.5144990  21.1809997 101.6139992   3.3614990  21.0659997
 100.8329331   3.7121177  20.9128067 110.9229992   4.3754990  33.2279997
 110.0069992   4.6374990  33.1409997 111.2589992   4.3724990  32.3319997
 110.8428499   4.4110174  33.0948748 109.5249992   8.1254990  27.3239997
 108.7279992   7.7104990  26.9959997 109.9699992   7.4354990  27.8149997
 109.4760367   7.9753372  27.3454897  49.8609992  46.2474990  88.7759997
  50.1849992  45.6164990  88.1329997  49.4209992  45.7134990  89.4369997
  49.8458707  46.0888261  88.7773195  98.9829992  14.0534990  19.8939997
  99.5749992  14.7534990  20.1709997  99.4419992  13.6204990  19.1749997
  99.1261652  14.0907686  19.8346515  97.2989992   6.7184990  19.0099997
  97.2539992   7.6574990  19.1889997  96.4109992   6.4824990  18.7409997
  97.1728166   6.8151698  18.9981507 110.6119992  17.3814990  28.9459997
 110.4559992  18.0604990  28.2889997 111.5439992  17.4534990  29.1489997
 110.7167328  17.4841586  28.8835529  98.1069992   1.4994990  27.6829997
  97.8779992   1.5584990  26.7559997  97.6639992   0.7084990  27.9899997
  98.0157387   1.4006412  27.5975223  97.0369992  15.4404990  23.8439997
  96.2049992  15.9124990  23.8709997  97.5829992  15.9504990  23.2449997
  96.9968710  15.5740317  23.7667570 105.0149992  16.4804990  18.1689997
 104.3709992  15.8494990  18.4909997 105.7769992  15.9494990  17.9379997
 105.0298708  16.3223171  18.1818461 109.6189992  16.2974990  18.4029997
 109.9019992  15.5024990  18.8559997 110.3589992  16.5304990  17.8419997
 109.7577295  16.2202349  18.3891469 100.5739992  12.2064990  18.2609997
 100.6379992  11.4124990  18.7909997 101.2269992  12.0884990  17.5709997
 100.6710483  12.0817496  18.2403407 105.9259992  13.2534990  17.9969997
 105.6579992  13.4344990  18.8969997 105.7199992  12.3284990  17.8649997
 105.8613443  13.1531873  18.1026643 101.7229992  10.1794990  20.5669997
 101.2639992   9.6954990  21.2519997 101.9779992   9.5104990  19.9309997
 101.6945997  10.0228491  20.5748734  46.6389992  42.1754990  83.5599997
  45.7279992  42.2324990  83.8489997  47.1439992  42.1154990  84.3709997
  46.5826873  42.1751838  83.7091190 101.0119992   8.0724990  32.9229997
 100.3939992   8.7464990  33.2029997 101.3559992   8.3934990  32.0889997
 100.9738078   8.2082298  32.8486609 102.7939992   8.4224990  18.8289997
 102.6139992   8.2674990  17.9019997 103.7439992   8.5304990  18.8739997
 102.8977804   8.4158821  18.7081966 112.1839992  10.7764990  18.2749997
 111.9109992  10.3524990  17.4619997 112.2239992  11.7084990  18.0579997
 112.1520201  10.8443523  18.1343548 101.7639992   3.7964990  31.4979997
 102.2999992   4.2484990  30.8459997 100.9119992   3.6884990  31.0749997
 101.7221795   3.8437444  31.3516211 103.3459992   9.2364990  31.7369997
 104.0969992   9.0804990  31.1639997 103.0069992  10.0884990  31.4619997
 103.4029587   9.3303149  31.6214060 103.8339992   5.5744990  35.4929997
 103.5979992   5.3554990  36.3939997 103.0509992   5.3674990  34.9829997
 103.6958382   5.5165340  35.5473991 106.5499992   4.7024990  34.5679997
 105.6019992   4.7344990  34.6999997 106.8619992   4.0764990  35.2219997
 106.4625293   4.6222934  34.6744130 102.6919992  19.1124990  19.8299997
 103.6249992  19.2704990  19.9739997 102.4269992  19.7884990  19.2049997
 102.7839846  19.2254567  19.7652930  96.2599992  13.7494990  19.3129997
  97.1739992  13.8284990  19.5859997  96.2669992  13.0624990  18.6469997
  96.3860624  13.6674074  19.2603045  94.9089992  19.1424990  24.3899997
  94.2619992  18.6804990  23.8579997  95.2639992  18.4704990  24.9729997
  94.8683741  18.9884785  24.3959157  41.4669992  43.8044990  82.3869997
  40.5779992  43.9034990  82.0469997  41.7629992  42.9624990  82.0409997
  41.3854001  43.7042473  82.2937318  95.7789992  17.2224990  26.1949997
  95.4449992  16.3424990  26.3669997  96.0009992  17.5684990  27.0599997
  95.7632565  17.1487410  26.3354263 113.3279992  18.0324990  29.1759997
 113.3059992  18.2174990  30.1139997 114.0179992  18.6004990  28.8349997
 113.4183383  18.1347104  29.2584580 112.8909992  17.5994990  32.0969997
 112.4039992  16.8634990  31.7259997 113.4399992  17.2054990  32.7749997
 112.8986101  17.4456267  32.1379034 112.6429992  11.6454990  22.2499997
 113.4929992  12.0664990  22.3769997 112.6479992  10.9054990  22.8569997
 112.7601143  11.6031106  22.3494732 113.0369992   9.6994990  24.0729997
 112.3109992   9.2194990  24.4709997 113.6179992   9.9044990  24.8049997
 113.0162504   9.6615592  24.2264199 112.7959992  12.4844990  29.0209997
 113.6299992  12.1064990  28.7399997 112.9079992  13.4274990  28.9019997
 112.9251917  12.5602954  28.9664844 113.3049992   9.6004990  20.4639997
 112.7839992   9.9564990  19.7459997 113.2719992  10.2754990  21.1429997
 113.2290955   9.7405023  20.4572634 111.6539992   6.8394990  19.0149997
 111.7509992   7.5064990  18.3349997 111.5139992   6.0244990  18.5339997
 111.6483407   6.8205670  18.8568312 110.8239992   8.2204990  24.6359997
 110.6739992   7.2754990  24.6159997 110.4699992   8.5014990  25.4799997
 110.7556351   8.1291656  24.7473202  95.8589992  10.2984990  28.6469997
  96.0429992  10.2164990  27.7109997  96.7079992  10.1744990  29.0699997
  95.9990132  10.2705066  28.5761460  45.1199992  43.8044990  80.0429997
  46.0519992  43.9334990  80.2209997  44.9049992  44.4734990  79.3939997
  45.2184245  43.9126452  79.9795602 113.1769992   8.0934990  34.9599997
 112.3129992   7.7144990  34.7939997 113.7809992   7.3544990  34.8849997
 113.1405394   7.9418378  34.9271778 110.9019992   4.2474990  18.1329997
 111.5119992   3.8764990  18.7699997 110.0649992   3.8264990  18.3289997
 110.8723704   4.1397942  18.2467077 110.5339992   5.8024990  23.0989997
 110.8139992   4.8954990  23.2229997 111.2929992   6.2364990  22.7099997
 110.6749258   5.7370935  23.0633691 111.1459992   6.3844990  28.5349997
 112.0789992   6.5964990  28.4999997 110.9109992   6.4854990  29.4569997
 111.2419517   6.4271844  28.6549113 111.1749992   7.1214990  31.3109997
 110.3319992   7.3894990  31.6759997 111.6179992   7.9434990  31.0999997
 111.1194035   7.2693351  31.3324770  95.4559992   5.5684990  34.7869997
  96.3759992   5.4464990  35.0239997  95.0069992   4.8184990  35.1769997
  95.5210500   5.4504576  34.8721016 111.1479992   3.0654990  23.1469997
 111.3299992   2.6164990  23.9719997 110.5479992   2.4814990  22.6829997
 111.0918187   2.9250563  23.1972721  96.6779992   3.8814990  27.6789997
  97.1229992   3.0894990  27.9809997  97.1439992   4.5974990  28.1089997
  96.8019718   3.8699546  27.7785247  94.9819992   6.8804990  28.7479997
  95.4739992   6.6594990  27.9569997  95.3439992   7.7204990  29.0289997
  95.0982923   6.9638480  28.6777389 112.9779992   3.2104990  35.0129997
 112.0609992   3.4814990  34.9769997 113.1009992   2.6754990  34.2289997
 112.8690828   3.1752711  34.9020767  51.0439992  41.4104990  86.8239997
  50.3669992  41.5414990  87.4879997  50.5579992  41.2554990  86.0139997
  50.8857265  41.4074665  86.8053380 113.0139992   3.1334990  19.6749997
 113.4269992   2.4124990  19.1999997 113.6959992   3.8024990  19.7329997
 113.1626060   3.1253741  19.6179233  95.2949992   3.1384990  22.8019997
  94.3699992   3.3464990  22.6729997  95.7489992   3.6224990  22.1119997
  95.2296298   3.2324311  22.6910433 110.0659992  18.1224990  24.7479997
 110.7179992  17.7744990  24.1399997 110.5769992  18.6104990  25.3939997
 110.2242872  18.1408248  24.7520964  95.2589992   1.8764990  31.1459997
  94.5939992   1.6304990  31.7889997  94.8159992   2.4984990  30.5689997
  95.1081168   1.9269225  31.1559830 100.4049992  16.0254990  31.5489997
  99.9799992  16.8354990  31.2669997 101.3089992  16.1114990  31.2469997
 100.4690706  16.1479557  31.4695836 104.7159992  17.4244990  34.5089997
 104.9009992  17.0914990  35.3869997 105.5629992  17.7344990  34.1869997
 104.8557291  17.4208214  34.5856140 107.0609992  18.7104990  33.7529997
 107.7379992  18.0774990  33.5129997 107.3829992  19.1114990  34.5599997
 107.1971618  18.6781147  33.8292802 111.9789992   1.3004990  32.8319997
 111.1659992   1.6254990  32.4449997 112.2119992   0.5394990  32.2989997
 111.8991347   1.2421891  32.7069824  97.8069992  19.2824990  31.5969997
  97.0859992  19.7224990  31.1459997  97.4409992  19.0314990  32.4449997
  97.6589632  19.3087235  31.6499649 100.2739992  18.8824990  30.6259997
  99.4089992  18.9544990  31.0299997 100.2189992  19.4294990  29.8429997
 100.1482289  18.9663242  30.5753749  54.3309992  57.0814990  93.1009997
  54.5309992  57.5054990  92.2659997  54.9869992  57.4254990  93.7079997
  54.4469916  57.1859784  93.0687890 104.9849992  18.7704990  29.8019997
 104.5279992  19.2994990  29.1479997 105.1469992  19.3734990  30.5269997
 104.9443919  18.9243990  29.8105740 107.3119992  17.6484990  30.7469997
 106.4079992  17.8134990  30.4809997 107.7409992  18.5014990  30.6809997
 107.2462017  17.7864184  30.7016495 109.9159992  19.2184990  31.0419997
 109.7349992  20.1344990  30.8309997 110.0929992  18.8074990  30.1949997
 109.9151377  19.2883365  30.8987178  97.2219992  17.9054990  28.5069997
  97.2029992  17.4794990  29.3639997  98.0259992  17.5864990  28.0979997
  97.3281393  17.8040297  28.5690155  99.3629992  16.6154990  27.1619997
  99.1439992  15.6984990  27.3319997 100.1869992  16.7554990  27.6279997
  99.4444702  16.5090523  27.2482510 101.8999992  17.0854990  28.0109997
 102.1129992  16.1974990  27.7239997 101.9649992  17.0504990  28.9649997
 101.9379149  16.9593338  28.1007351 105.4089992   2.7494990  27.1549997
 104.7339992   2.1194990  27.4109997 105.9729992   2.2654990  26.5519997
 105.3929363   2.5978886  27.1084810 110.5509992   0.8564990  27.2679997
 111.1549992   1.4044990  26.7659997 109.6819992   1.1754990  27.0269997
 110.5160419   0.9745628  27.1667741 112.2779992   1.9954990  25.6009997
 112.8899992   1.4814990  25.0739997 112.6609992   2.8724990  25.6239997
 112.4133867   2.0437613  25.5320888  97.7349992   1.3834990  24.9769997
  96.9579992   1.1484990  24.4699997  98.2659992   0.5864990  24.9859997
  97.7003735   1.2436462  24.9088090  41.9289992  49.5554990  92.7089997
  42.6609992  49.8104990  93.2699997  41.1489992  49.7604990  93.2239997
  41.9237684  49.6181457  92.8554774  96.5719992   1.1814990  20.7809997
  97.0109992   1.7924990  20.1889997  95.9379992   1.7194990  21.2549997
  96.5463859   1.3379076  20.7640287 102.3149992   1.3094990  24.7899997
 103.1889992   1.6984990  24.7609997 102.1789992   1.0944990  25.7129997
 102.4161953   1.3336654  24.9107599 107.8709992   1.3394990  26.4399997
 107.9479992   1.4354990  25.4899997 107.5959992   0.4324990  26.5679997
 107.8443233   1.2299093  26.3273665 109.2249992   1.3654990  22.1319997
 108.5219992   1.9804990  21.9219997 108.7799992   0.5284990  22.2629997
 109.0686550   1.3364679  22.1209819  96.4729992  17.1294990  21.6779997
  95.7879992  17.0914990  21.0109997  96.4759992  18.0414990  21.9659997
  96.3796806  17.2476669  21.6256961  98.4329992   3.0974990  19.2229997
  98.9239992   2.4674990  18.6959997  99.0559992   3.3934990  19.8859997
  98.5845304   3.0512387  19.2404922 103.4589992   3.3904990  21.6799997
 103.6369992   2.7434990  22.3629997 103.4049992   4.2244990  22.1469997
 103.4760678   3.4146615  21.8366283 105.3369992  18.3384990  20.0759997
 106.2029992  18.7054990  19.8979997 105.0899992  17.8994990  19.2619997
 105.4221853  18.3294021  19.9415813 112.0459992  17.9014990  22.7549997
 111.8519992  17.1534990  22.1899997 112.0069992  18.6594990  22.1719997
 112.0141645  17.9015797  22.5988131  98.2909992  18.0494990  18.7029997
  98.0229992  18.3354990  19.5769997  99.0619992  17.5034990  18.8559997
  98.3585926  18.0147790  18.8431188  47.9589992  44.9624990  85.4469997
  48.5229992  44.4164990  84.8999997  47.8109992  44.4414990  86.2359997
  48.0163037  44.8171798  85.4787212 125.6699992  10.5394990  24.9359997
 125.7589992  11.4834990  24.8029997 125.0309992  10.2644990  24.2779997
 125.5958378  10.6313846  24.8289258 124.6029992   9.7944990  28.3549997
 124.5639992   9.1484990  29.0599997 124.2799992   9.3274990  27.5829997
 124.5540469   9.6430005  28.3472803 116.9709992   9.4084990  29.9479997
 117.0119992   8.7834990  30.6709997 117.6739992  10.0324990  30.1299997
 117.0716223   9.4072318  30.0716164 128.3089992  12.7334990  26.6559997
 127.8679992  12.0134990  27.1069997 128.2959992  13.4544990  27.2859997
 128.2469215  12.7324303  26.8028088 117.8949992  13.8584990  28.4829997
 117.5249992  13.0564990  28.1129997 118.8359992  13.6904990  28.5289997
 117.9715984  13.7259649  28.4385586 114.5049992   7.5184990  23.8749997
 114.0569992   8.3644990  23.8569997 113.9439992   6.9394990  23.3599997
 114.3678546   7.5559004  23.8028874 115.2149992   9.6804990  26.0009997
 115.4289992   8.9104990  26.5279997 115.9529992   9.7704990  25.3979997
 115.3440073   9.5873546  25.9915786 125.4199992  17.8374990  26.8679997
 126.0399992  17.1614990  26.5949997 125.2119992  17.6194990  27.7769997
 125.4767679  17.7155032  26.9534518 122.9919992  12.2264990  28.7609997
 123.2959992  11.5404990  28.1659997 123.7139992  12.3454990  29.3789997
 123.1311240  12.1487325  28.7630941 131.6549992   3.8284990  29.6209997
 131.7039992   4.4384990  30.3569997 132.0809992   4.2894990  28.8979997
 131.7192851   3.9743266  29.6240532  42.9609992  41.0994990  81.8649997
  42.6429992  40.1964990  81.8299997  43.7419992  41.1014990  81.3129997
  43.0231560  40.9761148  81.7854975 126.1329992   6.6204990  29.0879997
 126.2749992   5.6744990  29.1079997 126.0269992   6.8274990  28.1599997
 126.1381051   6.5189706  28.9652249 119.2879992   4.7224990  26.3609997
 119.3309992   5.5824990  25.9419997 118.8299992   4.1694990  25.7269997
 119.2320163   4.7654174  26.2180604 127.0099992   4.8534990  24.7609997
 127.6559992   4.5244990  25.3859997 127.5199992   5.3704990  24.1389997
 127.1674289   4.8784333  24.7623681 115.9079992   7.1194990  27.1229997
 116.5619992   6.5694990  27.5549997 115.9319992   6.8454990  26.2059997
 116.0007199   7.0072178  27.0581650 121.0639992   8.6694990  26.3379997
 121.6799992   8.1424990  26.8469997 120.4779992   8.0294990  25.9339997
 121.0690652   8.5108919  26.3530277 132.0469992   5.3064990  31.8569997
 131.3579992   5.9644990  31.7619997 132.0619992   5.1084990  32.7939997
 131.9547756   5.3697614  31.9705795 118.0979992   3.6404990  30.4349997
 117.8789992   4.1704990  29.6679997 117.4299992   3.8664990  31.0819997
 117.9776975   3.7435979  30.4175123 125.4669992  13.1404990  23.9789997
 125.1709992  12.8174990  23.1269997 125.1429992  14.0404990  24.0199997
 125.3827458  13.2179678  23.8680598 120.6669992  11.3154990  30.7219997
 119.9269992  11.9144990  30.8259997 121.3809992  11.8694990  30.4059997
 120.6623146  11.4722611  30.6935150 128.7739992   4.1444990  26.7419997
 128.5589992   3.3784990  27.2749997 129.4299992   4.6164990  27.2549997
 128.8332673   4.1035739  26.8841972  46.5849992  43.3514990  87.8609997
  45.7499992  43.8054990  87.9709997  47.1089992  43.6274990  88.6129997
  46.5415070  43.4509677  87.9777134 117.6919992   5.5324990  28.3869997
 118.3049992   6.1654990  28.7599997 118.2039992   5.0604990  27.7309997
 117.8451933   5.5553380  28.3493477 119.0739992  13.2804990  31.5089997
 119.0689992  14.1594990  31.1309997 118.2209992  13.1964990  31.9339997
 118.9579199  13.3895901  31.5146942 115.1959992  12.9514990  22.2909997
 114.9239992  13.1804990  21.4019997 115.2409992  13.7884990  22.7519997
 115.1648360  13.0961034  22.2316186 128.8209992  14.5724990  29.0039997
 127.8789992  14.6314990  29.1659997 129.0969992  15.4784990  28.8669997
 128.7295865  14.7030299  29.0076174 129.1209992   2.8594990  30.4209997
 128.3849992   3.4694990  30.3839997 129.8049992   3.2744990  29.8949997
 129.1125367   2.9992562  30.3448156 122.1239992   0.9454990  27.8869997
 122.0069992  -0.0025010  27.8329997 121.2689992   1.2784990  28.1599997
 121.9923691   0.8605842  27.9165072 127.0729992  16.3534990  25.6289997
 127.4979992  15.6464990  25.1439997 127.3899992  17.1554990  25.2119997
 127.1740266  16.3650201  25.5062461 128.2319992  14.2544990  24.1379997
 127.9749992  13.5644990  23.5259997 128.3029992  13.8114990  24.9829997
 128.2064322  14.1001568  24.1685372 124.3909992   9.7834990  22.3879997
 123.6789992  10.3184990  22.0359997 125.0819992   9.8384990  21.7279997
 124.3869704   9.8641663  22.2505797 124.4449992   8.2404990  19.4259997
 125.1459992   8.2634990  20.0779997 124.7469992   7.6124990  18.7699997
 124.5818202   8.1587223  19.4265591  47.1289992  49.5644990  79.5459997
  46.3839992  49.0564990  79.2229997  46.9949992  49.6134990  80.4919997
  47.0088633  49.5015714  79.6297563 131.7599992   9.1614990  30.6809997
 131.1079992   9.8554990  30.7699997 132.2249992   9.3714990  29.8709997
 131.7335357   9.2849544  30.5837056 127.7969992   9.9924990  23.3389997
 127.0649992  10.2214990  23.9119997 128.2439992   9.2794990  23.7939997
 127.7572753   9.9273984  23.4789698 127.6939992   8.1674990  32.4069997
 127.7739992   8.9304990  32.9789997 127.0929992   8.4464990  31.7169997
 127.6236547   8.3097468  32.3920029 119.4419992  10.6234990  25.2219997
 119.1119992  10.2524990  24.4039997 120.0299992   9.9524990  25.5689997
 119.4763182  10.4820648  25.1569898 120.8089992  14.0514990  27.9029997
 120.7139992  13.4724990  27.1469997 121.5379992  13.6804990  28.3989997
 120.8946011  13.9220572  27.8666011 119.8089992   9.3914990  28.8549997
 120.3739992   9.5134990  28.0929997 120.1269992  10.0294990  29.4939997
 119.9293619   9.4944388  28.8370019 126.1179992  14.8954990  29.5889997
 125.8769992  15.5574990  30.2369997 125.9199992  14.0604990  30.0139997
 126.0582662  14.8732704  29.7351008 120.6889992  13.7914990  33.5729997
 120.3769992  14.5734990  34.0279997 120.0389992  13.6384990  32.8869997
 120.5584858  13.8777882  33.5425344 126.6679992   9.1554990  21.0249997
 127.2469992   9.3054990  21.7709997 127.0819992   9.6254990  20.3009997
 126.8033358   9.2395966  21.0293935 117.6089992   9.9894990  32.8009997
 117.6789992  10.6404990  33.4999997 116.7179992  10.0924990  32.4659997
 117.4981690  10.0924261  32.8513026  54.2789992  48.6974990  88.3319997
  54.9209992  49.1534990  87.7889997  53.4489992  48.8104990  87.8699997
  54.2547352  48.7753223  88.1950234 124.3939992  15.8914990  24.4599997
 124.8679992  16.1874990  25.2369997 123.8309992  16.6304990  24.2269997
 124.3827890  16.0318047  24.5348084 130.3659992   0.9054990  20.8369997
 129.4659992   1.0434990  21.1329997 130.6179992   1.7364990  20.4359997
 130.2767727   1.0368705  20.8232935 118.4319992   9.6924990  22.8109997
 118.1399992  10.4604990  22.3199997 117.7579992   9.0334990  22.6479997
 118.3008843   9.7084537  22.7217695 131.5559992  15.2714990  19.2139997
 131.6289992  16.2104990  19.3839997 132.4609992  14.9664990  19.1579997
 131.6884170  15.3588294  19.2297045 114.5249992  12.0554990  31.6259997
 114.0239992  12.0274990  30.8109997 114.5309992  11.1504990  31.9359997
 114.4571690  11.9292234  31.5562770 114.2759992  14.8364990  28.5099997
 115.2219992  14.6914990  28.4909997 114.1629992  15.6204990  29.0469997
 114.3903578  14.9226708  28.5800300 132.4729992  15.5024990  34.1929997
 132.4239992  14.5464990  34.1549997 131.6469992  15.7694990  34.5939997
 132.3545096  15.4078416  34.2420698 123.8659992  18.8484990  22.8749997
 123.7909992  18.7274990  21.9279997 123.8989992  19.7974990  22.9929997
 123.8602083  18.9602639  22.7614973 117.5199992  17.6374990  24.6559997
 117.6719992  17.2894990  25.5339997 116.6689992  17.2804990  24.3999997
 117.4258344  17.5415891  24.7416851 126.9679992  18.0024990  19.8769997
 127.3429992  17.2584990  19.4059997 126.9719992  17.7324990  20.7949997
 127.0198969  17.8640920  19.9366475  51.0269992  42.3784990  77.7449997
  50.0879992  42.4894990  77.5939997  51.3239992  43.2344990  78.0509997
  50.9386371  42.5095327  77.7657362 126.6369992  17.9284990  22.6259997
 125.7019992  18.0284990  22.8049997 126.9169992  17.2184990  23.2049997
 126.5469471  17.8462944  22.7286678 129.6249992   6.9954990  34.6729997
 129.2179992   7.4754990  33.9519997 129.6659992   6.0894990  34.3649997
 129.5748403   6.9387989  34.5327253 116.7739992  13.3794990  32.6689997
 116.9899992  13.0174990  33.5289997 115.9189992  13.0044990  32.4599997
 116.6879082  13.2793377  32.7582396 119.3929992   1.8494990  28.6649997
 118.5309992   1.7624990  28.2569997 119.3709992   2.7054990  29.0929997
 119.2720557   1.9533078  28.6670202 124.0559992   1.5714990  32.0399997
 124.4759992   1.1564990  32.7929997 123.1229992   1.3924990  32.1569997
 123.9873736   1.4904921  32.1588950 127.3819992   5.3264990  32.8929997
 126.8679992   5.2014990  33.6909997 127.2269992   6.2394990  32.6489997
 127.2907802   5.4327433  32.9691504 128.1449992  10.1874990  18.6539997
 128.1869992   9.9654990  17.7239997 128.9939992  10.5864990  18.8439997
 128.2655253  10.2110510  18.5523804 123.7179992   4.0634990  19.3249997
 123.4639992   4.0824990  20.2469997 123.4609992   3.1924990  19.0229997
 123.6484508   3.9483292  19.4104786 119.4839992   6.8144990  29.7599997
 118.8419992   6.7744990  30.4689997 119.5209992   7.7414990  29.5219997
 119.4011659   6.9342540  29.8248463 119.4809992   7.0354990  24.6719997
 118.5879992   6.6954990  24.6129997 119.9319992   6.6584990  23.9159997
 119.4197185   6.9380220  24.5617698  48.6489992  49.7484990  90.7829997
  48.3029992  49.3664990  91.5889997  48.4489992  50.6814990  90.8539997
  48.5745399  49.8223489  90.9030401 125.0169992   7.4514990  23.4889997
 124.6079992   8.2664990  23.1969997 125.7369992   7.3114990  22.8749997
 125.0584439   7.5440383  23.3660098 126.0209992   6.8974990  26.3029997
 125.8259992   7.5034990  25.5879997 126.2029992   6.0644990  25.8689997
 126.0189195   6.8677936  26.1464079 117.2339992   7.1354990  31.6269997
 117.1959992   7.5354990  32.4959997 116.7429992   6.3184990  31.7169997
 117.1624374   7.0798228  31.7580980 120.5999992   4.5094990  18.4259997
 120.1689992   4.0644990  19.1549997 119.8819992   4.8804990  17.9129997
 120.4439176   4.4987063  18.4564913 113.8419992   4.2514990  25.4779997
 114.4729992   4.2224990  26.1969997 114.2919992   3.8264990  24.7469997
 113.9891082   4.1901269  25.4776307 115.1159992   4.9974990  20.9019997
 115.5909992   5.5884990  20.3169997 114.3989992   5.5274990  21.2489997
 115.0840406   5.1501011  20.8688495 125.2849992   8.5354990  30.9739997
 125.6089992   7.9044990  30.3309997 124.8449992   8.0014990  31.6349997
 125.2698707   8.3768261  30.9753195 122.0629992   4.4634990  25.7579997
 121.1519992   4.5204990  26.0469997 122.5679992   4.4034990  26.5689997
 122.0066873   4.4631838  25.9071190 116.8909992   6.0924990  24.5849997
 116.0019992   6.1914990  24.2449997 117.1869992   5.2504990  24.2389997
 116.8094001   5.9922473  24.4917318 120.5439992   6.0924990  22.2419997
 121.4759992   6.2214990  22.4199997 120.3289992   6.7614990  21.5919997
 120.6424472   6.2005817  22.1784873  51.7449992  44.2454990  79.4059997
  52.6369992  44.1074990  79.7249997  51.8019992  45.0364990  78.8689997
  51.8747380  44.3334777  79.3770981 126.4679992   3.6984990  29.0219997
 125.7909992   3.8294990  29.6859997 125.9819992   3.5434990  28.2119997
 126.3097265   3.6954665  29.0033380 119.2179992   7.2864990  19.8079997
 118.6759992   6.9074990  19.1169997 120.0519992   7.4814990  19.3799997
 119.2564390   7.2609091  19.6554374 129.7549992  19.3694990  35.2989997
 129.9549992  19.7934990  34.4649997 130.4109992  19.7134990  35.9059997
 129.8709937  19.4739993  35.2668645 123.3829992   7.2504990  27.6449997
 123.9469992   6.7044990  27.0979997 123.2349992   6.7294990  28.4339997
 123.4403037   7.1051798  27.6767212 118.3849992   3.3874990  24.0639997
 118.0669992   2.4844990  24.0279997 119.1659992   3.3894990  23.5109997
 118.4471079   3.2642240  23.9842908 122.0089992   5.6394990  30.0589997
 121.1739992   6.0934990  30.1699997 122.5329992   5.9154990  30.8109997
 121.9656072   5.7388960  30.1758118 122.5529992  11.8524990  21.7439997
 121.8079992  11.3444990  21.4219997 122.4189992  11.9014990  22.6899997
 122.4329334  11.7896144  21.8278892 129.7029992  10.9854990  30.5309997
 130.3449992  11.4414990  29.9869997 128.8729992  11.0984990  30.0679997
 129.6786536  11.0631813  30.3939579 126.4509992   4.6664990  19.9429997
 125.5119992   4.7774990  19.7919997 126.7479992   5.5224990  20.2499997
 126.3626136   4.7974977  19.9638568 124.0729992  12.0364990  32.9809997
 123.7269992  11.6544990  33.7879997 123.8729992  12.9694990  33.0519997
 123.9985987  12.1104013  33.1010443  42.2539992  48.8594990  85.3149997
  42.9989992  48.8564990  84.7139997  42.3319992  48.0354990  85.7969997
  42.3664158  48.7477928  85.2979136 127.1689992   6.5334990  21.6039997
 128.0609992   6.3954990  21.9229997 127.2259992   7.3244990  21.0669997
 127.2987380   6.6214777  21.5750981 117.6779992  11.1474990  27.5139997
 118.4229992  11.1444990  26.9119997 117.7559992  10.3234990  27.9949997
 117.7903365  11.0357395  27.4967412 124.6789992  13.3104990  20.7689997
 124.3839992  14.1374990  21.1509997 123.9759992  12.6914990  20.9659997
 124.5436379  13.3399182  20.8478636 114.6859992   9.6074990  32.8289997
 114.9089992   9.1894990  33.6599997 114.0839992   8.9954990  32.4059997
 114.6351513   9.4674617  32.8856722 132.0539992   6.7424990  21.2989997
 131.4999992   6.3464990  20.6259997 132.1549992   7.6534990  21.0209997
 131.9918589   6.8113904  21.1693839 130.3489992  15.5284990  21.7639997
 129.9769992  14.7034990  22.0729997 130.6269992  15.3454990  20.8659997
 130.3355807  15.3907031  21.6850063 127.5099992  10.3364990  28.7849997
 126.5819992  10.1054990  28.7579997 127.9609992   9.5594990  28.4549997
 127.4438165  10.1997785  28.7366772 120.0529992  14.6654990  24.9179997
 120.5799992  15.4384990  24.7179997 119.1729992  14.8894990  24.6159997
 120.0062121  14.8017344  24.8497460 115.8079992   9.5274990  19.5049997
 116.4239992  10.1544990  19.8849997 114.9459992   9.8434990  19.7769997
 115.7757678   9.6559423  19.5937192 121.4799992  12.3284990  24.4939997
 121.2389992  13.2534990  24.5359997 120.7399992  11.8694990  24.8909997
 121.3469463  12.3930969  24.5534279  39.2619992  47.3194990  90.6299997
  39.4849992  46.9014990  91.4619997  38.6599992  46.7074990  90.2079997
  39.2110802  47.1795216  90.6867561 121.9949992  16.4774990  30.8089997
 122.3579992  17.3314990  30.5759997 122.5269992  16.1854990  31.5499997
 122.1165141  16.5548907  30.8772079 120.1629992  17.3494990  24.0399997
 119.2139992  17.4554990  24.0909997 120.5149992  18.1704990  24.3839997
 120.0805647  17.4750029  24.0934882 125.5389992  12.5764990  30.5099997
 125.1129992  12.3484990  31.3359997 126.1199992  11.8374990  30.3279997
 125.5592088  12.4454393  30.5984454 127.7419992  13.5054990  19.5839997
 128.0949992  13.1254990  20.3879997 126.7929992  13.4114990  19.6709997
 127.6620956  13.4407867  19.7058005 132.2449992  17.9844990  19.7849997
 132.9889992  18.5704990  19.6449997 131.5509992  18.5534990  20.1179997
 132.2529809  18.1415830  19.8108572 116.3199992   4.3614990  32.3869997
 115.4269992   4.6994990  32.3189997 116.2209992   3.5054990  32.8049997
 116.1844752   4.2920986  32.4341644 128.6079992  12.1774990  21.8109997
 128.3309992  11.4494990  22.3669997 129.5349992  12.2964990  22.0159997
 128.6954419  12.0939436  21.9148264 115.9709992  16.1654990  30.8219997
 116.1879992  15.2334990  30.7909997 116.2179992  16.4404990  31.7049997
 116.0340948  16.0750976  30.9371268 121.8329992  14.6174990  18.0309997
 122.0719992  13.8684990  17.4839997 121.5639992  14.2294990  18.8639997
 121.8293233  14.4626865  18.0687791 120.7699992  14.1874990  20.4869997
 120.9169992  13.6674990  21.2769997 120.7669992  15.0944990  20.7939997
 120.7897102  14.2388964  20.6365907  46.2789992  46.8364990  92.8429997
  45.9829992  46.6714990  91.9479997  47.2099992  46.6164990  92.8329997
  46.3643909  46.7841274  92.7190110 117.2229992  11.4394990  20.9979997
 116.5369992  11.7924990  21.5649997 117.7459992  12.2024990  20.7509997
 117.1998402  11.5908912  21.0421783 125.0539992   4.1024990  31.2769997
 125.7529992   4.1764990  31.9269997 124.6739992   3.2374990  31.4309997
 125.0982662   3.9957050  31.3867412 125.8389992   3.7544990  22.3739997
 126.0589992   4.2254990  21.5699997 126.3969992   4.1484990  23.0439997
 125.9446044   3.8722946  22.3545207 123.5079992  15.8844990  21.2369997
 122.6909992  16.3814990  21.2889997 124.0369992  16.3604990  20.5959997
 123.4678125  16.0167000  21.1575289 123.0389992   5.4824990  23.2089997
 123.8509992   5.9864990  23.2549997 122.7939992   5.3374990  24.1229997
 123.1171091   5.5319366  23.3388552 123.9229992   2.5634990  24.1469997
 123.5759992   3.1804990  24.7909997 124.5809992   3.0644990  23.6649997
 123.9644430   2.7156860  24.1700046 120.8459992  16.9284990  21.2179997
 121.0069992  17.7284990  20.7179997 120.6489992  17.2354990  22.1029997
 120.8413906  17.0793690  21.2692316 119.5799992   3.6264990  20.8339997
 119.4969992   4.5144990  21.1809997 120.4699992   3.3614990  21.0659997
 119.6889331   3.7121177  20.9128067 129.7789992   4.3754990  33.2279997
 128.8629992   4.6374990  33.1409997 130.1149992   4.3724990  32.3319997
 129.6988499   4.4110174  33.0948748 128.3809992   8.1254990  27.3239997
 127.5839992   7.7104990  26.9959997 128.8259992   7.4354990  27.8149997
 128.3320367   7.9753372  27.3454897  50.8989992  52.2104990  90.7329997
  49.9979992  52.3934990  90.4649997  50.9329992  52.4694990  91.6539997
  50.7803021  52.2705505  90.8208206 117.8389992  14.0534990  19.8939997
 118.4309992  14.7534990  20.1709997 118.2979992  13.6204990  19.1749997
 117.9821652  14.0907686  19.8346515 116.1549992   6.7184990  19.0099997
 116.1099992   7.6574990  19.1889997 115.2669992   6.4824990  18.7409997
 116.0288166   6.8151698  18.9981507 129.4679992  17.3814990  28.9459997
 129.3119992  18.0604990  28.2889997 130.3999992  17.4534990  29.1489997
 129.5727328  17.4841586  28.8835529 116.9629992   1.4994990  27.6829997
 116.7339992   1.5584990  26.7559997 116.5199992   0.7084990  27.9899997
 116.8717387   1.4006412  27.5975223 115.8929992  15.4404990  23.8439997
 115.0609992  15.9124990  23.8709997 116.4389992  15.9504990  23.2449997
 115.8528710  15.5740317  23.7667570 123.8709992  16.4804990  18.1689997
 123.2269992  15.8494990  18.4909997 124.6329992  15.9494990  17.9379997
 123.8858708  16.3223171  18.1818462 128.4749992  16.2974990  18.4029997
 128.7579992  15.5024990  18.8559997 129.2149992  16.5304990  17.8419997
 128.6137295  16.2202349  18.3891469 119.4299992  12.2064990  18.2609997
 119.4939992  11.4124990  18.7909997 120.0829992  12.0884990  17.5709997
 119.5270483  12.0817496  18.2403407 124.7819992  13.2534990  17.9969997
 124.5139992  13.4344990  18.8969997 124.5759992  12.3284990  17.8649997
 124.7173443  13.1531873  18.1026643 127.4789992  11.7484990  32.9439997
 128.2239992  12.3374990  32.8249997 126.7209992  12.3304990  33.0069997
 127.4785289  11.9077067  32.9362292  56.6299992  44.4544990  79.0999997
  56.0759992  44.0584990  78.4279997  56.7309992  45.3654990  78.8229997
  56.5677084  44.5233565  78.9704381 120.5789992  10.1794990  20.5669997
 120.1199992   9.6954990  21.2519997 120.8339992   9.5104990  19.9309997
 120.5505997  10.0228491  20.5748734 119.8679992   8.0724990  32.9229997
 119.2499992   8.7464990  33.2029997 120.2119992   8.3934990  32.0889997
 119.8298078   8.2082298  32.8486609 121.6499992   8.4224990  18.8289997
 121.4699992   8.2674990  17.9019997 122.5999992   8.5304990  18.8739997
 121.7537804   8.4158821  18.7081966 131.0399992  10.7764990  18.2749997
 130.7669992  10.3524990  17.4619997 131.0799992  11.7084990  18.0579997
 131.0080201  10.8443523  18.1343548 120.6199992   3.7964990  31.4979997
 121.1559992   4.2484990  30.8459997 119.7679992   3.6884990  31.0749997
 120.5781795   3.8437444  31.3516211 122.2019992   9.2364990  31.7369997
 122.9529992   9.0804990  31.1639997 121.8629992  10.0884990  31.4619997
 122.2589587   9.3303149  31.6214060 121.4259992   1.2534990  31.9289997
 121.3279992   2.1994990  31.8239997 120.6829992   0.8804990  31.4529997
 121.3122123   1.3326811  31.8503204 121.6479992   0.5474990  34.5999997
 122.3589992  -0.0925010  34.5859997 121.5469992   0.8134990  33.6869997
 121.7316858   0.4958591  34.4745501 121.5479992  19.1124990  19.8299997
 122.4809992  19.2704990  19.9739997 121.2829992  19.7884990  19.2049997
 121.6399846  19.2254567  19.7652930 115.1159992  13.7494990  19.3129997
 116.0299992  13.8284990  19.5859997 115.1229992  13.0624990  18.6469997
 115.2420624  13.6674074  19.2603045  56.5929992  50.2554990  91.9369997
  55.7419992  50.4934990  91.5699997  57.1839992  50.2384990  91.1839997
  56.5562468  50.2858251  91.7848902 113.7649992  19.1424990  24.3899997
 113.1179992  18.6804990  23.8579997 114.1199992  18.4704990  24.9729997
 113.7243741  18.9884785  24.3959157 114.6349992  17.2224990  26.1949997
 114.3009992  16.3424990  26.3669997 114.8569992  17.5684990  27.0599997
 114.6192565  17.1487410  26.3354263 132.1839992  18.0324990  29.1759997
 132.1619992  18.2174990  30.1139997 132.8739992  18.6004990  28.8349997
 132.2743383  18.1347104  29.2584580 131.7469992  17.5994990  32.0969997
 131.2599992  16.8634990  31.7259997 132.2959992  17.2054990  32.7749997
 131.7546101  17.4456267  32.1379034 131.4989992  11.6454990  22.2499997
 132.3489992  12.0664990  22.3769997 131.5039992  10.9054990  22.8569997
 131.6161143  11.6031106  22.3494732 131.8929992   9.6994990  24.0729997
 131.1669992   9.2194990  24.4709997 132.4739992   9.9044990  24.8049997
 131.8722504   9.6615592  24.2264199 131.6519992  12.4844990  29.0209997
 132.4859992  12.1064990  28.7399997 131.7639992  13.4274990  28.9019997
 131.7811917  12.5602954  28.9664844 130.1379992  15.3624990  31.3279997
 129.4909992  15.6874990  31.9529997 129.6209992  14.9214990  30.6539997
 129.9794112  15.3474133  31.3225272 132.1609992   9.6004990  20.4639997
 131.6399992   9.9564990  19.7459997 132.1279992  10.2754990  21.1429997
 132.0850955   9.7405023  20.4572634 130.5099992   6.8394990  19.0149997
 130.6069992   7.5064990  18.3349997 130.3699992   6.0244990  18.5339997
 130.5043407   6.8205670  18.8568312  52.0859992  48.0484990  86.5869997
  51.1579992  47.8174990  86.5599997  52.5369992  47.2714990  86.2569997
  52.0198165  47.9117785  86.5386772 129.6799992   8.2204990  24.6359997
 129.5299992   7.2754990  24.6159997 129.3259992   8.5014990  25.4799997
 129.6116351   8.1291656  24.7473202 114.7149992  10.2984990  28.6469997
 114.8989992  10.2164990  27.7109997 115.5639992  10.1744990  29.0699997
 114.8550132  10.2705066  28.5761460 129.7579992   4.2474990  18.1329997
 130.3679992   3.8764990  18.7699997 128.9209992   3.8264990  18.3289997
 129.7283704   4.1397942  18.2467077 129.3899992   5.8024990  23.0989997
 129.6699992   4.8954990  23.2229997 130.1489992   6.2364990  22.7099997
 129.5309258   5.7370935  23.0633691 130.0019992   6.3844990  28.5349997
 130.9349992   6.5964990  28.4999997 129.7669992   6.4854990  29.4569997
 130.0979517   6.4271844  28.6549113 130.0309992   7.1214990  31.3109997
 129.1879992   7.3894990  31.6759997 130.4739992   7.9434990  31.0999997
 129.9754035   7.2693351  31.3324770 114.3119992   5.5684990  34.7869997
 115.2319992   5.4464990  35.0239997 113.8629992   4.8184990  35.1769997
 114.3770500   5.4504576  34.8721016 130.0039992   3.0654990  23.1469997
 130.1859992   2.6164990  23.9719997 129.4039992   2.4814990  22.6829997
 129.9478187   2.9250563  23.1972721 115.5339992   3.8814990  27.6789997
 115.9789992   3.0894990  27.9809997 115.9999992   4.5974990  28.1089997
 115.6579718   3.8699546  27.7785247 113.8379992   6.8804990  28.7479997
 114.3299992   6.6594990  27.9569997 114.1999992   7.7204990  29.0289997
 113.9542923   6.9638480  28.6777389  44.6289992  52.3774990  82.7199997
  45.1559992  53.1504990  82.5189997  43.7489992  52.6014990  82.4179997
  44.5821793  52.5136652  82.6516304 131.8699992   3.1334990  19.6749997
 132.2829992   2.4124990  19.1999997 132.5519992   3.8024990  19.7329997
 132.0186060   3.1253741  19.6179233 114.1509992   3.1384990  22.8019997
 113.2259992   3.3464990  22.6729997 114.6049992   3.6224990  22.1119997
 114.0856298   3.2324311  22.6910433 128.9219992  18.1224990  24.7479997
 129.5739992  17.7744990  24.1399997 129.4329992  18.6104990  25.3939997
 129.0802872  18.1408248  24.7520964 114.1149992   1.8764990  31.1459997
 113.4499992   1.6304990  31.7889997 113.6719992   2.4984990  30.5689997
 113.9641168   1.9269225  31.1559830 119.2609992  16.0254990  31.5489997
 118.8359992  16.8354990  31.2669997 120.1649992  16.1114990  31.2469997
 119.3250706  16.1479557  31.4695836 130.8349992   1.3004990  32.8319997
 130.0219992   1.6254990  32.4449997 131.0679992   0.5394990  32.2989997
 130.7551347   1.2421891  32.7069824 116.6629992  19.2824990  31.5969997
 115.9419992  19.7224990  31.1459997 116.2969992  19.0314990  32.4449997
 116.5149632  19.3087235  31.6499649 119.1299992  18.8824990  30.6259997
 118.2649992  18.9544990  31.0299997 119.0749992  19.4294990  29.8429997
 119.0042289  18.9663242  30.5753749 123.8409992  18.7704990  29.8019997
 123.3839992  19.2994990  29.1479997 124.0029992  19.3734990  30.5269997
 123.8003919  18.9243990  29.8105740 126.1679992  17.6484990  30.7469997
 125.2639992  17.8134990  30.4809997 126.5969992  18.5014990  30.6809997
 126.1022017  17.7864184  30.7016495  46.0559992  50.0404990  82.2959997
  45.8149992  50.9654990  82.3379997  45.3159992  49.5814990  82.6919997
  45.9228934  50.1050881  82.3553191 128.7719992  19.2184990  31.0419997
 128.5909992  20.1344990  30.8309997 128.9489992  18.8074990  30.1949997
 128.7711377  19.2883365  30.8987178 116.0779992  17.9054990  28.5069997
 116.0589992  17.4794990  29.3639997 116.8819992  17.5864990  28.0979997
 116.1841393  17.8040297  28.5690155 118.2189992  16.6154990  27.1619997
 117.9999992  15.6984990  27.3319997 119.0429992  16.7554990  27.6279997
 118.3004702  16.5090523  27.2482510 120.7559992  17.0854990  28.0109997
 120.9689992  16.1974990  27.7239997 120.8209992  17.0504990  28.9649997
 120.7939149  16.9593338  28.1007351 124.2649992   2.7494990  27.1549997
 123.5899992   2.1194990  27.4109997 124.8289992   2.2654990  26.5519997
 124.2489363   2.5978886  27.1084810 129.4069992   0.8564990  27.2679997
 130.0109992   1.4044990  26.7659997 128.5379992   1.1754990  27.0269997
 129.3720419   0.9745628  27.1667741 131.1339992   1.9954990  25.6009997
 131.7459992   1.4814990  25.0739997 131.5169992   2.8724990  25.6239997
 131.2693867   2.0437613  25.5320888 116.5909992   1.3834990  24.9769997
 115.8139992   1.1484990  24.4699997 117.1219992   0.5864990  24.9859997
 116.5563735   1.2436462  24.9088090 115.4279992   1.1814990  20.7809997
 115.8669992   1.7924990  20.1889997 114.7939992   1.7194990  21.2549997
 115.4023859   1.3379076  20.7640287 121.1709992   1.3094990  24.7899997
 122.0449992   1.6984990  24.7609997 121.0349992   1.0944990  25.7129997
 121.2721953   1.3336654  24.9107599  46.5709992  54.1894990  88.6109997
  46.9339992  55.0434990  88.3779997  47.1029992  53.8974990  89.3519997
  46.6925141  54.2668907  88.6792079 126.7269992   1.3394990  26.4399997
 126.8039992   1.4354990  25.4899997 126.4519992   0.4324990  26.5679997
 126.7003233   1.2299093  26.3273665 128.0809992   1.3654990  22.1319997
 127.3779992   1.9804990  21.9219997 127.6359992   0.5284990  22.2629997
 127.9246550   1.3364679  22.1209819 115.3289992  17.1294990  21.6779997
 114.6439992  17.0914990  21.0109997 115.3319992  18.0414990  21.9659997
 115.2356806  17.2476669  21.6256961 117.2889992   3.0974990  19.2229997
 117.7799992   2.4674990  18.6959997 117.9119992   3.3934990  19.8859997
 117.4405304   3.0512387  19.2404922 122.3149992   3.3904990  21.6799997
 122.4929992   2.7434990  22.3629997 122.2609992   4.2244990  22.1469997
 122.3320678   3.4146615  21.8366283 124.1929992  18.3384990  20.0759997
 125.0589992  18.7054990  19.8979997 123.9459992  17.8994990  19.2619997
 124.2781853  18.3294021  19.9415813 130.9019992  17.9014990  22.7549997
 130.7079992  17.1534990  22.1899997 130.8629992  18.6594990  22.1719997
 130.8701645  17.9015797  22.5988131 117.1469992  18.0494990  18.7029997
 116.8789992  18.3354990  19.5769997 117.9179992  17.5034990  18.8559997
 117.2145926  18.0147790  18.8431188 130.1199992  16.6524990  34.9049997
 129.3379992  16.4664990  34.3849997 130.0479992  17.5824990  35.1219997
 130.0032975  16.7526973  34.8631822 135.8269992   9.4084990  29.9479997
 135.8679992   8.7834990  30.6709997 136.5299992  10.0324990  30.1299997
 135.9276223   9.4072318  30.0716164  44.7389992  55.0614990  81.8409997
  43.7899992  55.1674990  81.8929997  45.0909992  55.8824990  82.1859997
  44.6566214  55.1869361  81.8947317 136.7509992  13.8584990  28.4829997
 136.3809992  13.0564990  28.1129997 137.6919992  13.6904990  28.5289997
 136.8275984  13.7259649  28.4385586 133.3609992   7.5184990  23.8749997
 132.9129992   8.3644990  23.8569997 132.7999992   6.9394990  23.3599997
 133.2238546   7.5559004  23.8028874 134.0709992   9.6804990  26.0009997
 134.2849992   8.9104990  26.5279997 134.8089992   9.7704990  25.3979997
 134.2000073   9.5873546  25.9915786 138.1439992   4.7224990  26.3609997
 138.1869992   5.5824990  25.9419997 137.6859992   4.1694990  25.7269997
 138.0880163   4.7654174  26.2180604 134.7639992   7.1194990  27.1229997
 135.4179992   6.5694990  27.5549997 134.7879992   6.8454990  26.2059997
 134.8567199   7.0072178  27.0581650 136.9539992   3.6404990  30.4349997
 136.7349992   4.1704990  29.6679997 136.2859992   3.8664990  31.0819997
 136.8336975   3.7435979  30.4175123 139.5229992  11.3154990  30.7219997
 138.7829992  11.9144990  30.8259997 140.2369992  11.8694990  30.4059997
 139.5183146  11.4722611  30.6935150 136.5479992   5.5324990  28.3869997
 137.1609992   6.1654990  28.7599997 137.0599992   5.0604990  27.7309997
 136.7011933   5.5553380  28.3493477 137.9299992  13.2804990  31.5089997
 137.9249992  14.1594990  31.1309997 137.0769992  13.1964990  31.9339997
 137.8139199  13.3895901  31.5146942 134.0519992  12.9514990  22.2909997
 133.7799992  13.1804990  21.4019997 134.0969992  13.7884990  22.7519997
 134.0208360  13.0961034  22.2316186  50.1149992  50.2884990  88.3119997
  49.6889992  50.0604990  89.1379997  50.6959992  49.5494990  88.1289997
  50.1351587  50.1574084  88.4004111 138.2979992  10.6234990  25.2219997
 137.9679992  10.2524990  24.4039997 138.8859992   9.9524990  25.5689997
 138.3323182  10.4820648  25.1569898 138.6649992   9.3914990  28.8549997
 139.2299992   9.5134990  28.0929997 138.9829992  10.0294990  29.4939997
 138.7853619   9.4944388  28.8370019 139.5449992  13.7914990  33.5729997
 139.2329992  14.5734990  34.0279997 138.8949992  13.6384990  32.8869997
 139.4144858  13.8777882  33.5425344 136.4649992   9.9894990  32.8009997
 136.5349992  10.6404990  33.4999997 135.5739992  10.0924990  32.4659997
 136.3541690  10.0924261  32.8513026 137.7839992  15.8624990  34.3359997
 137.7919992  15.7264990  33.3889997 136.8679992  15.7454990  34.5879997
 137.6612528  15.8280475  34.2403226 137.2879992   9.6924990  22.8109997
 136.9959992  10.4604990  22.3199997 136.6139992   9.0334990  22.6479997
 137.1568843   9.7084537  22.7217695 133.3809992  12.0554990  31.6259997
 132.8799992  12.0274990  30.8109997 133.3869992  11.1504990  31.9359997
 133.3131690  11.9292234  31.5562770 133.1319992  14.8364990  28.5099997
 134.0779992  14.6914990  28.4909997 133.0189992  15.6204990  29.0469997
 133.2463578  14.9226708  28.5800300 136.3759992  17.6374990  24.6559997
 136.5279992  17.2894990  25.5339997 135.5249992  17.2804990  24.3999997
 136.2818344  17.5415891  24.7416851 135.6299992  13.3794990  32.6689997
 135.8459992  13.0174990  33.5289997 134.7749992  13.0044990  32.4599997
 135.5439082  13.2793377  32.7582396 138.2489992   1.8494990  28.6649997
 137.3869992   1.7624990  28.2569997 138.2269992   2.7054990  29.0929997
 138.1280557   1.9533078  28.6670202 138.3399992   6.8144990  29.7599997
 137.6979992   6.7744990  30.4689997 138.3769992   7.7414990  29.5219997
 138.2571659   6.9342540  29.8248463 138.3369992   7.0354990  24.6719997
 137.4439992   6.6954990  24.6129997 138.7879992   6.6584990  23.9159997
 138.2757185   6.9380220  24.5617698 136.0899992   7.1354990  31.6269997
 136.0519992   7.5354990  32.4959997 135.5989992   6.3184990  31.7169997
 136.0184374   7.0798228  31.7580980 139.4559992   4.5094990  18.4259997
 139.0249992   4.0644990  19.1549997 138.7379992   4.8804990  17.9129997
 139.2999176   4.4987063  18.4564913 132.6979992   4.2514990  25.4779997
 133.3289992   4.2224990  26.1969997 133.1479992   3.8264990  24.7469997
 132.8451082   4.1901269  25.4776307 133.9719992   4.9974990  20.9019997
 134.4469992   5.5884990  20.3169997 133.2549992   5.5274990  21.2489997
 133.9400406   5.1501011  20.8688495 135.7469992   6.0924990  24.5849997
 134.8579992   6.1914990  24.2449997 136.0429992   5.2504990  24.2389997
 135.6654001   5.9922473  24.4917318 139.3999992   6.0924990  22.2419997
 140.3319992   6.2214990  22.4199997 139.1849992   6.7614990  21.5919997
 139.4984472   6.2005817  22.1784873 138.0739992   7.2864990  19.8079997
 137.5319992   6.9074990  19.1169997 138.9079992   7.4814990  19.3799997
 138.1124390   7.2609091  19.6554374  52.7739992  54.8404990  90.7809997
  52.1719992  54.2844990  90.2859997  53.0549992  55.5074990  90.1549997
  52.7295757  54.8545755  90.6285657 136.2089992  11.8434990  34.9069997
 136.9409992  12.0984990  35.4689997 135.4289992  12.0484990  35.4229997
 136.2036526  11.9060438  35.0535168 137.2409992   3.3874990  24.0639997
 136.9229992   2.4844990  24.0279997 138.0219992   3.3894990  23.5109997
 137.3031079   3.2642240  23.9842908 136.5339992  11.1474990  27.5139997
 137.2789992  11.1444990  26.9119997 136.6119992  10.3234990  27.9949997
 136.6463365  11.0357395  27.4967412 133.5419992   9.6074990  32.8289997
 133.7649992   9.1894990  33.6599997 132.9399992   8.9954990  32.4059997
 133.4911513   9.4674617  32.8856722 138.9089992  14.6654990  24.9179997
 139.4359992  15.4384990  24.7179997 138.0289992  14.8894990  24.6159997
 138.8622121  14.8017344  24.8497460 134.6639992   9.5274990  19.5049997
 135.2799992  10.1544990  19.8849997 133.8019992   9.8434990  19.7769997
 134.6317678   9.6559423  19.5937192 139.0189992  17.3494990  24.0399997
 138.0699992  17.4554990  24.0909997 139.3709992  18.1704990  24.3839997
 138.9365647  17.4750029  24.0934882 135.1759992   4.3614990  32.3869997
 134.2829992   4.6994990  32.3189997 135.0769992   3.5054990  32.8049997
 135.0404752   4.2920986  32.4341644 134.8269992  16.1654990  30.8219997
 135.0439992  15.2334990  30.7909997 135.0739992  16.4404990  31.7049997
 134.8900948  16.0750976  30.9371268 136.0789992  11.4394990  20.9979997
 135.3929992  11.7924990  21.5649997 136.6019992  12.2024990  20.7509997
 136.0558402  11.5908912  21.0421783  40.8959992  42.0734990  90.1879997
  40.0029992  42.4114990  90.1209997  40.7969992  41.2174990  90.6059997
  40.7605241  42.0040941  90.2352982 138.4359992   3.6264990  20.8339997
 138.3529992   4.5144990  21.1809997 139.3259992   3.3614990  21.0659997
 138.5449331   3.7121177  20.9128067 136.6949992  14.0534990  19.8939997
 137.2869992  14.7534990  20.1709997 137.1539992  13.6204990  19.1749997
 136.8381652  14.0907686  19.8346515 135.0109992   6.7184990  19.0099997
 134.9659992   7.6574990  19.1889997 134.1229992   6.4824990  18.7409997
 134.8848166   6.8151698  18.9981507 135.8189992   1.4994990  27.6829997
 135.5899992   1.5584990  26.7559997 135.3759992   0.7084990  27.9899997
 135.7277387   1.4006412  27.5975223 134.7489992  15.4404990  23.8439997
 133.9169992  15.9124990  23.8709997 135.2949992  15.9504990  23.2449997
 134.7088710  15.5740317  23.7667570 138.2859992  12.2064990  18.2609997
 138.3499992  11.4124990  18.7909997 138.9389992  12.0884990  17.5709997
 138.3830483  12.0817496  18.2403407 139.4349992  10.1794990  20.5669997
 138.9759992   9.6954990  21.2519997 139.6899992   9.5104990  19.9309997
 139.4065997  10.0228491  20.5748734 138.7239992   8.0724990  32.9229997
 138.1059992   8.7464990  33.2029997 139.0679992   8.3934990  32.0889997
 138.6858078   8.2082298  32.8486609 139.0639992   5.4274990  34.0049997
 139.2139992   4.6984990  33.4029997 139.0659992   6.2044990  33.4459997
 139.0847967   5.4327720  33.8470523 139.4759992   3.7964990  31.4979997
 140.0119992   4.2484990  30.8459997 138.6239992   3.6884990  31.0749997
 139.4341795   3.8437444  31.3516211 133.9719992  13.7494990  19.3129997
 134.8859992  13.8284990  19.5859997 133.9789992  13.0624990  18.6469997
 134.0980624  13.6674074  19.2603045 132.6209992  19.1424990  24.3899997
 131.9739992  18.6804990  23.8579997 132.9759992  18.4704990  24.9729997
 132.5803741  18.9884785  24.3959157 133.4909992  17.2224990  26.1949997
 133.1569992  16.3424990  26.3669997 133.7129992  17.5684990  27.0599997
 133.4752565  17.1487410  26.3354263 133.5709992  10.2984990  28.6469997
 133.7549992  10.2164990  27.7109997 134.4199992  10.1744990  29.0699997
 133.7110132  10.2705066  28.5761460 134.3899992   3.8814990  27.6789997
 134.8349992   3.0894990  27.9809997 134.8559992   4.5974990  28.1089997
 134.5139718   3.8699546  27.7785247 132.6939992   6.8804990  28.7479997
 133.1859992   6.6594990  27.9569997 133.0559992   7.7204990  29.0289997
 132.8102923   6.9638480  28.6777389 133.0069992   3.1384990  22.8019997
 132.0819992   3.3464990  22.6729997 133.4609992   3.6224990  22.1119997
 132.9416298   3.2324311  22.6910433 132.9709992   1.8764990  31.1459997
 132.3059992   1.6304990  31.7889997 132.5279992   2.4984990  30.5689997
 132.8201168   1.9269225  31.1559830 135.1629992  15.0514990  35.2909997
 134.3419992  15.2264990  34.8299997 134.9109992  14.9784990  36.2109997
 135.0165594  15.0655728  35.3523593 138.1169992  16.0254990  31.5489997
 137.6919992  16.8354990  31.2669997 139.0209992  16.1114990  31.2469997
 138.1810706  16.1479557  31.4695836  40.5469992  53.8774990  88.6229997
  40.7639992  52.9454990  88.5919997  40.7939992  54.1524990  89.5069997
  40.6100543  53.7870877  88.7381412 135.5189992  19.2824990  31.5969997
 134.7979992  19.7224990  31.1459997 135.1529992  19.0314990  32.4449997
 135.3709632  19.3087235  31.6499649 137.9859992  18.8824990  30.6259997
 137.1209992  18.9544990  31.0299997 137.9309992  19.4294990  29.8429997
 137.8602289  18.9663242  30.5753749 134.9339992  17.9054990  28.5069997
 134.9149992  17.4794990  29.3639997 135.7379992  17.5864990  28.0979997
 135.0401393  17.8040297  28.5690155 137.0749992  16.6154990  27.1619997
 136.8559992  15.6984990  27.3319997 137.8989992  16.7554990  27.6279997
 137.1564702  16.5090523  27.2482510 135.4469992   1.3834990  24.9769997
 134.6699992   1.1484990  24.4699997 135.9779992   0.5864990  24.9859997
 135.4123735   1.2436462  24.9088090 134.2839992   1.1814990  20.7809997
 134.7229992   1.7924990  20.1889997 133.6499992   1.7194990  21.2549997
 134.2583859   1.3379076  20.7640287 134.1849992  17.1294990  21.6779997
 133.4999992  17.0914990  21.0109997 134.1879992  18.0414990  21.9659997
 134.0916806  17.2476669  21.6256961 136.1449992   3.0974990  19.2229997
 136.6359992   2.4674990  18.6959997 136.7679992   3.3934990  19.8859997
 136.2965304   3.0512387  19.2404922 135.4049992   1.8974990  34.4949997
 135.0389992   1.1314990  34.9369997 136.3179992   1.9264990  34.7809997
 135.4783172   1.7965335  34.5941872 136.0029992  18.0494990  18.7029997
 135.7349992  18.3354990  19.5769997 136.7739992  17.5034990  18.8559997
 136.0705926  18.0147790  18.8431188  41.7989992  49.1514990  78.7989997
  41.1129992  49.5044990  79.3659997  42.3219992  49.9144990  78.5529997
  41.7759033  49.3028757  78.8432644  12.5339992  29.3954990  24.9359997
  12.6229992  30.3394990  24.8029997  11.8949992  29.1204990  24.2779997
  12.4598378  29.4873846  24.8289258  11.4669992  28.6504990  28.3549997
  11.4279992  28.0044990  29.0599997  11.1439992  28.1834990  27.5829997
  11.4180469  28.4990005  28.3472803   3.8349992  28.2644990  29.9479997
   3.8759992  27.6394990  30.6709997   4.5379992  28.8884990  30.1299997
   3.9356223  28.2632318  30.0716164  15.1729992  31.5894990  26.6559997
  14.7319992  30.8694990  27.1069997  15.1599992  32.3104990  27.2859997
  15.1109215  31.5884303  26.8028088   4.7589992  32.7144990  28.4829997
   4.3889992  31.9124990  28.1129997   5.6999992  32.5464990  28.5289997
   4.8355984  32.5819649  28.4385586   1.3689992  26.3744990  23.8749997
   0.9209992  27.2204990  23.8569997   0.8079992  25.7954990  23.3599997
   1.2318546  26.4119004  23.8028874   2.0789992  28.5364990  26.0009997
   2.2929992  27.7664990  26.5279997   2.8169992  28.6264990  25.3979997
   2.2080073  28.4433546  25.9915786  12.2839992  36.6934990  26.8679997
  12.9039992  36.0174990  26.5949997  12.0759992  36.4754990  27.7769997
  12.3407679  36.5715032  26.9534518   9.8559992  31.0824990  28.7609997
  10.1599992  30.3964990  28.1659997  10.5779992  31.2014990  29.3789997
   9.9951240  31.0047325  28.7630941  18.5189992  22.6844990  29.6209997
  18.5679992  23.2944990  30.3569997  18.9449992  23.1454990  28.8979997
  18.5832851  22.8303266  29.6240532  49.6299992  41.8144990  89.0779997
  50.3289992  41.8884990  89.7279997  49.2499992  40.9494990  89.2329997
  49.6742095  41.7077402  89.1877982  12.9969992  25.4764990  29.0879997
  13.1389992  24.5304990  29.1079997  12.8909992  25.6834990  28.1599997
  13.0021051  25.3749706  28.9652249   6.1519992  23.5784990  26.3609997
   6.1949992  24.4384990  25.9419997   5.6939992  23.0254990  25.7269997
   6.0960163  23.6214174  26.2180604  13.8739992  23.7094990  24.7609997
  14.5199992  23.3804990  25.3859997  14.3839992  24.2264990  24.1389997
  14.0314289  23.7344333  24.7623681   2.7719992  25.9754990  27.1229997
   3.4259992  25.4254990  27.5549997   2.7959992  25.7014990  26.2059997
   2.8647199  25.8632178  27.0581650   7.9279992  27.5254990  26.3379997
   8.5439992  26.9984990  26.8469997   7.3419992  26.8854990  25.9339997
   7.9330652  27.3668919  26.3530277  18.9109992  24.1624990  31.8569997
  18.2219992  24.8204990  31.7619997  18.9259992  23.9644990  32.7939997
  18.8187756  24.2257614  31.9705795   4.9619992  22.4964990  30.4349997
   4.7429992  23.0264990  29.6679997   4.2939992  22.7224990  31.0819997
   4.8416975  22.5995979  30.4175123  12.3309992  31.9964990  23.9789997
  12.0349992  31.6734990  23.1269997  12.0069992  32.8964990  24.0199997
  12.2467458  32.0739678  23.8680598   7.5309992  30.1714990  30.7219997
   6.7909992  30.7704990  30.8259997   8.2449992  30.7254990  30.4059997
   7.5263146  30.3282611  30.6935150  15.6379992  23.0004990  26.7419997
  15.4229992  22.2344990  27.2749997  16.2939992  23.4724990  27.2549997
  15.6972673  22.9595739  26.8841972  50.4149992  41.4664990  80.1749997
  50.6349992  41.9374990  79.3719997  50.9729992  41.8604990  80.8459997
  50.5205851  41.5843272  80.1556134   4.5559992  24.3884990  28.3869997
   5.1689992  25.0214990  28.7599997   5.0679992  23.9164990  27.7309997
   4.7091933  24.4113380  28.3493477   5.9379992  32.1364990  31.5089997
   5.9329992  33.0154990  31.1309997   5.0849992  32.0524990  31.9339997
   5.8219199  32.2455901  31.5146942   2.0599992  31.8074990  22.2909997
   1.7879992  32.0364990  21.4019997   2.1049992  32.6444990  22.7519997
   2.0288360  31.9521034  22.2316186  15.6849992  33.4284990  29.0039997
  14.7429992  33.4874990  29.1659997  15.9609992  34.3344990  28.8669997
  15.5935865  33.5590299  29.0076174  15.9849992  21.7154990  30.4209997
  15.2489992  22.3254990  30.3839997  16.6689992  22.1304990  29.8949997
  15.9765367  21.8552562  30.3448156   8.9879992  19.8014990  27.8869997
   8.8709992  18.8534990  27.8329997   8.1329992  20.1344990  28.1599997
   8.8563691  19.7165842  27.9165072  13.9369992  35.2094990  25.6289997
  14.3619992  34.5024990  25.1439997  14.2539992  36.0114990  25.2119997
  14.0380266  35.2210201  25.5062461  15.0959992  33.1104990  24.1379997
  14.8389992  32.4204990  23.5259997  15.1669992  32.6674990  24.9829997
  15.0704322  32.9561568  24.1685372  16.7819992  31.6774990  32.6149997
  16.9219992  31.0854990  31.8759997  16.9499992  32.5504990  32.2589997
  16.8238734  31.7144041  32.4656937  11.2549992  28.6394990  22.3879997
  10.5429992  29.1744990  22.0359997  11.9459992  28.6944990  21.7279997
  11.2509704  28.7201663  22.2505797  47.6149992  43.1944990  81.0099997
  48.4269992  43.6984990  81.0559997  47.3699992  43.0494990  81.9239997
  47.6931091  43.2439366  81.1398552  11.3089992  27.0964990  19.4259997
  12.0099992  27.1194990  20.0779997  11.6109992  26.4684990  18.7699997
  11.4458202  27.0147223  19.4265591  18.6239992  28.0174990  30.6809997
  17.9719992  28.7114990  30.7699997  19.0889992  28.2274990  29.8709997
  18.5975357  28.1409544  30.5837056  14.6609992  28.8484990  23.3389997
  13.9289992  29.0774990  23.9119997  15.1079992  28.1354990  23.7939997
  14.6212753  28.7833984  23.4789698  14.5579992  27.0234990  32.4069997
  14.6379992  27.7864990  32.9789997  13.9569992  27.3024990  31.7169997
  14.4876547  27.1657468  32.3920029   6.3059992  29.4794990  25.2219997
   5.9759992  29.1084990  24.4039997   6.8939992  28.8084990  25.5689997
   6.3403182  29.3380648  25.1569898   7.6729992  32.9074990  27.9029997
   7.5779992  32.3284990  27.1469997   8.4019992  32.5364990  28.3989997
   7.7586011  32.7780572  27.8666011   6.6729992  28.2474990  28.8549997
   7.2379992  28.3694990  28.0929997   6.9909992  28.8854990  29.4939997
   6.7933619  28.3504388  28.8370019  12.9819992  33.7514990  29.5889997
  12.7409992  34.4134990  30.2369997  12.7839992  32.9164990  30.0139997
  12.9222662  33.7292704  29.7351008  13.5319992  28.0114990  21.0249997
  14.1109992  28.1614990  21.7709997  13.9459992  28.4814990  20.3009997
  13.6673358  28.0955966  21.0293935   4.4729992  28.8454990  32.8009997
   4.5429992  29.4964990  33.4999997   3.5819992  28.9484990  32.4659997
   4.3621690  28.9484261  32.8513026  48.1509992  44.1804990  90.1949997
  48.2699992  44.7544990  90.9519997  48.8059992  43.4924990  90.3099997
  48.2558684  44.1660205  90.3141656  11.2579992  34.7474990  24.4599997
  11.7319992  35.0434990  25.2369997  10.6949992  35.4864990  24.2269997
  11.2467890  34.8878047  24.5348084  17.2299992  19.7614990  20.8369997
  16.3299992  19.8994990  21.1329997  17.4819992  20.5924990  20.4359997
  17.1407727  19.8928705  20.8232935   5.2959992  28.5484990  22.8109997
   5.0039992  29.3164990  22.3199997   4.6219992  27.8894990  22.6479997
   5.1648843  28.5644537  22.7217695  18.4199992  34.1274990  19.2139997
  18.4929992  35.0664990  19.3839997  19.3249992  33.8224990  19.1579997
  18.5524170  34.2148294  19.2297045   1.3889992  30.9114990  31.6259997
   0.8879992  30.8834990  30.8109997   1.3949992  30.0064990  31.9359997
   1.3211690  30.7852234  31.5562770   1.1399992  33.6924990  28.5099997
   2.0859992  33.5474990  28.4909997   1.0269992  34.4764990  29.0469997
   1.2543578  33.7786708  28.5800300  19.3369992  34.3584990  34.1929997
  19.2879992  33.4024990  34.1549997  18.5109992  34.6254990  34.5939997
  19.2185096  34.2638416  34.2420698  10.3159992  33.9324990  33.0689997
  10.4029992  34.7584990  33.5439997   9.4519992  33.6024990  33.3179997
  10.2111944  34.0009871  33.1676558  10.7299992  37.7044990  22.8749997
  10.6549992  37.5834990  21.9279997  10.7629992  38.6534990  22.9929997
  10.7242083  37.8162639  22.7614973   4.3839992  36.4934990  24.6559997
   4.5359992  36.1454990  25.5339997   3.5329992  36.1364990  24.3999997
   4.2898344  36.3975891  24.7416851  48.4989992  40.2754990  81.9479997
  48.1519992  40.8924990  82.5929997  49.1569992  40.7764990  81.4669997
  48.5405290  40.4276384  81.9711635  13.8319992  36.8584990  19.8769997
  14.2069992  36.1144990  19.4059997  13.8359992  36.5884990  20.7949997
  13.8838969  36.7200920  19.9366475  13.5009992  36.7844990  22.6259997
  12.5659992  36.8844990  22.8049997  13.7809992  36.0744990  23.2049997
  13.4109471  36.7022944  22.7286678   6.2569992  20.7054990  28.6649997
   5.3949992  20.6184990  28.2569997   6.2349992  21.5614990  29.0929997
   6.1360557  20.8093078  28.6670202  10.9199992  20.4274990  32.0399997
  11.3399992  20.0124990  32.7929997   9.9869992  20.2484990  32.1569997
  10.8513736  20.3464921  32.1588950  15.0089992  29.0434990  18.6539997
  15.0509992  28.8214990  17.7239997  15.8579992  29.4424990  18.8439997
  15.1295253  29.0670510  18.5523804  10.5819992  22.9194990  19.3249997
  10.3279992  22.9384990  20.2469997  10.3249992  22.0484990  19.0229997
  10.5124508  22.8043292  19.4104786   6.3479992  25.6704990  29.7599997
   5.7059992  25.6304990  30.4689997   6.3849992  26.5974990  29.5219997
   6.2651659  25.7902540  29.8248463   6.3449992  25.8914990  24.6719997
   5.4519992  25.5514990  24.6129997   6.7959992  25.5144990  23.9159997
   6.2837185  25.7940220  24.5617698  11.8809992  26.3074990  23.4889997
  11.4719992  27.1224990  23.1969997  12.6009992  26.1674990  22.8749997
  11.9224439  26.4000383  23.3660098  12.8849992  25.7534990  26.3029997
  12.6899992  26.3594990  25.5879997  13.0669992  24.9204990  25.8689997
  12.8829195  25.7237936  26.1464079  54.3549992  42.0874990  91.0299997
  53.4389992  42.3494990  90.9419997  54.6909992  42.0844990  90.1329997
  54.2749789  42.1229637  90.8967829   4.0979992  25.9914990  31.6269997
   4.0599992  26.3914990  32.4959997   3.6069992  25.1744990  31.7169997
   4.0264374  25.9358228  31.7580980   7.4639992  23.3654990  18.4259997
   7.0329992  22.9204990  19.1549997   6.7459992  23.7364990  17.9129997
   7.3079176  23.3547063  18.4564913   0.7059992  23.1074990  25.4779997
   1.3369992  23.0784990  26.1969997   1.1559992  22.6824990  24.7469997
   0.8531082  23.0461269  25.4776307   1.9799992  23.8534990  20.9019997
   2.4549992  24.4444990  20.3169997   1.2629992  24.3834990  21.2489997
   1.9480406  24.0061011  20.8688495  12.1489992  27.3914990  30.9739997
  12.4729992  26.7604990  30.3309997  11.7089992  26.8574990  31.6349997
  12.1338707  27.2328261  30.9753195   8.9269992  23.3194990  25.7579997
   8.0159992  23.3764990  26.0469997   9.4319992  23.2594990  26.5689997
   8.8706873  23.3191838  25.9071190   3.7549992  24.9484990  24.5849997
   2.8659992  25.0474990  24.2449997   4.0509992  24.1064990  24.2389997
   3.6734001  24.8482473  24.4917318   7.4079992  24.9484990  22.2419997
   8.3399992  25.0774990  22.4199997   7.1929992  25.6174990  21.5919997
   7.5064472  25.0565817  22.1784873  13.3319992  22.5544990  29.0219997
  12.6549992  22.6854990  29.6859997  12.8459992  22.3994990  28.2119997
  13.1737265  22.5514665  29.0033380   6.0819992  26.1424990  19.8079997
   5.5399992  25.7634990  19.1169997   6.9159992  26.3374990  19.3799997
   6.1204390  26.1169091  19.6554374  52.9569992  45.8374990  85.1259997
  52.1599992  45.4224990  84.7969997  53.4019992  45.1474990  85.6169997
  52.9080317  45.6873197  85.1473556  10.2469992  26.1064990  27.6449997
  10.8109992  25.5604990  27.0979997  10.0989992  25.5854990  28.4339997
  10.3043037  25.9611798  27.6767212   5.2489992  22.2434990  24.0639997
   4.9309992  21.3404990  24.0279997   6.0299992  22.2454990  23.5109997
   5.3111079  22.1202240  23.9842908   8.8729992  24.4954990  30.0589997
   8.0379992  24.9494990  30.1699997   9.3969992  24.7714990  30.8109997
   8.8296072  24.5948960  30.1758118   9.4169992  30.7084990  21.7439997
   8.6719992  30.2004990  21.4219997   9.2829992  30.7574990  22.6899997
   9.2969334  30.6456144  21.8278892  16.5669992  29.8414990  30.5309997
  17.2089992  30.2974990  29.9869997  15.7369992  29.9544990  30.0679997
  16.5426536  29.9191813  30.3939579  13.3149992  23.5224990  19.9429997
  12.3759992  23.6334990  19.7919997  13.6119992  24.3784990  20.2499997
  13.2266136  23.6534977  19.9638568  14.0329992  25.3894990  21.6039997
  14.9249992  25.2514990  21.9229997  14.0899992  26.1804990  21.0669997
  14.1627380  25.4774777  21.5750981   4.5419992  30.0034990  27.5139997
   5.2869992  30.0004990  26.9119997   4.6199992  29.1794990  27.9949997
   4.6543365  29.8917395  27.4967412  11.5429992  32.1664990  20.7689997
  11.2479992  32.9934990  21.1509997  10.8399992  31.5474990  20.9659997
  11.4076379  32.1959182  20.8478636   1.5499992  28.4634990  32.8289997
   1.7729992  28.0454990  33.6599997   0.9479992  27.8514990  32.4059997
   1.4991513  28.3234617  32.8856722  42.4149992  51.7654990  77.6959997
  43.0069992  52.4654990  77.9719997  42.8739992  51.3324990  76.9769997
  42.5581172  51.8027371  77.6365163  13.1869992  33.3544990  32.9309997
  12.2859992  33.5374990  32.6639997  13.2209992  33.6134990  33.8519997
  13.0683861  33.4145245  33.0189517  18.9179992  25.5984990  21.2989997
  18.3639992  25.2024990  20.6259997  19.0189992  26.5094990  21.0209997
  18.8558589  25.6673904  21.1693839  17.2129992  34.3844990  21.7639997
  16.8409992  33.5594990  22.0729997  17.4909992  34.2014990  20.8659997
  17.1995807  34.2467031  21.6850063  14.3739992  29.1924990  28.7849997
  13.4459992  28.9614990  28.7579997  14.8249992  28.4154990  28.4549997
  14.3078165  29.0557785  28.7366772   6.9169992  33.5214990  24.9179997
   7.4439992  34.2944990  24.7179997   6.0369992  33.7454990  24.6159997
   6.8702121  33.6577344  24.8497460   2.6719992  28.3834990  19.5049997
   3.2879992  29.0104990  19.8849997   1.8099992  28.6994990  19.7769997
   2.6397678  28.5119423  19.5937192   8.3439992  31.1844990  24.4939997
   8.1029992  32.1094990  24.5359997   7.6039992  30.7254990  24.8909997
   8.2109463  31.2490969  24.5534279   8.8589992  35.3334990  30.8089997
   9.2219992  36.1874990  30.5759997   9.3909992  35.0414990  31.5499997
   8.9805141  35.4108907  30.8772079   7.0269992  36.2054990  24.0399997
   6.0779992  36.3114990  24.0909997   7.3789992  37.0264990  24.3839997
   6.9445647  36.3310029  24.0934882  12.4029992  31.4324990  30.5099997
  11.9769992  31.2044990  31.3359997  12.9839992  30.6934990  30.3279997
  12.4232088  31.3014393  30.5984454  54.0439992  55.0934990  86.7479997
  53.8879992  55.7724990  86.0909997  54.9759992  55.1654990  86.9509997
  54.1487328  55.1961586  86.6855529  14.6059992  32.3614990  19.5839997
  14.9589992  31.9814990  20.3879997  13.6569992  32.2674990  19.6709997
  14.5260956  32.2967867  19.7058005  15.0619992  35.9844990  32.9789997
  14.4599992  35.4284990  32.4839997  15.3429992  36.6514990  32.3529997
  15.0175757  35.9985755  32.8265657  19.1089992  36.8404990  19.7849997
  19.8529992  37.4264990  19.6449997  18.4149992  37.4094990  20.1179997
  19.1169809  36.9975830  19.8108572   3.1839992  23.2174990  32.3869997
   2.2909992  23.5554990  32.3189997   3.0849992  22.3614990  32.8049997
   3.0484752  23.1480986  32.4341644  15.4719992  31.0334990  21.8109997
  15.1949992  30.3054990  22.3669997  16.3989992  31.1524990  22.0159997
  15.5594419  30.9499436  21.9148264   2.8349992  35.0214990  30.8219997
   3.0519992  34.0894990  30.7909997   3.0819992  35.2964990  31.7049997
   2.8980948  34.9310976  30.9371268   8.6969992  33.4734990  18.0309997
   8.9359992  32.7244990  17.4839997   8.4279992  33.0854990  18.8639997
   8.6933233  33.3186865  18.0687791   7.6339992  33.0434990  20.4869997
   7.7809992  32.5234990  21.2769997   7.6309992  33.9504990  20.7939997
   7.6537102  33.0948964  20.6365907   4.0869992  30.2954990  20.9979997
   3.4009992  30.6484990  21.5649997   4.6099992  31.0584990  20.7509997
   4.0638402  30.4468912  21.0421784  11.9179992  22.9584990  31.2769997
  12.6169992  23.0324990  31.9269997  11.5379992  22.0934990  31.4309997
  11.9622662  22.8517050  31.3867412  41.5389992  39.2114990  85.4849997
  41.3099992  39.2704990  84.5579997  41.0959992  38.4204990  85.7919997
  41.4477387  39.1126412  85.3995223  12.7029992  22.6104990  22.3739997
  12.9229992  23.0814990  21.5699997  13.2609992  23.0044990  23.0439997
  12.8086044  22.7282946  22.3545207  10.3719992  34.7404990  21.2369997
   9.5549992  35.2374990  21.2889997  10.9009992  35.2164990  20.5959997
  10.3318125  34.8727000  21.1575289   9.9029992  24.3384990  23.2089997
  10.7149992  24.8424990  23.2549997   9.6579992  24.1934990  24.1229997
   9.9811091  24.3879366  23.3388552  10.4389992  25.3244990  32.3929997
  10.5579992  25.8984990  33.1499997  11.0939992  24.6364990  32.5079997
  10.5438684  25.3100205  32.5121656  10.7869992  21.4194990  24.1469997
  10.4399992  22.0364990  24.7909997  11.4449992  21.9204990  23.6649997
  10.8284430  21.5716860  24.1700046   7.7099992  35.7844990  21.2179997
   7.8709992  36.5844990  20.7179997   7.5129992  36.0914990  22.1029997
   7.7053906  35.9353690  21.2692316   6.4439992  22.4824990  20.8339997
   6.3609992  23.3704990  21.1809997   7.3339992  22.2174990  21.0659997
   6.5529331  22.5681177  20.9128067  15.2449992  26.9814990  27.3239997
  14.4479992  26.5664990  26.9959997  15.6899992  26.2914990  27.8149997
  15.1960367  26.8313372  27.3454897   4.7029992  32.9094990  19.8939997
   5.2949992  33.6094990  20.1709997   5.1619992  32.4764990  19.1749997
   4.8461652  32.9467686  19.8346515   3.0189992  25.5744990  19.0099997
   2.9739992  26.5134990  19.1889997   2.1309992  25.3384990  18.7409997
   2.8928166  25.6711698  18.9981507  40.4689992  53.1524990  81.6459997
  39.6369992  53.6244990  81.6729997  41.0149992  53.6624990  81.0469997
  40.4288710  53.2860317  81.5687570  16.3319992  36.2374990  28.9459997
  16.1759992  36.9164990  28.2889997  17.2639992  36.3094990  29.1489997
  16.4367328  36.3401586  28.8835529   3.8269992  20.3554990  27.6829997
   3.5979992  20.4144990  26.7559997   3.3839992  19.5644990  27.9899997
   3.7357387  20.2566412  27.5975223   2.7569992  34.2964990  23.8439997
   1.9249992  34.7684990  23.8709997   3.3029992  34.8064990  23.2449997
   2.7168710  34.4300317  23.7667570   2.0459992  36.9084990  35.1739997
   2.5859992  36.6924990  35.9339997   1.5639992  36.1034990  34.9839997
   2.0548485  36.7700463  35.2524870  10.7349992  35.3364990  18.1689997
  10.0909992  34.7054990  18.4909997  11.4969992  34.8054990  17.9379997
  10.7498708  35.1783171  18.1818461  15.3389992  35.1534990  18.4029997
  15.6219992  34.3584990  18.8559997  16.0789992  35.3864990  17.8419997
  15.4777295  35.0762349  18.3891469   6.2939992  31.0624990  18.2609997
   6.3579992  30.2684990  18.7909997   6.9469992  30.9444990  17.5709997
   6.3910483  30.9377496  18.2403407  11.6459992  32.1094990  17.9969997
  11.3779992  32.2904990  18.8969997  11.4399992  31.1844990  17.8649997
  11.5813443  32.0091873  18.1026643  14.3429992  30.6044990  32.9439997
  15.0879992  31.1934990  32.8249997  13.5849992  31.1864990  33.0069997
  14.3425289  30.7637067  32.9362292   7.4429992  29.0354990  20.5669997
   6.9839992  28.5514990  21.2519997   7.6979992  28.3664990  19.9309997
   7.4145997  28.8788491  20.5748734  39.7579992  55.7644990  92.9759997
  40.2979992  55.5484990  93.7349997  39.2759992  54.9594990  92.7859997
  39.7669101  55.6260216  93.0544364   6.7319992  26.9284990  32.9229997
   6.1139992  27.6024990  33.2029997   7.0759992  27.2494990  32.0889997
   6.6938078  27.0642298  32.8486609   8.5139992  27.2784990  18.8289997
   8.3339992  27.1234990  17.9019997   9.4639992  27.3864990  18.8739997
   8.6177804  27.2718821  18.7081966  17.9039992  29.6324990  18.2749997
  17.6309992  29.2084990  17.4619997  17.9439992  30.5644990  18.0579997
  17.8720201  29.7003523  18.1343548   7.4839992  22.6524990  31.4979997
   8.0199992  23.1044990  30.8459997   6.6319992  22.5444990  31.0749997
   7.4421795  22.6997444  31.3516211  14.7979992  28.6964990  34.8429997
  14.5169992  29.4054990  34.2649997  15.7409992  28.6234990  34.6919997
  14.8869272  28.7836704  34.7434976   8.2899992  20.1094990  31.9289997
   8.1919992  21.0554990  31.8239997   7.5469992  19.7364990  31.4529997
   8.1762123  20.1886811  31.8503204   8.4119992  37.9684990  19.8299997
   9.3449992  38.1264990  19.9739997   8.1469992  38.6444990  19.2049997
   8.5039846  38.0814567  19.7652930   1.9799992  32.6054990  19.3129997
   2.8939992  32.6844990  19.5859997   1.9869992  31.9184990  18.6469997
   2.1060624  32.5234074  19.2603045   0.6289992  37.9984990  24.3899997
  -0.0180008  37.5364990  23.8579997   0.9839992  37.3264990  24.9729997
   0.5883741  37.8444785  24.3959157   1.4989992  36.0784990  26.1949997
   1.1649992  35.1984990  26.3669997   1.7209992  36.4244990  27.0599997
   1.4832565  36.0047410  26.3354263  44.3549992  54.6844990  94.5959997
  45.1229992  54.2254990  94.9369997  44.3339992  54.4584990  93.6659997
  44.4572135  54.5911680  94.5169473  19.0479992  36.8884990  29.1759997
  19.0259992  37.0734990  30.1139997  19.7379992  37.4564990  28.8349997
  19.1383383  36.9907104  29.2584580  18.6109992  36.4554990  32.0969997
  18.1239992  35.7194990  31.7259997  19.1599992  36.0614990  32.7749997
  18.6186101  36.3016267  32.1379034  18.3629992  30.5014990  22.2499997
  19.2129992  30.9224990  22.3769997  18.3679992  29.7614990  22.8569997
  18.4801143  30.4591106  22.3494732  18.7569992  28.5554990  24.0729997
  18.0309992  28.0754990  24.4709997  19.3379992  28.7604990  24.8049997
  18.7362504  28.5175592  24.2264199  18.5159992  31.3404990  29.0209997
  19.3499992  30.9624990  28.7399997  18.6279992  32.2834990  28.9019997
  18.6451917  31.4162954  28.9664844  17.0019992  34.2184990  31.3279997
  16.3549992  34.5434990  31.9529997  16.4849992  33.7774990  30.6539997
  16.8434112  34.2034133  31.3225272  19.0249992  28.4564990  20.4639997
  18.5039992  28.8124990  19.7459997  18.9919992  29.1314990  21.1429997
  18.9490955  28.5965023  20.4572634  17.3739992  25.6954990  19.0149997
  17.4709992  26.3624990  18.3349997  17.2339992  24.8804990  18.5339997
  17.3683407  25.6765670  18.8568312  16.5439992  27.0764990  24.6359997
  16.3939992  26.1314990  24.6159997  16.1899992  27.3574990  25.4799997
  16.4756351  26.9851656  24.7473202   1.5789992  29.1544990  28.6469997
   1.7629992  29.0724990  27.7109997   2.4279992  29.0304990  29.0699997
   1.7190132  29.1265066  28.5761460  50.9319992  53.0644990  93.3249997
  50.5809992  52.2074990  93.5679997  51.6579992  53.2064990  93.9319997
  50.9821590  52.9665189  93.4402889  18.8969992  26.9494990  34.9599997
  18.0329992  26.5704990  34.7939997  19.5009992  26.2104990  34.8849997
  18.8605394  26.7978378  34.9271778  16.6219992  23.1034990  18.1329997
  17.2319992  22.7324990  18.7699997  15.7849992  22.6824990  18.3289997
  16.5923704  22.9957942  18.2467077  16.2539992  24.6584990  23.0989997
  16.5339992  23.7514990  23.2229997  17.0129992  25.0924990  22.7099997
  16.3949258  24.5930935  23.0633691  16.8659992  25.2404990  28.5349997
  17.7989992  25.4524990  28.4999997  16.6309992  25.3414990  29.4569997
  16.9619517  25.2831844  28.6549113  16.8949992  25.9774990  31.3109997
  16.0519992  26.2454990  31.6759997  17.3379992  26.7994990  31.0999997
  16.8394035  26.1253351  31.3324770  16.8679992  21.9214990  23.1469997
  17.0499992  21.4724990  23.9719997  16.2679992  21.3374990  22.6829997
  16.8118187  21.7810563  23.1972721   2.3979992  22.7374990  27.6789997
   2.8429992  21.9454990  27.9809997   2.8639992  23.4534990  28.1089997
   2.5219718  22.7259546  27.7785247   0.7019992  25.7364990  28.7479997
   1.1939992  25.5154990  27.9569997   1.0639992  26.5764990  29.0289997
   0.8182923  25.8198480  28.6777389  18.7339992  21.9894990  19.6749997
  19.1469992  21.2684990  19.1999997  19.4159992  22.6584990  19.7329997
  18.8826060  21.9813741  19.6179233   1.0149992  21.9944990  22.8019997
   0.0899992  22.2024990  22.6729997   1.4689992  22.4784990  22.1119997
   0.9496298  22.0884311  22.6910433  15.7859992  36.9784990  24.7479997
  16.4379992  36.6304990  24.1399997  16.2969992  37.4664990  25.3939997
  15.9442872  36.9968248  24.7520964   0.9789992  20.7324990  31.1459997
   0.3139992  20.4864990  31.7889997   0.5359992  21.3544990  30.5689997
   0.8281168  20.7829225  31.1559830   6.1249992  34.8814990  31.5489997
   5.6999992  35.6914990  31.2669997   7.0289992  34.9674990  31.2469997
   6.1890706  35.0039557  31.4695836  17.6989992  20.1564990  32.8319997
  16.8859992  20.4814990  32.4449997  17.9319992  19.3954990  32.2989997
  17.6191347  20.0981891  32.7069824   3.5269992  38.1384990  31.5969997
   2.8059992  38.5784990  31.1459997   3.1609992  37.8874990  32.4449997
   3.3789632  38.1647235  31.6499649   5.9939992  37.7384990  30.6259997
   5.1289992  37.8104990  31.0299997   5.9389992  38.2854990  29.8429997
   5.8682289  37.8223242  30.5753749  10.7049992  37.6264990  29.8019997
  10.2479992  38.1554990  29.1479997  10.8669992  38.2294990  30.5269997
  10.6643919  37.7803990  29.8105740  13.0319992  36.5044990  30.7469997
  12.1279992  36.6694990  30.4809997  13.4609992  37.3574990  30.6809997
  12.9662017  36.6424184  30.7016495  15.6359992  38.0744990  31.0419997
  15.4549992  38.9904990  30.8309997  15.8129992  37.6634990  30.1949997
  15.6351377  38.1443365  30.8987178   2.9419992  36.7614990  28.5069997
   2.9229992  36.3354990  29.3639997   3.7459992  36.4424990  28.0979997
   3.0481393  36.6600297  28.5690155  39.6649992  49.5754990  93.9299997
  39.8089992  48.6734990  93.6439997  38.8919992  49.8614990  93.4419997
  39.5802854  49.4906876  93.8249363   5.0829992  35.4714990  27.1619997
   4.8639992  34.5544990  27.3319997   5.9069992  35.6114990  27.6279997
   5.1644702  35.3650523  27.2482510   7.6199992  35.9414990  28.0109997
   7.8329992  35.0534990  27.7239997   7.6849992  35.9064990  28.9649997
   7.6579149  35.8153338  28.1007351  11.1289992  21.6054990  27.1549997
  10.4539992  20.9754990  27.4109997  11.6929992  21.1214990  26.5519997
  11.1129363  21.4538886  27.1084810  16.2709992  19.7124990  27.2679997
  16.8749992  20.2604990  26.7659997  15.4019992  20.0314990  27.0269997
  16.2360419  19.8305628  27.1667741  17.9979992  20.8514990  25.6009997
  18.6099992  20.3374990  25.0739997  18.3809992  21.7284990  25.6239997
  18.1333867  20.8997613  25.5320888   3.4549992  20.2394990  24.9769997
   2.6779992  20.0044990  24.4699997   3.9859992  19.4424990  24.9859997
   3.4203735  20.0996462  24.9088090   2.2919992  20.0374990  20.7809997
   2.7309992  20.6484990  20.1889997   1.6579992  20.5754990  21.2549997
   2.2663859  20.1939076  20.7640287   8.0349992  20.1654990  24.7899997
   8.9089992  20.5544990  24.7609997   7.8989992  19.9504990  25.7129997
   8.1361953  20.1896654  24.9107599  13.5909992  20.1954990  26.4399997
  13.6679992  20.2914990  25.4899997  13.3159992  19.2884990  26.5679997
  13.5643233  20.0859093  26.3273665  14.9449992  20.2214990  22.1319997
  14.2419992  20.8364990  21.9219997  14.4999992  19.3844990  22.2629997
  14.7886550  20.1924679  22.1209819  46.3199992  49.5444990  93.3629997
  45.9919992  49.8154990  92.5049997  46.4719992  48.6034990  93.2749997
  46.2956970  49.4543694  93.2337953   2.1929992  35.9854990  21.6779997
   1.5079992  35.9474990  21.0109997   2.1959992  36.8974990  21.9659997
   2.0996806  36.1036669  21.6256961   4.1529992  21.9534990  19.2229997
   4.6439992  21.3234990  18.6959997   4.7759992  22.2494990  19.8859997
   4.3045304  21.9072387  19.2404922   9.1789992  22.2464990  21.6799997
   9.3569992  21.5994990  22.3629997   9.1249992  23.0804990  22.1469997
   9.1960678  22.2706615  21.8366283  11.0569992  37.1944990  20.0759997
  11.9229992  37.5614990  19.8979997  10.8099992  36.7554990  19.2619997
  11.1421853  37.1854021  19.9415813  17.7659992  36.7574990  22.7549997
  17.5719992  36.0094990  22.1899997  17.7269992  37.5154990  22.1719997
  17.7341645  36.7575797  22.5988131   4.0109992  36.9054990  18.7029997
   3.7429992  37.1914990  19.5769997   4.7819992  36.3594990  18.8559997
   4.0785926  36.8707790  18.8431188  31.3899992  29.3954990  24.9359997
  31.4789992  30.3394990  24.8029997  30.7509992  29.1204990  24.2779997
  31.3158378  29.4873846  24.8289258  30.3229992  28.6504990  28.3549997
  30.2839992  28.0044990  29.0599997  29.9999992  28.1834990  27.5829997
  30.2740469  28.4990005  28.3472803  22.6909992  28.2644990  29.9479997
  22.7319992  27.6394990  30.6709997  23.3939992  28.8884990  30.1299997
  22.7916223  28.2632318  30.0716164  34.0289992  31.5894990  26.6559997
  33.5879992  30.8694990  27.1069997  34.0159992  32.3104990  27.2859997
  33.9669215  31.5884303  26.8028088  52.0549992  49.4604990  90.7459997
  52.7999992  50.0494990  90.6259997  51.2969992  50.0424990  90.8089997
  52.0545185  49.6197000  90.7380940  23.6149992  32.7144990  28.4829997
  23.2449992  31.9124990  28.1129997  24.5559992  32.5464990  28.5289997
  23.6915984  32.5819649  28.4385586  20.2249992  26.3744990  23.8749997
  19.7769992  27.2204990  23.8569997  19.6639992  25.7954990  23.3599997
  20.0878546  26.4119004  23.8028874  20.9349992  28.5364990  26.0009997
  21.1489992  27.7664990  26.5279997  21.6729992  28.6264990  25.3979997
  21.0640073  28.4433546  25.9915786  31.1399992  36.6934990  26.8679997
  31.7599992  36.0174990  26.5949997  30.9319992  36.4754990  27.7769997
  31.1967679  36.5715032  26.9534518  28.7119992  31.0824990  28.7609997
  29.0159992  30.3964990  28.1659997  29.4339992  31.2014990  29.3789997
  28.8511240  31.0047325  28.7630941  37.3749992  22.6844990  29.6209997
  37.4239992  23.2944990  30.3569997  37.8009992  23.1454990  28.8979997
  37.4392851  22.8303266  29.6240532  31.8529992  25.4764990  29.0879997
  31.9949992  24.5304990  29.1079997  31.7469992  25.6834990  28.1599997
  31.8581051  25.3749706  28.9652249  25.0079992  23.5784990  26.3609997
  25.0509992  24.4384990  25.9419997  24.5499992  23.0254990  25.7269997
  24.9520163  23.6214174  26.2180604  32.7299992  23.7094990  24.7609997
  33.3759992  23.3804990  25.3859997  33.2399992  24.2264990  24.1389997
  32.8874289  23.7344333  24.7623681  21.6279992  25.9754990  27.1229997
  22.2819992  25.4254990  27.5549997  21.6519992  25.7014990  26.2059997
  21.7207199  25.8632179  27.0581650  40.4969992  46.7754990  93.3499997
  40.9049992  45.9184990  93.2289997  40.2369992  46.7894990  94.2709997
  40.5177082  46.6600596  93.4579469  26.7839992  27.5254990  26.3379997
  27.3999992  26.9984990  26.8469997  26.1979992  26.8854990  25.9339997
  26.7890652  27.3668919  26.3530277  37.7669992  24.1624990  31.8569997
  37.0779992  24.8204990  31.7619997  37.7819992  23.9644990  32.7939997
  37.6747756  24.2257614  31.9705795  23.8179992  22.4964990  30.4349997
  23.5989992  23.0264990  29.6679997  23.1499992  22.7224990  31.0819997
  23.6976975  22.5995979  30.4175123  31.1869992  31.9964990  23.9789997
  30.8909992  31.6734990  23.1269997  30.8629992  32.8964990  24.0199997
  31.1027458  32.0739678  23.8680598  26.3869992  30.1714990  30.7219997
  25.6469992  30.7704990  30.8259997  27.1009992  30.7254990  30.4059997
  26.3823146  30.3282611  30.6935150  34.4939992  23.0004990  26.7419997
  34.2789992  22.2344990  27.2749997  35.1499992  23.4724990  27.2549997
  34.5532673  22.9595739  26.8841972  23.4119992  24.3884990  28.3869997
  24.0249992  25.0214990  28.7599997  23.9239992  23.9164990  27.7309997
  23.5651933  24.4113380  28.3493477  24.7939992  32.1364990  31.5089997
  24.7889992  33.0154990  31.1309997  23.9409992  32.0524990  31.9339997
  24.6779199  32.2455901  31.5146942  20.9159992  31.8074990  22.2909997
  20.6439992  32.0364990  21.4019997  20.9609992  32.6444990  22.7519997
  20.8848360  31.9521034  22.2316186  34.5409992  33.4284990  29.0039997
  33.5989992  33.4874990  29.1659997  34.8169992  34.3344990  28.8669997
  34.4495865  33.5590299  29.0076174  45.1549992  47.8914990  78.3679997
  44.6959992  47.4074990  79.0539997  45.4099992  47.2224990  77.7319997
  45.1266178  47.7348511  78.3759785  34.8409992  21.7154990  30.4209997
  34.1049992  22.3254990  30.3839997  35.5249992  22.1304990  29.8949997
  34.8325367  21.8552562  30.3448156  27.8439992  19.8014990  27.8869997
  27.7269992  18.8534990  27.8329997  26.9889992  20.1344990  28.1599997
  27.7123691  19.7165842  27.9165072  32.7929992  35.2094990  25.6289997
  33.2179992  34.5024990  25.1439997  33.1099992  36.0114990  25.2119997
  32.8940266  35.2210201  25.5062461  33.9519992  33.1104990  24.1379997
  33.6949992  32.4204990  23.5259997  34.0229992  32.6674990  24.9829997
  33.9264322  32.9561568  24.1685372  35.6379992  31.6774990  32.6149997
  35.7779992  31.0854990  31.8759997  35.8059992  32.5504990  32.2589997
  35.6798734  31.7144041  32.4656937  30.1109992  28.6394990  22.3879997
  29.3989992  29.1744990  22.0359997  30.8019992  28.6944990  21.7279997
  30.1069704  28.7201663  22.2505797  30.1649992  27.0964990  19.4259997
  30.8659992  27.1194990  20.0779997  30.4669992  26.4684990  18.7699997
  30.3018202  27.0147223  19.4265591  37.4799992  28.0174990  30.6809997
  36.8279992  28.7114990  30.7699997  37.9449992  28.2274990  29.8709997
  37.4535357  28.1409544  30.5837056  33.5169992  28.8484990  23.3389997
  32.7849992  29.0774990  23.9119997  33.9639992  28.1354990  23.7939997
  33.4772753  28.7833984  23.4789698  33.4139992  27.0234990  32.4069997
  33.4939992  27.7864990  32.9789997  32.8129992  27.3024990  31.7169997
  33.3436547  27.1657468  32.3920029  44.4439992  45.7844990  90.7239997
  43.8259992  46.4584990  91.0049997  44.7879992  46.1054990  89.8909997
  44.4058181  45.9203233  90.6498266  25.1619992  29.4794990  25.2219997
  24.8319992  29.1084990  24.4039997  25.7499992  28.8084990  25.5689997
  25.1963182  29.3380648  25.1569898  26.5289992  32.9074990  27.9029997
  26.4339992  32.3284990  27.1469997  27.2579992  32.5364990  28.3989997
  26.6146011  32.7780572  27.8666011  25.5289992  28.2474990  28.8549997
  26.0939992  28.3694990  28.0929997  25.8469992  28.8854990  29.4939997
  25.6493619  28.3504388  28.8370019  31.8379992  33.7514990  29.5889997
  31.5969992  34.4134990  30.2369997  31.6399992  32.9164990  30.0139997
  31.7782662  33.7292704  29.7351008  32.3879992  28.0114990  21.0249997
  32.9669992  28.1614990  21.7709997  32.8019992  28.4814990  20.3009997
  32.5233358  28.0955966  21.0293935  23.3289992  28.8454990  32.8009997
  23.3989992  29.4964990  33.4999997  22.4379992  28.9484990  32.4659997
  23.2181690  28.9484261  32.8513026  30.1139992  34.7474990  24.4599997
  30.5879992  35.0434990  25.2369997  29.5509992  35.4864990  24.2269997
  30.1027890  34.8878047  24.5348084  36.0859992  19.7614990  20.8369997
  35.1859992  19.8994990  21.1329997  36.3379992  20.5924990  20.4359997
  35.9967727  19.8928705  20.8232935  24.1519992  28.5484990  22.8109997
  23.8599992  29.3164990  22.3199997  23.4779992  27.8894990  22.6479997
  24.0208843  28.5644537  22.7217695  37.2759992  34.1274990  19.2139997
  37.3489992  35.0664990  19.3839997  38.1809992  33.8224990  19.1579997
  37.4084170  34.2148294  19.2297045  46.2259992  46.1344990  76.6309997
  46.0459992  45.9794990  75.7029997  47.1759992  46.2424990  76.6749997
  46.3298016  46.1279264  76.5102123  20.2449992  30.9114990  31.6259997
  19.7439992  30.8834990  30.8109997  20.2509992  30.0064990  31.9359997
  20.1771690  30.7852234  31.5562770  19.9959992  33.6924990  28.5099997
  20.9419992  33.5474990  28.4909997  19.8829992  34.4764990  29.0469997
  20.1103578  33.7786708  28.5800300  29.1719992  33.9324990  33.0689997
  29.2589992  34.7584990  33.5439997  28.3079992  33.6024990  33.3179997
  29.0671944  34.0009871  33.1676558  29.5859992  37.7044990  22.8749997
  29.5109992  37.5834990  21.9279997  29.6189992  38.6534990  22.9929997
  29.5802083  37.8162639  22.7614973  23.2399992  36.4934990  24.6559997
  23.3919992  36.1454990  25.5339997  22.3889992  36.1364990  24.3999997
  23.1458344  36.3975891  24.7416851  32.6879992  36.8584990  19.8769997
  33.0629992  36.1144990  19.4059997  32.6919992  36.5884990  20.7949997
  32.7398969  36.7200920  19.9366475  32.3569992  36.7844990  22.6259997
  31.4219992  36.8844990  22.8049997  32.6369992  36.0744990  23.2049997
  32.2669471  36.7022944  22.7286678  35.3449992  25.8514990  34.6729997
  34.9379992  26.3314990  33.9519997  35.3859992  24.9454990  34.3649997
  35.2948403  25.7947989  34.5327253  22.4939992  32.2354990  32.6689997
  22.7099992  31.8734990  33.5289997  21.6389992  31.8604990  32.4599997
  22.4079082  32.1353377  32.7582396  25.1129992  20.7054990  28.6649997
  24.2509992  20.6184990  28.2569997  25.0909992  21.5614990  29.0929997
  24.9920557  20.8093078  28.6670202  49.4639992  48.2554990  94.0019997
  50.4169992  48.3394990  93.9739997  49.3039992  47.5434990  94.6209997
  49.5728161  48.1707198  94.0818689  29.7759992  20.4274990  32.0399997
  30.1959992  20.0124990  32.7929997  28.8429992  20.2484990  32.1569997
  29.7073736  20.3464921  32.1588950  33.8649992  29.0434990  18.6539997
  33.9069992  28.8214990  17.7239997  34.7139992  29.4424990  18.8439997
  33.9855253  29.0670510  18.5523804  29.4379992  22.9194990  19.3249997
  29.1839992  22.9384990  20.2469997  29.1809992  22.0484990  19.0229997
  29.3684508  22.8043292  19.4104786  25.2039992  25.6704990  29.7599997
  24.5619992  25.6304990  30.4689997  25.2409992  26.5974990  29.5219997
  25.1211659  25.7902540  29.8248463  25.2009992  25.8914990  24.6719997
  24.3079992  25.5514990  24.6129997  25.6519992  25.5144990  23.9159997
  25.1397185  25.7940220  24.5617698  30.7369992  26.3074990  23.4889997
  30.3279992  27.1224990  23.1969997  31.4569992  26.1674990  22.8749997
  30.7784439  26.4000383  23.3660098  31.7409992  25.7534990  26.3029997
  31.5459992  26.3594990  25.5879997  31.9229992  24.9204990  25.8689997
  31.7389195  25.7237936  26.1464079  22.9539992  25.9914990  31.6269997
  22.9159992  26.3914990  32.4959997  22.4629992  25.1744990  31.7169997
  22.8824374  25.9358228  31.7580980  26.3199992  23.3654990  18.4259997
  25.8889992  22.9204990  19.1549997  25.6019992  23.7364990  17.9129997
  26.1639176  23.3547063  18.4564913  19.5619992  23.1074990  25.4779997
  20.1929992  23.0784990  26.1969997  20.0119992  22.6824990  24.7469997
  19.7091082  23.0461269  25.4776307  20.8359992  23.8534990  20.9019997
  21.3109992  24.4444990  20.3169997  20.1189992  24.3834990  21.2489997
  20.8040406  24.0061011  20.8688495  31.0049992  27.3914990  30.9739997
  31.3289992  26.7604990  30.3309997  30.5649992  26.8574990  31.6349997
  30.9898707  27.2328261  30.9753195  27.7829992  23.3194990  25.7579997
  26.8719992  23.3764990  26.0469997  28.2879992  23.2594990  26.5689997
  27.7266873  23.3191838  25.9071190  22.6109992  24.9484990  24.5849997
  21.7219992  25.0474990  24.2449997  22.9069992  24.1064990  24.2389997
  22.5294001  24.8482473  24.4917318  26.2639992  24.9484990  22.2419997
  27.1959992  25.0774990  22.4199997  26.0489992  25.6174990  21.5919997
  26.3624472  25.0565817  22.1784873  32.1879992  22.5544990  29.0219997
  31.5109992  22.6854990  29.6859997  31.7019992  22.3994990  28.2119997
  32.0297265  22.5514665  29.0033380  24.9379992  26.1424990  19.8079997
  24.3959992  25.7634990  19.1169997  25.7719992  26.3374990  19.3799997
  24.9764390  26.1169091  19.6554374  23.0729992  30.6994990  34.9069997
  23.8049992  30.9544990  35.4689997  22.2929992  30.9044990  35.4229997
  23.0676526  30.7620438  35.0535168  29.1029992  26.1064990  27.6449997
  29.6669992  25.5604990  27.0979997  28.9549992  25.5854990  28.4339997
  29.1603037  25.9611798  27.6767212  24.1049992  22.2434990  24.0639997
  23.7869992  21.3404990  24.0279997  24.8859992  22.2454990  23.5109997
  24.1671079  22.1202240  23.9842908  44.7839992  43.1394990  91.8069997
  44.9339992  42.4104990  91.2039997  44.7859992  43.9164990  91.2479997
  44.8047664  43.1448971  91.6490525  27.7289992  24.4954990  30.0589997
  26.8939992  24.9494990  30.1699997  28.2529992  24.7714990  30.8109997
  27.6856072  24.5948960  30.1758118  28.2729992  30.7084990  21.7439997
  27.5279992  30.2004990  21.4219997  28.1389992  30.7574990  22.6899997
  28.1529334  30.6456144  21.8278892  35.4229992  29.8414990  30.5309997
  36.0649992  30.2974990  29.9869997  34.5929992  29.9544990  30.0679997
  35.3986536  29.9191813  30.3939579  32.1709992  23.5224990  19.9429997
  31.2319992  23.6334990  19.7919997  32.4679992  24.3784990  20.2499997
  32.0826136  23.6534977  19.9638568  29.7929992  30.8924990  32.9809997
  29.4469992  30.5104990  33.7879997  29.5929992  31.8254990  33.0519997
  29.7185987  30.9664013  33.1010443  32.8889992  25.3894990  21.6039997
  33.7809992  25.2514990  21.9229997  32.9459992  26.1804990  21.0669997
  33.0187380  25.4774777  21.5750981  23.3979992  30.0034990  27.5139997
  24.1429992  30.0004990  26.9119997  23.4759992  29.1794990  27.9949997
  23.5103365  29.8917395  27.4967412  30.3989992  32.1664990  20.7689997
  30.1039992  32.9934990  21.1509997  29.6959992  31.5474990  20.9659997
  30.2636379  32.1959182  20.8478636  20.4059992  28.4634990  32.8289997
  20.6289992  28.0454990  33.6599997  19.8039992  27.8514990  32.4059997
  20.3551513  28.3234617  32.8856722  32.0429992  33.3544990  32.9309997
  31.1419992  33.5374990  32.6639997  32.0769992  33.6134990  33.8519997
  31.9243861  33.4145245  33.0189517  45.1959992  41.5084990  89.2989997
  45.7319992  41.9604990  88.6469997  44.3439992  41.4004990  88.8769997
  45.1541648  41.5557883  89.1526395  37.7739992  25.5984990  21.2989997
  37.2199992  25.2024990  20.6259997  37.8749992  26.5094990  21.0209997
  37.7118589  25.6673904  21.1693839  37.7369992  31.3994990  34.1359997
  36.8859992  31.6374990  33.7679997  38.3279992  31.3824990  33.3819997
  37.7003831  31.4297623  33.9838448  36.0689992  34.3844990  21.7639997
  35.6969992  33.5594990  22.0729997  36.3469992  34.2014990  20.8659997
  36.0555807  34.2467031  21.6850063  33.2299992  29.1924990  28.7849997
  32.3019992  28.9614990  28.7579997  33.6809992  28.4154990  28.4549997
  33.1638165  29.0557785  28.7366772  25.7729992  33.5214990  24.9179997
  26.2999992  34.2944990  24.7179997  24.8929992  33.7454990  24.6159997
  25.7262121  33.6577344  24.8497460  21.5279992  28.3834990  19.5049997
  22.1439992  29.0104990  19.8849997  20.6659992  28.6994990  19.7769997
  21.4957678  28.5119423  19.5937192  27.1999992  31.1844990  24.4939997
  26.9589992  32.1094990  24.5359997  26.4599992  30.7254990  24.8909997
  27.0669463  31.2490969  24.5534279  27.7149992  35.3334990  30.8089997
  28.0779992  36.1874990  30.5759997  28.2469992  35.0414990  31.5499997
  27.8365141  35.4108907  30.8772079  25.8829992  36.2054990  24.0399997
  24.9339992  36.3114990  24.0909997  26.2349992  37.0264990  24.3839997
  25.8005647  36.3310029  24.0934882  31.2589992  31.4324990  30.5099997
  30.8329992  31.2044990  31.3359997  31.8399992  30.6934990  30.3279997
  31.2792088  31.3014393  30.5984454  46.7779992  46.9484990  89.5389997
  47.5289992  46.7924990  88.9659997  46.4389992  47.8004990  89.2629997
  46.8349052  47.0422745  89.4233469  33.4619992  32.3614990  19.5839997
  33.8149992  31.9814990  20.3879997  32.5129992  32.2674990  19.6709997
  33.3820956  32.2967867  19.7058005  33.9179992  35.9844990  32.9789997
  33.3159992  35.4284990  32.4839997  34.1989992  36.6514990  32.3529997
  33.8735757  35.9985755  32.8265657  37.9649992  36.8404990  19.7849997
  38.7089992  37.4264990  19.6449997  37.2709992  37.4094990  20.1179997
  37.9729809  36.9975830  19.8108572  22.0399992  23.2174990  32.3869997
  21.1469992  23.5554990  32.3189997  21.9409992  22.3614990  32.8049997
  21.9044752  23.1480986  32.4341644  34.3279992  31.0334990  21.8109997
  34.0509992  30.3054990  22.3669997  35.2549992  31.1524990  22.0159997
  34.4154419  30.9499436  21.9148264  21.6909992  35.0214990  30.8219997
  21.9079992  34.0894990  30.7909997  21.9379992  35.2964990  31.7049997
  21.7540948  34.9310976  30.9371268  27.5529992  33.4734990  18.0309997
  27.7919992  32.7244990  17.4839997  27.2839992  33.0854990  18.8639997
  27.5493233  33.3186865  18.0687791  26.4899992  33.0434990  20.4869997
  26.6369992  32.5234990  21.2769997  26.4869992  33.9504990  20.7939997
  26.5097102  33.0948964  20.6365907  22.9429992  30.2954990  20.9979997
  22.2569992  30.6484990  21.5649997  23.4659992  31.0584990  20.7509997
  22.9198402  30.4468912  21.0421783  30.7739992  22.9584990  31.2769997
  31.4729992  23.0324990  31.9269997  30.3939992  22.0934990  31.4309997
  30.8182662  22.8517050  31.3867412  51.1939992  44.7634990  94.5669997
  51.3859992  43.8324990  94.4559997  52.0509992  45.1884990  94.5569997
  51.3362320  44.6934743  94.5504433  31.5589992  22.6104990  22.3739997
  31.7789992  23.0814990  21.5699997  32.1169992  23.0044990  23.0439997
  31.6646044  22.7282946  22.3545207  29.2279992  34.7404990  21.2369997
  28.4109992  35.2374990  21.2889997  29.7569992  35.2164990  20.5959997
  29.1878125  34.8727000  21.1575289  28.7589992  24.3384990  23.2089997
  29.5709992  24.8424990  23.2549997  28.5139992  24.1934990  24.1229997
  28.8371091  24.3879366  23.3388552  29.2949992  25.3244990  32.3929997
  29.4139992  25.8984990  33.1499997  29.9499992  24.6364990  32.5079997
  29.3998684  25.3100205  32.5121656  29.6429992  21.4194990  24.1469997
  29.2959992  22.0364990  24.7909997  30.3009992  21.9204990  23.6649997
  29.6844430  21.5716860  24.1700046  26.5659992  35.7844990  21.2179997
  26.7269992  36.5844990  20.7179997  26.3689992  36.0914990  22.1029997
  26.5613906  35.9353690  21.2692316  25.2999992  22.4824990  20.8339997
  25.2169992  23.3704990  21.1809997  26.1899992  22.2174990  21.0659997
  25.4089331  22.5681177  20.9128067  35.4989992  23.2314990  33.2279997
  34.5829992  23.4934990  33.1409997  35.8349992  23.2284990  32.3319997
  35.4188499  23.2670174  33.0948748  34.1009992  26.9814990  27.3239997
  33.3039992  26.5664990  26.9959997  34.5459992  26.2914990  27.8149997
  34.0520367  26.8313372  27.3454897  23.5589992  32.9094990  19.8939997
  24.1509992  33.6094990  20.1709997  24.0179992  32.4764990  19.1749997
  23.7021652  32.9467686  19.8346515  52.5099992  47.5524990  92.6449997
  52.2289992  48.2614990  92.0669997  53.4529992  47.4794990  92.4939997
  52.5989272  47.6396704  92.5454976  21.8749992  25.5744990  19.0099997
  21.8299992  26.5134990  19.1889997  20.9869992  25.3384990  18.7409997
  21.7488166  25.6711698  18.9981507  35.1879992  36.2374990  28.9459997
  35.0319992  36.9164990  28.2889997  36.1199992  36.3094990  29.1489997
  35.2927328  36.3401586  28.8835529  22.6829992  20.3554990  27.6829997
  22.4539992  20.4144990  26.7559997  22.2399992  19.5644990  27.9899997
  22.5917387  20.2566412  27.5975223  21.6129992  34.2964990  23.8439997
  20.7809992  34.7684990  23.8709997  22.1589992  34.8064990  23.2449997
  21.5728710  34.4300317  23.7667570  20.9019992  36.9084990  35.1739997
  21.4419992  36.6924990  35.9339997  20.4199992  36.1034990  34.9839997
  20.9108485  36.7700463  35.2524870  29.5909992  35.3364990  18.1689997
  28.9469992  34.7054990  18.4909997  30.3529992  34.8054990  17.9379997
  29.6058708  35.1783171  18.1818462  32.0759992  34.2084990  35.5229997
  31.7249992  33.3514990  35.7659997  32.8019992  34.3504990  36.1299997
  32.1261590  34.1105189  35.6382889  34.1949992  35.1534990  18.4029997
  34.4779992  34.3584990  18.8559997  34.9349992  35.3864990  17.8419997
  34.3337295  35.0762349  18.3891469  25.1499992  31.0624990  18.2609997
  25.2139992  30.2684990  18.7909997  25.8029992  30.9444990  17.5709997
  25.2470483  30.9377496  18.2403407  30.5019992  32.1094990  17.9969997
  30.2339992  32.2904990  18.8969997  30.2959992  31.1844990  17.8649997
  30.4373443  32.0091873  18.1026643  43.2619992  44.3374990  93.7179997
  42.4949992  43.8044990  93.5079997  43.9409992  44.0274990  93.1189997
  43.2488292  44.2226360  93.6082693  21.6409992  27.9194990  35.5479997
  22.0489992  27.0624990  35.4269997  21.3809992  27.9334990  36.4689997
  21.6617082  27.8040596  35.6559469  26.2989992  29.0354990  20.5669997
  25.8399992  28.5514990  21.2519997  26.5539992  28.3664990  19.9309997
  26.2705997  28.8788491  20.5748734  27.3699992  27.2784990  18.8289997
  27.1899992  27.1234990  17.9019997  28.3199992  27.3864990  18.8739997
  27.4737804  27.2718821  18.7081966  36.7599992  29.6324990  18.2749997
  36.4869992  29.2084990  17.4619997  36.7999992  30.5644990  18.0579997
  36.7280201  29.7003523  18.1343548  26.3399992  22.6524990  31.4979997
  26.8759992  23.1044990  30.8459997  25.4879992  22.5444990  31.0749997
  26.2981795  22.6997444  31.3516211  27.9219992  28.0924990  31.7369997
  28.6729992  27.9364990  31.1639997  27.5829992  28.9444990  31.4619997
  27.9789587  28.1863149  31.6214060  27.1459992  20.1094990  31.9289997
  27.0479992  21.0554990  31.8239997  26.4029992  19.7364990  31.4529997
  27.0322123  20.1886811  31.8503204  22.5869992  23.4014990  35.6209997
  22.7979992  22.6954990  35.0109997  22.4749992  22.9644990  36.4649997
  22.6007668  23.2456619  35.6515445  27.3679992  19.4034990  34.5999997
  28.0789992  18.7634990  34.5859997  27.2669992  19.6694990  33.6869997
  27.4516858  19.3518591  34.4745501  27.2679992  37.9684990  19.8299997
  28.2009992  38.1264990  19.9739997  27.0029992  38.6444990  19.2049997
  27.3599846  38.0814567  19.7652930  46.0019992  38.9654990  89.7309997
  45.9039992  39.9114990  89.6249997  45.2589992  38.5924990  89.2549997
  45.8882363  39.0445987  89.6522029  20.8359992  32.6054990  19.3129997
  21.7499992  32.6844990  19.5859997  20.8429992  31.9184990  18.6469997
  20.9620624  32.5234074  19.2603045  19.4849992  37.9984990  24.3899997
  18.8379992  37.5364990  23.8579997  19.8399992  37.3264990  24.9729997
  19.4443741  37.8444785  24.3959157  20.3549992  36.0784990  26.1949997
  20.0209992  35.1984990  26.3669997  20.5769992  36.4244990  27.0599997
  20.3392565  36.0047410  26.3354263  37.9039992  36.8884990  29.1759997
  37.8819992  37.0734990  30.1139997  38.5939992  37.4564990  28.8349997
  37.9943383  36.9907104  29.2584580  37.4669992  36.4554990  32.0969997
  36.9799992  35.7194990  31.7259997  38.0159992  36.0614990  32.7749997
  37.4746101  36.3016267  32.1379034  37.2189992  30.5014990  22.2499997
  38.0689992  30.9224990  22.3769997  37.2239992  29.7614990  22.8569997
  37.3361143  30.4591106  22.3494732  37.6129992  28.5554990  24.0729997
  36.8869992  28.0754990  24.4709997  38.1939992  28.7604990  24.8049997
  37.5922504  28.5175592  24.2264199  37.3719992  31.3404990  29.0209997
  38.2059992  30.9624990  28.7399997  37.4839992  32.2834990  28.9019997
  37.5011917  31.4162954  28.9664844  35.8579992  34.2184990  31.3279997
  35.2109992  34.5434990  31.9529997  35.3409992  33.7774990  30.6539997
  35.6994112  34.2034133  31.3225272  37.8809992  28.4564990  20.4639997
  37.3599992  28.8124990  19.7459997  37.8479992  29.1314990  21.1429997
  37.8050955  28.5965023  20.4572634  47.2659992  43.2864990  93.2939997
  47.0299992  43.0674990  94.1959997  46.4829992  43.0794990  92.7849997
  47.1278444  43.2285688  93.3484518  36.2299992  25.6954990  19.0149997
  36.3269992  26.3624990  18.3349997  36.0899992  24.8804990  18.5339997
  36.2243407  25.6765670  18.8568312  35.3999992  27.0764990  24.6359997
  35.2499992  26.1314990  24.6159997  35.0459992  27.3574990  25.4799997
  35.3316351  26.9851656  24.7473202  20.4349992  29.1544990  28.6469997
  20.6189992  29.0724990  27.7109997  21.2839992  29.0304990  29.0699997
  20.5750132  29.1265066  28.5761460  37.7529992  26.9494990  34.9599997
  36.8889992  26.5704990  34.7939997  38.3569992  26.2104990  34.8849997
  37.7165394  26.7978378  34.9271778  35.4779992  23.1034990  18.1329997
  36.0879992  22.7324990  18.7699997  34.6409992  22.6824990  18.3289997
  35.4483704  22.9957942  18.2467077  35.1099992  24.6584990  23.0989997
  35.3899992  23.7514990  23.2229997  35.8689992  25.0924990  22.7099997
  35.2509258  24.5930935  23.0633691  35.7219992  25.2404990  28.5349997
  36.6549992  25.4524990  28.4999997  35.4869992  25.3414990  29.4569997
  35.8179517  25.2831844  28.6549113  35.7509992  25.9774990  31.3109997
  34.9079992  26.2454990  31.6759997  36.1939992  26.7994990  31.0999997
  35.6954035  26.1253351  31.3324770  20.0319992  24.4244990  34.7869997
  20.9519992  24.3024990  35.0239997  19.5829992  23.6744990  35.1769997
  20.0970500  24.3064576  34.8721016  35.7239992  21.9214990  23.1469997
  35.9059992  21.4724990  23.9719997  35.1239992  21.3374990  22.6829997
  35.6678187  21.7810563  23.1972721  49.9819992  42.4144990  92.3699997
  49.0339992  42.4464990  92.5019997  50.2939992  41.7884990  93.0239997
  49.8945293  42.3342934  92.4764130  21.2539992  22.7374990  27.6789997
  21.6989992  21.9454990  27.9809997  21.7199992  23.4534990  28.1089997
  21.3779718  22.7259546  27.7785247  19.5579992  25.7364990  28.7479997
  20.0499992  25.5154990  27.9569997  19.9199992  26.5764990  29.0289997
  19.6742923  25.8198480  28.6777389  37.5539992  22.0664990  35.0129997
  36.6369992  22.3374990  34.9769997  37.6769992  21.5314990  34.2289997
  37.4450828  22.0312711  34.9020767  37.5899992  21.9894990  19.6749997
  38.0029992  21.2684990  19.1999997  38.2719992  22.6584990  19.7329997
  37.7386060  21.9813741  19.6179233  19.8709992  21.9944990  22.8019997
  18.9459992  22.2024990  22.6729997  20.3249992  22.4784990  22.1119997
  19.8056298  22.0884311  22.6910433  34.6419992  36.9784990  24.7479997
  35.2939992  36.6304990  24.1399997  35.1529992  37.4664990  25.3939997
  34.8002872  36.9968248  24.7520964  19.8349992  20.7324990  31.1459997
  19.1699992  20.4864990  31.7889997  19.3919992  21.3544990  30.5689997
  19.6841168  20.7829225  31.1559830  22.0269992  33.9074990  35.2909997
  21.2059992  34.0824990  34.8299997  21.7749992  33.8344990  36.2109997
  21.8805594  33.9215728  35.3523593  24.9809992  34.8814990  31.5489997
  24.5559992  35.6914990  31.2669997  25.8849992  34.9674990  31.2469997
  25.0450706  35.0039557  31.4695836  29.2919992  36.2804990  34.5089997
  29.4769992  35.9474990  35.3869997  30.1389992  36.5904990  34.1869997
  29.4317291  36.2768214  34.5856140  51.6159992  41.0484990  94.3749997
  51.5189992  40.0964990  94.3689997  51.2939992  41.3164990  95.2359997
  51.5592229  40.9544706  94.4905108  36.5549992  20.1564990  32.8319997
  35.7419992  20.4814990  32.4449997  36.7879992  19.3954990  32.2989997
  36.4751347  20.0981891  32.7069824  22.3829992  38.1384990  31.5969997
  21.6619992  38.5784990  31.1459997  22.0169992  37.8874990  32.4449997
  22.2349632  38.1647235  31.6499649  24.8499992  37.7384990  30.6259997
  23.9849992  37.8104990  31.0299997  24.7949992  38.2854990  29.8429997
  24.7242289  37.8223242  30.5753749  29.5609992  37.6264990  29.8019997
  29.1039992  38.1554990  29.1479997  29.7229992  38.2294990  30.5269997
  29.5203919  37.7803990  29.8105740  31.8879992  36.5044990  30.7469997
  30.9839992  36.6694990  30.4809997  32.3169992  37.3574990  30.6809997
  31.8222017  36.6424184  30.7016495  34.4919992  38.0744990  31.0419997
  34.3109992  38.9904990  30.8309997  34.6689992  37.6634990  30.1949997
  34.4911377  38.1443365  30.8987178  21.7979992  36.7614990  28.5069997
  21.7789992  36.3354990  29.3639997  22.6019992  36.4424990  28.0979997
  21.9041393  36.6600297  28.5690155  23.9389992  35.4714990  27.1619997
  23.7199992  34.5544990  27.3319997  24.7629992  35.6114990  27.6279997
  24.0204702  35.3650523  27.2482510  26.4759992  35.9414990  28.0109997
  26.6889992  35.0534990  27.7239997  26.5409992  35.9064990  28.9649997
  26.5139149  35.8153338  28.1007351  29.9849992  21.6054990  27.1549997
  29.3099992  20.9754990  27.4109997  30.5489992  21.1214990  26.5519997
  29.9689363  21.4538886  27.1084810  41.4429992  42.2574990  93.4229997
  41.6539992  41.5514990  92.8119997  41.3309992  41.8204990  94.2669997
  41.4567674  42.1016376  93.4534199  35.1269992  19.7124990  27.2679997
  35.7309992  20.2604990  26.7659997  34.2579992  20.0314990  27.0269997
  35.0920419  19.8305628  27.1667741  36.8539992  20.8514990  25.6009997
  37.4659992  20.3374990  25.0739997  37.2369992  21.7284990  25.6239997
  36.9893867  20.8997613  25.5320888  22.3109992  20.2394990  24.9769997
  21.5339992  20.0044990  24.4699997  22.8419992  19.4424990  24.9859997
  22.2763735  20.0996462  24.9088090  21.1479992  20.0374990  20.7809997
  21.5869992  20.6484990  20.1889997  20.5139992  20.5754990  21.2549997
  21.1223859  20.1939076  20.7640287  26.8909992  20.1654990  24.7899997
  27.7649992  20.5544990  24.7609997  26.7549992  19.9504990  25.7129997
  26.9921953  20.1896654  24.9107599  32.4469992  20.1954990  26.4399997
  32.5239992  20.2914990  25.4899997  32.1719992  19.2884990  26.5679997
  32.4203233  20.0859093  26.3273665  33.8009992  20.2214990  22.1319997
  33.0979992  20.8364990  21.9219997  33.3559992  19.3844990  22.2629997
  33.6446550  20.1924679  22.1209819  21.0489992  35.9854990  21.6779997
  20.3639992  35.9474990  21.0109997  21.0519992  36.8974990  21.9659997
  20.9556806  36.1036669  21.6256961  23.0089992  21.9534990  19.2229997
  23.4999992  21.3234990  18.6959997  23.6319992  22.2494990  19.8859997
  23.1605304  21.9072387  19.2404922  28.0349992  22.2464990  21.6799997
  28.2129992  21.5994990  22.3629997  27.9809992  23.0804990  22.1469997
  28.0520678  22.2706615  21.8366283  46.2239992  38.2594990  92.4019997
  46.9349992  37.6194990  92.3879997  46.1229992  38.5254990  91.4879997
  46.3076732  38.2078451  92.2765475  29.9129992  37.1944990  20.0759997
  30.7789992  37.5614990  19.8979997  29.6659992  36.7554990  19.2619997
  29.9981853  37.1854021  19.9415813  36.6219992  36.7574990  22.7549997
  36.4279992  36.0094990  22.1899997  36.5829992  37.5154990  22.1719997
  36.5901645  36.7575797  22.5988131  22.8669992  36.9054990  18.7029997
  22.5989992  37.1914990  19.5769997  23.6379992  36.3594990  18.8559997
  22.9345926  36.8707790  18.8431188  35.8399992  35.5084990  34.9049997
  35.0579992  35.3224990  34.3849997  35.7679992  36.4384990  35.1219997
  35.7232975  35.6086973  34.8631822  50.2459992  29.3954990  24.9359997
  50.3349992  30.3394990  24.8029997  49.6069992  29.1204990  24.2779997
  50.1718378  29.4873846  24.8289258  49.1789992  28.6504990  28.3549997
  49.1399992  28.0044990  29.0599997  48.8559992  28.1834990  27.5829997
  49.1300469  28.4990005  28.3472803  41.5469992  28.2644990  29.9479997
  41.5879992  27.6394990  30.6709997  42.2499992  28.8884990  30.1299997
  41.6476223  28.2632318  30.0716164  52.8849992  31.5894990  26.6559997
  52.4439992  30.8694990  27.1069997  52.8719992  32.3104990  27.2859997
  52.8229215  31.5884303  26.8028088  42.4709992  32.7144990  28.4829997
  42.1009992  31.9124990  28.1129997  43.4119992  32.5464990  28.5289997
  42.5475984  32.5819649  28.4385586  39.0809992  26.3744990  23.8749997
  38.6329992  27.2204990  23.8569997  38.5199992  25.7954990  23.3599997
  38.9438546  26.4119004  23.8028874  46.5769992  39.9414990  94.4559997
  46.4459992  39.4664990  93.6349997  45.9779992  40.6864990  94.3999997
  46.4781524  39.9771968  94.3361553  39.7909992  28.5364990  26.0009997
  40.0049992  27.7664990  26.5279997  40.5289992  28.6264990  25.3979997
  39.9200073  28.4433546  25.9915786  49.9959992  36.6934990  26.8679997
  50.6159992  36.0174990  26.5949997  49.7879992  36.4754990  27.7769997
  50.0527679  36.5715032  26.9534518  47.5679992  31.0824990  28.7609997
  47.8719992  30.3964990  28.1659997  48.2899992  31.2014990  29.3789997
  47.7071240  31.0047325  28.7630941  56.2309992  22.6844990  29.6209997
  56.2799992  23.2944990  30.3569997  56.6569992  23.1454990  28.8979997
  56.2952851  22.8303266  29.6240532  50.7089992  25.4764990  29.0879997
  50.8509992  24.5304990  29.1079997  50.6029992  25.6834990  28.1599997
  50.7141051  25.3749706  28.9652249  43.8639992  23.5784990  26.3609997
  43.9069992  24.4384990  25.9419997  43.4059992  23.0254990  25.7269997
  43.8080163  23.6214174  26.2180604  51.5859992  23.7094990  24.7609997
  52.2319992  23.3804990  25.3859997  52.0959992  24.2264990  24.1389997
  51.7434289  23.7344333  24.7623681  40.4839992  25.9754990  27.1229997
  41.1379992  25.4254990  27.5549997  40.5079992  25.7014990  26.2059997
  40.5767199  25.8632179  27.0581650  45.6399992  27.5254990  26.3379997
  46.2559992  26.9984990  26.8469997  45.0539992  26.8854990  25.9339997
  45.6450652  27.3668919  26.3530277  56.6229992  24.1624990  31.8569997
  55.9339992  24.8204990  31.7619997  56.6379992  23.9644990  32.7939997
  56.5307756  24.2257614  31.9705795  38.3409992  56.8544990  82.1919997
  37.6939992  56.3924990  81.6589997  38.6959992  56.1824990  82.7749997
  38.3003861  56.7004707  82.1977939  42.6739992  22.4964990  30.4349997
  42.4549992  23.0264990  29.6679997  42.0059992  22.7224990  31.0819997
  42.5536975  22.5995979  30.4175123  50.0429992  31.9964990  23.9789997
  49.7469992  31.6734990  23.1269997  49.7189992  32.8964990  24.0199997
  49.9587458  32.0739678  23.8680598  45.2429992  30.1714990  30.7219997
  44.5029992  30.7704990  30.8259997  45.9569992  30.7254990  30.4059997
  45.2383146  30.3282611  30.6935150  53.3499992  23.0004990  26.7419997
  53.1349992  22.2344990  27.2749997  54.0059992  23.4724990  27.2549997
  53.4092673  22.9595739  26.8841972  42.2679992  24.3884990  28.3869997
  42.8809992  25.0214990  28.7599997  42.7799992  23.9164990  27.7309997
  42.4211933  24.4113380  28.3493477  43.6499992  32.1364990  31.5089997
  43.6449992  33.0154990  31.1309997  42.7969992  32.0524990  31.9339997
  43.5339199  32.2455901  31.5146942  39.7719992  31.8074990  22.2909997
  39.4999992  32.0364990  21.4019997  39.8169992  32.6444990  22.7519997
  39.7408360  31.9521034  22.2316186  53.3969992  33.4284990  29.0039997
  52.4549992  33.4874990  29.1659997  53.6729992  34.3344990  28.8669997
  53.3055865  33.5590299  29.0076174  53.6969992  21.7154990  30.4209997
  52.9609992  22.3254990  30.3839997  54.3809992  22.1304990  29.8949997
  53.6885367  21.8552562  30.3448156  46.6999992  19.8014990  27.8869997
  46.5829992  18.8534990  27.8329997  45.8449992  20.1344990  28.1599997
  46.5683691  19.7165842  27.9165072  39.2109992  54.9344990  83.9969997
  38.8769992  54.0544990  84.1689997  39.4329992  55.2804990  84.8609997
  39.1952677  54.8607366  84.1374252  51.6489992  35.2094990  25.6289997
  52.0739992  34.5024990  25.1439997  51.9659992  36.0114990  25.2119997
  51.7500266  35.2210201  25.5062461  52.8079992  33.1104990  24.1379997
  52.5509992  32.4204990  23.5259997  52.8789992  32.6674990  24.9829997
  52.7824322  32.9561568  24.1685372  54.4939992  31.6774990  32.6149997
  54.6339992  31.0854990  31.8759997  54.6619992  32.5504990  32.2589997
  54.5358734  31.7144041  32.4656937  48.9669992  28.6394990  22.3879997
  48.2549992  29.1744990  22.0359997  49.6579992  28.6944990  21.7279997
  48.9629704  28.7201663  22.2505797  49.0209992  27.0964990  19.4259997
  49.7219992  27.1194990  20.0779997  49.3229992  26.4684990  18.7699997
  49.1578202  27.0147223  19.4265591  56.3359992  28.0174990  30.6809997
  55.6839992  28.7114990  30.7699997  56.8009992  28.2274990  29.8709997
  56.3095357  28.1409544  30.5837056  52.3729992  28.8484990  23.3389997
  51.6409992  29.0774990  23.9119997  52.8199992  28.1354990  23.7939997
  52.3332753  28.7833984  23.4789698  52.2699992  27.0234990  32.4069997
  52.3499992  27.7864990  32.9789997  51.6689992  27.3024990  31.7169997
  52.1996547  27.1657468  32.3920029  44.0179992  29.4794990  25.2219997
  43.6879992  29.1084990  24.4039997  44.6059992  28.8084990  25.5689997
  44.0523182  29.3380648  25.1569898  45.3849992  32.9074990  27.9029997
  45.2899992  32.3284990  27.1469997  46.1139992  32.5364990  28.3989997
  45.4706011  32.7780572  27.8666011  57.6104322  55.9294990  87.9159997
  56.7379992  55.9294990  87.9159997  57.8155782  56.7774700  87.9159997
  57.5118592  56.0547630  87.9159997  44.3849992  28.2474990  28.8549997
  44.9499992  28.3694990  28.0929997  44.7029992  28.8854990  29.4939997
  44.5053619  28.3504388  28.8370019  50.6939992  33.7514990  29.5889997
  50.4529992  34.4134990  30.2369997  50.4959992  32.9164990  30.0139997
  50.6342662  33.7292704  29.7351008  45.2649992  32.6474990  33.5729997
  44.9529992  33.4294990  34.0279997  44.6149992  32.4944990  32.8869997
  45.1344858  32.7337882  33.5425344  51.2439992  28.0114990  21.0249997
  51.8229992  28.1614990  21.7709997  51.6579992  28.4814990  20.3009997
  51.3793358  28.0955966  21.0293935  42.1849992  28.8454990  32.8009997
  42.2549992  29.4964990  33.4999997  41.2939992  28.9484990  32.4659997
  42.0741690  28.9484261  32.8513026  48.9699992  34.7474990  24.4599997
  49.4439992  35.0434990  25.2369997  48.4069992  35.4864990  24.2269997
  48.9587890  34.8878047  24.5348084  54.9419992  19.7614990  20.8369997
  54.0419992  19.8994990  21.1329997  55.1939992  20.5924990  20.4359997
  54.8527727  19.8928705  20.8232935  43.0079992  28.5484990  22.8109997
  42.7159992  29.3164990  22.3199997  42.3339992  27.8894990  22.6479997
  42.8768843  28.5644537  22.7217695  56.1319992  34.1274990  19.2139997
  56.2049992  35.0664990  19.3839997  57.0369992  33.8224990  19.1579997
  56.2644170  34.2148294  19.2297045  39.1009992  30.9114990  31.6259997
  38.5999992  30.8834990  30.8109997  39.1069992  30.0064990  31.9359997
  39.0331690  30.7852234  31.5562770  56.3229992  55.3114990  89.8989997
  55.8359992  54.5754990  89.5279997  56.8719992  54.9174990  90.5769997
  56.3306101  55.1576267  89.9399034  38.8519992  33.6924990  28.5099997
  39.7979992  33.5474990  28.4909997  38.7389992  34.4764990  29.0469997
  38.9663578  33.7786708  28.5800300  48.0279992  33.9324990  33.0689997
  48.1149992  34.7584990  33.5439997  47.1639992  33.6024990  33.3179997
  47.9231944  34.0009871  33.1676558  48.4419992  37.7044990  22.8749997
  48.3669992  37.5834990  21.9279997  48.4749992  38.6534990  22.9929997
  48.4362083  37.8162639  22.7614973  42.0959992  36.4934990  24.6559997
  42.2479992  36.1454990  25.5339997  41.2449992  36.1364990  24.3999997
  42.0018344  36.3975891  24.7416851  51.5439992  36.8584990  19.8769997
  51.9189992  36.1144990  19.4059997  51.5479992  36.5884990  20.7949997
  51.5958969  36.7200920  19.9366475  51.2129992  36.7844990  22.6259997
  50.2779992  36.8844990  22.8049997  51.4929992  36.0744990  23.2049997
  51.1229471  36.7022944  22.7286678  41.3499992  32.2354990  32.6689997
  41.5659992  31.8734990  33.5289997  40.4949992  31.8604990  32.4599997
  41.2639082  32.1353377  32.7582396  43.9689992  20.7054990  28.6649997
  43.1069992  20.6184990  28.2569997  43.9469992  21.5614990  29.0929997
  43.8480557  20.8093078  28.6670202  48.6319992  20.4274990  32.0399997
  49.0519992  20.0124990  32.7929997  47.6989992  20.2484990  32.1569997
  48.5633736  20.3464921  32.1588950  51.9579992  24.1824990  32.8929997
  51.4439992  24.0574990  33.6909997  51.8029992  25.0954990  32.6489997
  51.8667802  24.2887433  32.9691504  54.7739992  51.1014990  94.5369997
  53.9079992  50.9964990  94.9309997  55.1499992  51.8594990  94.9839997
  54.7063768  51.1896151  94.6513258  52.7209992  29.0434990  18.6539997
  52.7629992  28.8214990  17.7239997  53.5699992  29.4424990  18.8439997
  52.8415253  29.0670510  18.5523804  48.2939992  22.9194990  19.3249997
  48.0399992  22.9384990  20.2469997  48.0369992  22.0484990  19.0229997
  48.2244508  22.8043292  19.4104786  44.0599992  25.6704990  29.7599997
  43.4179992  25.6304990  30.4689997  44.0969992  26.5974990  29.5219997
  43.9771659  25.7902540  29.8248463  44.0569992  25.8914990  24.6719997
  43.1639992  25.5514990  24.6129997  44.5079992  25.5144990  23.9159997
  43.9957185  25.7940220  24.5617698  49.5929992  26.3074990  23.4889997
  49.1839992  27.1224990  23.1969997  50.3129992  26.1674990  22.8749997
  49.6344439  26.4000383  23.3660098  50.5969992  25.7534990  26.3029997
  50.4019992  26.3594990  25.5879997  50.7789992  24.9204990  25.8689997
  50.5949195  25.7237936  26.1464079  41.8099992  25.9914990  31.6269997
  41.7719992  26.3914990  32.4959997  41.3189992  25.1744990  31.7169997
  41.7384374  25.9358228  31.7580980  45.1759992  23.3654990  18.4259997
  44.7449992  22.9204990  19.1549997  44.4579992  23.7364990  17.9129997
  45.0199176  23.3547063  18.4564913  38.4179992  23.1074990  25.4779997
  39.0489992  23.0784990  26.1969997  38.8679992  22.6824990  24.7469997
  38.5651082  23.0461269  25.4776307  39.6919992  23.8534990  20.9019997
  40.1669992  24.4444990  20.3169997  38.9749992  24.3834990  21.2489997
  39.6600406  24.0061011  20.8688495  49.8609992  27.3914990  30.9739997
  50.1849992  26.7604990  30.3309997  49.4209992  26.8574990  31.6349997
  49.8458707  27.2328261  30.9753195  46.6389992  23.3194990  25.7579997
  45.7279992  23.3764990  26.0469997  47.1439992  23.2594990  26.5689997
  46.5826873  23.3191838  25.9071190  41.4669992  24.9484990  24.5849997
  40.5779992  25.0474990  24.2449997  41.7629992  24.1064990  24.2389997
  41.3854001  24.8482473  24.4917318  45.1199992  24.9484990  22.2419997
  46.0519992  25.0774990  22.4199997  44.9049992  25.6174990  21.5919997
  45.2184472  25.0565817  22.1784873  51.0439992  22.5544990  29.0219997
  50.3669992  22.6854990  29.6859997  50.5579992  22.3994990  28.2119997
  50.8857265  22.5514665  29.0033380  43.7939992  26.1424990  19.8079997
  43.2519992  25.7634990  19.1169997  44.6279992  26.3374990  19.3799997
  43.8324390  26.1169091  19.6554374  54.3309992  38.2254990  35.2989997
  54.5309992  38.6494990  34.4649997  54.9869992  38.5694990  35.9059997
  54.4469937  38.3299993  35.2668645  47.9589992  26.1064990  27.6449997
  48.5229992  25.5604990  27.0979997  47.8109992  25.5854990  28.4339997
  48.0163037  25.9611798  27.6767212  42.9609992  22.2434990  24.0639997
  42.6429992  21.3404990  24.0279997  43.7419992  22.2454990  23.5109997
  43.0231079  22.1202240  23.9842908  46.5849992  24.4954990  30.0589997
  45.7499992  24.9494990  30.1699997  47.1089992  24.7714990  30.8109997
  46.5416072  24.5948960  30.1758118  56.4689992  47.4114990  81.8749997
  55.7429992  46.9314990  82.2729997  57.0499992  47.6164990  82.6069997
  56.4482504  47.3735592  82.0284199  47.1289992  30.7084990  21.7439997
  46.3839992  30.2004990  21.4219997  46.9949992  30.7574990  22.6899997
  47.0089334  30.6456144  21.8278892  54.2789992  29.8414990  30.5309997
  54.9209992  30.2974990  29.9869997  53.4489992  29.9544990  30.0679997
  54.2546536  29.9191813  30.3939579  51.0269992  23.5224990  19.9429997
  50.0879992  23.6334990  19.7919997  51.3239992  24.3784990  20.2499997
  50.9386136  23.6534977  19.9638568  51.7449992  25.3894990  21.6039997
  52.6369992  25.2514990  21.9229997  51.8019992  26.1804990  21.0669997
  51.8747380  25.4774777  21.5750981  42.2539992  30.0034990  27.5139997
  42.9989992  30.0004990  26.9119997  42.3319992  29.1794990  27.9949997
  42.3663365  29.8917395  27.4967412  49.2549992  32.1664990  20.7689997
  48.9599992  32.9934990  21.1509997  48.5519992  31.5474990  20.9659997
  49.1196379  32.1959182  20.8478636  39.2619992  28.4634990  32.8289997
  39.4849992  28.0454990  33.6599997  38.6599992  27.8514990  32.4059997
  39.2111513  28.3234617  32.8856722  50.8989992  33.3544990  32.9309997
  49.9979992  33.5374990  32.6639997  50.9329992  33.6134990  33.8519997
  50.7803861  33.4145245  33.0189517  56.6299992  25.5984990  21.2989997
  56.0759992  25.2024990  20.6259997  56.7309992  26.5094990  21.0209997
  56.5678589  25.6673904  21.1693839  54.9249992  34.3844990  21.7639997
  54.5529992  33.5594990  22.0729997  55.2029992  34.2014990  20.8659997
  54.9115807  34.2467031  21.6850063  56.2279992  50.1964990  86.8229997
  57.0619992  49.8184990  86.5419997  56.3399992  51.1394990  86.7039997
  56.3571917  50.2722954  86.7684844  52.0859992  29.1924990  28.7849997
  51.1579992  28.9614990  28.7579997  52.5369992  28.4154990  28.4549997
  52.0198165  29.0557785  28.7366772  44.6289992  33.5214990  24.9179997
  45.1559992  34.2944990  24.7179997  43.7489992  33.7454990  24.6159997
  44.5822121  33.6577344  24.8497460  40.3839992  28.3834990  19.5049997
  40.9999992  29.0104990  19.8849997  39.5219992  28.6994990  19.7769997
  40.3517678  28.5119423  19.5937192  46.0559992  31.1844990  24.4939997
  45.8149992  32.1094990  24.5359997  45.3159992  30.7254990  24.8909997
  45.9229463  31.2490969  24.5534279  46.5709992  35.3334990  30.8089997
  46.9339992  36.1874990  30.5759997  47.1029992  35.0414990  31.5499997
  46.6925141  35.4108907  30.8772079  44.7389992  36.2054990  24.0399997
  43.7899992  36.3114990  24.0909997  45.0909992  37.0264990  24.3839997
  44.6565647  36.3310029  24.0934882  50.1149992  31.4324990  30.5099997
  49.6889992  31.2044990  31.3359997  50.6959992  30.6934990  30.3279997
  50.1352088  31.3014393  30.5984454  52.3179992  32.3614990  19.5839997
  52.6709992  31.9814990  20.3879997  51.3689992  32.2674990  19.6709997
  52.2380956  32.2967867  19.7058005  52.7739992  35.9844990  32.9789997
  52.1719992  35.4284990  32.4839997  53.0549992  36.6514990  32.3529997
  52.7295757  35.9985755  32.8265657  56.8209992  36.8404990  19.7849997
  57.5649992  37.4264990  19.6449997  56.1269992  37.4094990  20.1179997
  56.8289809  36.9975830  19.8108572  54.7139992  53.0744990  89.1299997
  54.0669992  53.3994990  89.7549997  54.1969992  52.6334990  88.4549997
  54.5554068  53.0594726  89.1244918  40.8959992  23.2174990  32.3869997
  40.0029992  23.5554990  32.3189997  40.7969992  22.3614990  32.8049997
  40.7604752  23.1480986  32.4341644  53.1839992  31.0334990  21.8109997
  52.9069992  30.3054990  22.3669997  54.1109992  31.1524990  22.0159997
  53.2714419  30.9499436  21.9148264  40.5469992  35.0214990  30.8219997
  40.7639992  34.0894990  30.7909997  40.7939992  35.2964990  31.7049997
  40.6100948  34.9310976  30.9371268  46.4089992  33.4734990  18.0309997
  46.6479992  32.7244990  17.4839997  46.1399992  33.0854990  18.8639997
  46.4053233  33.3186865  18.0687791  45.3459992  33.0434990  20.4869997
  45.4929992  32.5234990  21.2769997  45.3429992  33.9504990  20.7939997
  45.3657102  33.0948964  20.6365907  41.7989992  30.2954990  20.9979997
  41.1129992  30.6484990  21.5649997  42.3219992  31.0584990  20.7509997
  41.7758402  30.4468912  21.0421783  49.6299992  22.9584990  31.2769997
  50.3289992  23.0324990  31.9269997  49.2499992  22.0934990  31.4309997
  49.6742662  22.8517050  31.3867412  50.4149992  22.6104990  22.3739997
  50.6349992  23.0814990  21.5699997  50.9729992  23.0044990  23.0439997
  50.5206044  22.7282946  22.3545207  48.0839992  34.7404990  21.2369997
  47.2669992  35.2374990  21.2889997  48.6129992  35.2164990  20.5959997
  48.0438125  34.8727000  21.1575289  47.6149992  24.3384990  23.2089997
  48.4269992  24.8424990  23.2549997  47.3699992  24.1934990  24.1229997
  47.6931091  24.3879366  23.3388552  48.1509992  25.3244990  32.3929997
  48.2699992  25.8984990  33.1499997  48.8059992  24.6364990  32.5079997
  48.2558684  25.3100205  32.5121656  48.4989992  21.4194990  24.1469997
  48.1519992  22.0364990  24.7909997  49.1569992  21.9204990  23.6649997
  48.5404430  21.5716860  24.1700046  45.4219992  35.7844990  21.2179997
  45.5829992  36.5844990  20.7179997  45.2249992  36.0914990  22.1029997
  45.4173906  35.9353690  21.2692316  44.1559992  22.4824990  20.8339997
  44.0729992  23.3704990  21.1809997  45.0459992  22.2174990  21.0659997
  44.2649331  22.5681177  20.9128067  54.3549992  23.2314990  33.2279997
  53.4389992  23.4934990  33.1409997  54.6909992  23.2284990  32.3319997
  54.2748499  23.2670174  33.0948748  52.9569992  26.9814990  27.3239997
  52.1599992  26.5664990  26.9959997  53.4019992  26.2914990  27.8149997
  52.9080367  26.8313372  27.3454897  42.4149992  32.9094990  19.8939997
  43.0069992  33.6094990  20.1709997  42.8739992  32.4764990  19.1749997
  42.5581652  32.9467686  19.8346515  40.7309992  25.5744990  19.0099997
  40.6859992  26.5134990  19.1889997  39.8429992  25.3384990  18.7409997
  40.6048166  25.6711698  18.9981507  54.0439992  36.2374990  28.9459997
  53.8879992  36.9164990  28.2889997  54.9759992  36.3094990  29.1489997
  54.1487328  36.3401586  28.8835529  41.5389992  20.3554990  27.6829997
  41.3099992  20.4144990  26.7559997  41.0959992  19.5644990  27.9899997
  41.4477387  20.2566412  27.5975223  55.0859992  44.5514990  76.8169997
  54.9022180  45.0987009  76.1842671  54.9459992  43.7364990  76.3349997
  55.0418308  44.5332528  76.6649341  40.4689992  34.2964990  23.8439997
  39.6369992  34.7684990  23.8709997  41.0149992  34.8064990  23.2449997
  40.4288710  34.4300317  23.7667570  48.4469992  35.3364990  18.1689997
  47.8029992  34.7054990  18.4909997  49.2089992  34.8054990  17.9379997
  48.4618708  35.1783171  18.1818462  50.9319992  34.2084990  35.5229997
  50.5809992  33.3514990  35.7659997  51.6579992  34.3504990  36.1299997
  50.9821590  34.1105189  35.6382889  53.0509992  35.1534990  18.4029997
  53.3339992  34.3584990  18.8559997  53.7909992  35.3864990  17.8419997
  53.1897295  35.0762349  18.3891469  44.0059992  31.0624990  18.2609997
  44.0699992  30.2684990  18.7909997  44.6589992  30.9444990  17.5709997
  44.1030483  30.9377496  18.2403407  49.3579992  32.1094990  17.9969997
  49.0899992  32.2904990  18.8969997  49.1519992  31.1844990  17.8649997
  49.2933443  32.0091873  18.1026643  52.0549992  30.6044990  32.9439997
  52.7999992  31.1934990  32.8249997  51.2969992  31.1864990  33.0069997
  52.0545289  30.7637067  32.9362292  45.1549992  29.0354990  20.5669997
  44.6959992  28.5514990  21.2519997  45.4099992  28.3664990  19.9309997
  45.1265997  28.8788491  20.5748734  44.4439992  26.9284990  32.9229997
  43.8259992  27.6024990  33.2029997  44.7879992  27.2494990  32.0889997
  44.4058078  27.0642298  32.8486609  46.2259992  27.2784990  18.8289997
  46.0459992  27.1234990  17.9019997  47.1759992  27.3864990  18.8739997
  46.3297804  27.2718821  18.7081966  54.2559992  45.9324990  82.4379997
  54.1059992  44.9874990  82.4179997  53.9019992  46.2134990  83.2819997
  54.1876351  45.8411656  82.5493202  55.6159992  29.6324990  18.2749997
  55.3429992  29.2084990  17.4619997  55.6559992  30.5644990  18.0579997
  55.5840201  29.7003523  18.1343548  45.1959992  22.6524990  31.4979997
  45.7319992  23.1044990  30.8459997  44.3439992  22.5444990  31.0749997
  45.1541795  22.6997444  31.3516211  52.5099992  28.6964990  34.8429997
  52.2289992  29.4054990  34.2649997  53.4529992  28.6234990  34.6919997
  52.5989272  28.7836704  34.7434976  46.0019992  20.1094990  31.9289997
  45.9039992  21.0554990  31.8239997  45.2589992  19.7364990  31.4529997
  45.8882123  20.1886811  31.8503204  49.9819992  23.5584990  34.5679997
  49.0339992  23.5904990  34.6999997  50.2939992  22.9324990  35.2219997
  49.8945293  23.4782934  34.6744130  46.1239992  37.9684990  19.8299997
  47.0569992  38.1264990  19.9739997  45.8589992  38.6444990  19.2049997
  46.2159846  38.0814567  19.7652930  39.6919992  32.6054990  19.3129997
  40.6059992  32.6844990  19.5859997  39.6989992  31.9184990  18.6469997
  39.8180624  32.5234074  19.2603045  38.3409992  37.9984990  24.3899997
  37.6939992  37.5364990  23.8579997  38.6959992  37.3264990  24.9729997
  38.3003741  37.8444785  24.3959157  39.2109992  36.0784990  26.1949997
  38.8769992  35.1984990  26.3669997  39.4329992  36.4244990  27.0599997
  39.1952565  36.0047410  26.3354263  56.7599992  36.8884990  29.1759997
  56.7379992  37.0734990  30.1139997  57.4499992  37.4564990  28.8349997
  56.8503383  36.9907104  29.2584580  39.2909992  48.0104990  86.4479997
  39.4749992  47.9284990  85.5129997  40.1399992  47.8864990  86.8719997
  39.4310259  47.9824915  86.3771771  56.3229992  36.4554990  32.0969997
  55.8359992  35.7194990  31.7259997  56.8719992  36.0614990  32.7749997
  56.3306101  36.3016267  32.1379034  56.0749992  30.5014990  22.2499997
  56.9249992  30.9224990  22.3769997  56.0799992  29.7614990  22.8569997
  56.1921143  30.4591106  22.3494732  56.4689992  28.5554990  24.0729997
  55.7429992  28.0754990  24.4709997  57.0499992  28.7604990  24.8049997
  56.4482504  28.5175592  24.2264199  56.2279992  31.3404990  29.0209997
  57.0619992  30.9624990  28.7399997  56.3399992  32.2834990  28.9019997
  56.3571917  31.4162954  28.9664844  54.7139992  34.2184990  31.3279997
  54.0669992  34.5434990  31.9529997  54.1969992  33.7774990  30.6539997
  54.5554112  34.2034133  31.3225272  56.7369992  28.4564990  20.4639997
  56.2159992  28.8124990  19.7459997  56.7039992  29.1314990  21.1429997
  56.6610955  28.5965023  20.4572634  55.0859992  25.6954990  19.0149997
  55.1829992  26.3624990  18.3349997  54.9459992  24.8804990  18.5339997
  55.0803407  25.6765670  18.8568312  54.2559992  27.0764990  24.6359997
  54.1059992  26.1314990  24.6159997  53.9019992  27.3574990  25.4799997
  54.1876351  26.9851656  24.7473202  39.2909992  29.1544990  28.6469997
  39.4749992  29.0724990  27.7109997  40.1399992  29.0304990  29.0699997
  39.4310132  29.1265066  28.5761460  55.1119992  29.0464990  34.2749997
  55.6949992  28.3114990  34.4669997  55.6759992  29.8184990  34.3219997
  55.2679781  29.0503156  34.3076146  55.1119992  47.9024990  92.0769997
  55.6949992  47.1674990  92.2679997  55.6759992  48.6744990  92.1229997
  55.2680326  47.9062746  92.1093579  54.3339992  23.1034990  18.1329997
  54.9439992  22.7324990  18.7699997  53.4969992  22.6824990  18.3289997
  54.3043704  22.9957942  18.2467077  53.9659992  24.6584990  23.0989997
  54.2459992  23.7514990  23.2229997  54.7249992  25.0924990  22.7099997
  54.1069258  24.5930935  23.0633691  54.5779992  25.2404990  28.5349997
  55.5109992  25.4524990  28.4999997  54.3429992  25.3414990  29.4569997
  54.6739517  25.2831844  28.6549113  54.6069992  25.9774990  31.3109997
  53.7639992  26.2454990  31.6759997  55.0499992  26.7994990  31.0999997
  54.5514035  26.1253351  31.3324770  54.5799992  21.9214990  23.1469997
  54.7619992  21.4724990  23.9719997  53.9799992  21.3374990  22.6829997
  54.5238187  21.7810563  23.1972721  40.1099992  22.7374990  27.6789997
  40.5549992  21.9454990  27.9809997  40.5759992  23.4534990  28.1089997
  40.2339718  22.7259546  27.7785247  38.4139992  25.7364990  28.7479997
  38.9059992  25.5154990  27.9569997  38.7759992  26.5764990  29.0289997
  38.5302923  25.8198480  28.6777389  56.4459992  21.9894990  19.6749997
  56.8589992  21.2684990  19.1999997  57.1279992  22.6584990  19.7329997
  56.5946060  21.9813741  19.6179233  38.7269992  21.9944990  22.8019997
  37.8019992  22.2024990  22.6729997  39.1809992  22.4784990  22.1119997
  38.6616298  22.0884311  22.6910433  53.4979992  36.9784990  24.7479997
  54.1499992  36.6304990  24.1399997  54.0089992  37.4664990  25.3939997
  53.6562872  36.9968248  24.7520964  56.6089992  45.8054990  92.7609997
  55.7449992  45.4264990  92.5959997  57.2129992  45.0664990  92.6869997
  56.5724912  45.6537937  92.7284360  38.6909992  20.7324990  31.1459997
  38.0259992  20.4864990  31.7889997  38.2479992  21.3544990  30.5689997
  38.5401168  20.7829225  31.1559830  43.8369992  34.8814990  31.5489997
  43.4119992  35.6914990  31.2669997  44.7409992  34.9674990  31.2469997
  43.9010706  35.0039557  31.4695836  50.4929992  37.5664990  33.7529997
  51.1699992  36.9334990  33.5129997  50.8149992  37.9674990  34.5599997
  50.6291618  37.5341147  33.8292802  55.4109992  20.1564990  32.8319997
  54.5979992  20.4814990  32.4449997  55.6439992  19.3954990  32.2989997
  55.3311347  20.0981891  32.7069824  41.2389992  38.1384990  31.5969997
  40.5179992  38.5784990  31.1459997  40.8729992  37.8874990  32.4449997
  41.0909632  38.1647235  31.6499649  43.7059992  37.7384990  30.6259997
  42.8409992  37.8104990  31.0299997  43.6509992  38.2854990  29.8429997
  43.5802289  37.8223242  30.5753749  48.4169992  37.6264990  29.8019997
  47.9599992  38.1554990  29.1479997  48.5789992  38.2294990  30.5269997
  48.3763919  37.7803990  29.8105740  50.7439992  36.5044990  30.7469997
  49.8399992  36.6694990  30.4809997  51.1729992  37.3574990  30.6809997
  50.6782017  36.6424184  30.7016495  53.3479992  38.0744990  31.0419997
  53.1669992  38.9904990  30.8309997  53.5249992  37.6634990  30.1949997
  53.3471377  38.1443365  30.8987178  40.6539992  36.7614990  28.5069997
  40.6349992  36.3354990  29.3639997  41.4579992  36.4424990  28.0979997
  40.7601393  36.6600297  28.5690155  53.9659992  43.5144990  80.8999997
  54.2459992  42.6074990  81.0249997  54.7249992  43.9484990  80.5109997
  54.1069471  43.4490654  80.8645052  42.7949992  35.4714990  27.1619997
  42.5759992  34.5544990  27.3319997  43.6189992  35.6114990  27.6279997
  42.8764702  35.3650523  27.2482510  45.3319992  35.9414990  28.0109997
  45.5449992  35.0534990  27.7239997  45.3969992  35.9064990  28.9649997
  45.3699149  35.8153338  28.1007351  48.8409992  21.6054990  27.1549997
  48.1659992  20.9754990  27.4109997  49.4049992  21.1214990  26.5519997
  48.8249363  21.4538886  27.1084810  53.9829992  19.7124990  27.2679997
  54.5869992  20.2604990  26.7659997  53.1139992  20.0314990  27.0269997
  53.9480419  19.8305628  27.1667741  55.7099992  20.8514990  25.6009997
  56.3219992  20.3374990  25.0739997  56.0929992  21.7284990  25.6239997
  55.8453867  20.8997613  25.5320888  41.1669992  20.2394990  24.9769997
  40.3899992  20.0044990  24.4699997  41.6979992  19.4424990  24.9859997
  41.1323735  20.0996462  24.9088090  40.0039992  20.0374990  20.7809997
  40.4429992  20.6484990  20.1889997  39.3699992  20.5754990  21.2549997
  39.9783859  20.1939076  20.7640287  45.7469992  20.1654990  24.7899997
  46.6209992  20.5544990  24.7609997  45.6109992  19.9504990  25.7129997
  45.8481953  20.1896654  24.9107599  51.3029992  20.1954990  26.4399997
  51.3799992  20.2914990  25.4899997  51.0279992  19.2884990  26.5679997
  51.2763233  20.0859093  26.3273665  52.6569992  20.2214990  22.1319997
  51.9539992  20.8364990  21.9219997  52.2119992  19.3844990  22.2629997
  52.5006550  20.1924679  22.1209819  54.5779992  44.0964990  86.3359997
  55.5109992  44.3084990  86.3019997  54.3429992  44.1974990  87.2589997
  54.6738357  44.1391303  86.4560232  39.9049992  35.9854990  21.6779997
  39.2199992  35.9474990  21.0109997  39.9079992  36.8974990  21.9659997
  39.8116806  36.1036669  21.6256961  41.8649992  21.9534990  19.2229997
  42.3559992  21.3234990  18.6959997  42.4879992  22.2494990  19.8859997
  42.0165304  21.9072387  19.2404922  46.8909992  22.2464990  21.6799997
  47.0689992  21.5994990  22.3629997  46.8369992  23.0804990  22.1469997
  46.9080678  22.2706615  21.8366283  48.7689992  37.1944990  20.0759997
  49.6349992  37.5614990  19.8979997  48.5219992  36.7554990  19.2619997
  48.8541853  37.1854021  19.9415813  55.4779992  36.7574990  22.7549997
  55.2839992  36.0094990  22.1899997  55.4389992  37.5154990  22.1719997
  55.4461645  36.7575797  22.5988131  41.7229992  36.9054990  18.7029997
  41.4549992  37.1914990  19.5769997  42.4939992  36.3594990  18.8559997
  41.7905926  36.8707790  18.8431188  69.1019992  29.3954990  24.9359997
  69.1909992  30.3394990  24.8029997  68.4629992  29.1204990  24.2779997
  69.0278378  29.4873846  24.8289258  68.0349992  28.6504990  28.3549997
  67.9959992  28.0044990  29.0599997  67.7119992  28.1834990  27.5829997
  67.9860469  28.4990005  28.3472803  60.4029992  28.2644990  29.9479997
  60.4439992  27.6394990  30.6709997  61.1059992  28.8884990  30.1299997
  60.5036223  28.2632318  30.0716164  71.7409992  31.5894990  26.6559997
  71.2999992  30.8694990  27.1069997  71.7279992  32.3104990  27.2859997
  71.6789215  31.5884303  26.8028088  54.6069992  44.8334990  89.1119997
  53.7639992  45.1014990  89.4779997  55.0499992  45.6554990  88.9009997
  54.5514358  44.9813294  89.1335999  61.3269992  32.7144990  28.4829997
  60.9569992  31.9124990  28.1129997  62.2679992  32.5464990  28.5289997
  61.4035984  32.5819649  28.4385586  57.9369992  26.3744990  23.8749997
  57.4889992  27.2204990  23.8569997  57.3759992  25.7954990  23.3599997
  57.7998546  26.4119004  23.8028874  58.6469992  28.5364990  26.0009997
  58.8609992  27.7664990  26.5279997  59.3849992  28.6264990  25.3979997
  58.7760073  28.4433546  25.9915786  68.8519992  36.6934990  26.8679997
  69.4719992  36.0174990  26.5949997  68.6439992  36.4754990  27.7769997
  68.9087679  36.5715032  26.9534518  66.4239992  31.0824990  28.7609997
  66.7279992  30.3964990  28.1659997  67.1459992  31.2014990  29.3789997
  66.5631240  31.0047325  28.7630941  75.0869992  22.6844990  29.6209997
  75.1359992  23.2944990  30.3569997  75.5129992  23.1454990  28.8979997
  75.1512851  22.8303266  29.6240532  69.5649992  25.4764990  29.0879997
  69.7069992  24.5304990  29.1079997  69.4589992  25.6834990  28.1599997
  69.5701051  25.3749706  28.9652249  62.7199992  23.5784990  26.3609997
  62.7629992  24.4384990  25.9419997  62.2619992  23.0254990  25.7269997
  62.6640163  23.6214174  26.2180604  70.4419992  23.7094990  24.7609997
  71.0879992  23.3804990  25.3859997  70.9519992  24.2264990  24.1389997
  70.5994289  23.7344333  24.7623681  59.3399992  25.9754990  27.1229997
  59.9939992  25.4254990  27.5549997  59.3639992  25.7014990  26.2059997
  59.4327199  25.8632178  27.0581650  38.8879992  43.2804990  92.5889997
  39.8079992  43.1584990  92.8249997  38.4389992  42.5304990  92.9779997
  38.9531561  43.1623720  92.6739015  64.4959992  27.5254990  26.3379997
  65.1119992  26.9984990  26.8469997  63.9099992  26.8854990  25.9339997
  64.5010652  27.3668919  26.3530277  75.4789992  24.1624990  31.8569997
  74.7899992  24.8204990  31.7619997  75.4939992  23.9644990  32.7939997
  75.3867756  24.2257614  31.9705795  61.5299992  22.4964990  30.4349997
  61.3109992  23.0264990  29.6679997  60.8619992  22.7224990  31.0819997
  61.4096975  22.5995979  30.4175123  68.8989992  31.9964990  23.9789997
  68.6029992  31.6734990  23.1269997  68.5749992  32.8964990  24.0199997
  68.8147458  32.0739678  23.8680598  64.0989992  30.1714990  30.7219997
  63.3589992  30.7704990  30.8259997  64.8129992  30.7254990  30.4059997
  64.0943146  30.3282611  30.6935150  72.2059992  23.0004990  26.7419997
  71.9909992  22.2344990  27.2749997  72.8619992  23.4724990  27.2549997
  72.2652673  22.9595739  26.8841972  61.1239992  24.3884990  28.3869997
  61.7369992  25.0214990  28.7599997  61.6359992  23.9164990  27.7309997
  61.2771933  24.4113380  28.3493477  62.5059992  32.1364990  31.5089997
  62.5009992  33.0154990  31.1309997  61.6529992  32.0524990  31.9339997
  62.3899199  32.2455901  31.5146942  58.6279992  31.8074990  22.2909997
  58.3559992  32.0364990  21.4019997  58.6729992  32.6444990  22.7519997
  58.5968360  31.9521034  22.2316186  72.2529992  33.4284990  29.0039997
  71.3109992  33.4874990  29.1659997  72.5289992  34.3344990  28.8669997
  72.1615865  33.5590299  29.0076174  56.8899992  38.8134990  94.4659997
  57.2399992  38.1594990  93.8599997  57.0369992  39.6504990  94.0259997
  56.9577192  38.8372545  94.3236712  72.5529992  21.7154990  30.4209997
  71.8169992  22.3254990  30.3839997  73.2369992  22.1304990  29.8949997
  72.5445367  21.8552562  30.3448156  65.5559992  19.8014990  27.8869997
  65.4389992  18.8534990  27.8329997  64.7009992  20.1344990  28.1599997
  65.4243691  19.7165842  27.9165072  70.5049992  35.2094990  25.6289997
  70.9299992  34.5024990  25.1439997  70.8219992  36.0114990  25.2119997
  70.6060266  35.2210201  25.5062461  71.6639992  33.1104990  24.1379997
  71.4069992  32.4204990  23.5259997  71.7349992  32.6674990  24.9829997
  71.6384322  32.9561568  24.1685372  73.3499992  31.6774990  32.6149997
  73.4899992  31.0854990  31.8759997  73.5179992  32.5504990  32.2589997
  73.3918734  31.7144041  32.4656937  67.8229992  28.6394990  22.3879997
  67.1109992  29.1744990  22.0359997  68.5139992  28.6944990  21.7279997
  67.8189704  28.7201663  22.2505797  67.8769992  27.0964990  19.4259997
  68.5779992  27.1194990  20.0779997  68.1789992  26.4684990  18.7699997
  68.0138202  27.0147223  19.4265591  75.1919992  28.0174990  30.6809997
  74.5399992  28.7114990  30.7699997  75.6569992  28.2274990  29.8709997
  75.1655357  28.1409544  30.5837056  71.2289992  28.8484990  23.3389997
  70.4969992  29.0774990  23.9119997  71.6759992  28.1354990  23.7939997
  71.1892753  28.7833984  23.4789698  62.8739992  29.4794990  25.2219997
  62.5439992  29.1084990  24.4039997  63.4619992  28.8084990  25.5689997
  62.9083182  29.3380648  25.1569898  40.1099992  41.5934990  85.4799997
  40.5549992  40.8014990  85.7819997  40.5759992  42.3094990  85.9109997
  40.2339059  41.5819485  85.5796061  64.2409992  32.9074990  27.9029997
  64.1459992  32.3284990  27.1469997  64.9699992  32.5364990  28.3989997
  64.3266011  32.7780572  27.8666011  63.2409992  28.2474990  28.8549997
  63.8059992  28.3694990  28.0929997  63.5589992  28.8854990  29.4939997
  63.3613619  28.3504388  28.8370019  69.5499992  33.7514990  29.5889997
  69.3089992  34.4134990  30.2369997  69.3519992  32.9164990  30.0139997
  69.4902662  33.7292704  29.7351008  64.1209992  32.6474990  33.5729997
  63.8089992  33.4294990  34.0279997  63.4709992  32.4944990  32.8869997
  63.9904858  32.7337882  33.5425344  70.0999992  28.0114990  21.0249997
  70.6789992  28.1614990  21.7709997  70.5139992  28.4814990  20.3009997
  70.2353358  28.0955966  21.0293935  61.0409992  28.8454990  32.8009997
  61.1109992  29.4964990  33.4999997  60.1499992  28.9484990  32.4659997
  60.9301690  28.9484261  32.8513026  67.8259992  34.7474990  24.4599997
  68.2999992  35.0434990  25.2369997  67.2629992  35.4864990  24.2269997
  67.8147890  34.8878047  24.5348084  62.3599992  34.7184990  34.3359997
  62.3679992  34.5824990  33.3889997  61.4439992  34.6014990  34.5879997
  62.2372528  34.6840475  34.2403226  73.7979992  19.7614990  20.8369997
  72.8979992  19.8994990  21.1329997  74.0499992  20.5924990  20.4359997
  73.7087727  19.8928705  20.8232935  61.8639992  28.5484990  22.8109997
  61.5719992  29.3164990  22.3199997  61.1899992  27.8894990  22.6479997
  61.7328843  28.5644537  22.7217695  38.4139992  44.5924990  86.5489997
  38.9059992  44.3714990  85.7589997  38.7759992  45.4324990  86.8299997
  38.5303428  44.6758220  86.4787918  74.9879992  34.1274990  19.2139997
  75.0609992  35.0664990  19.3839997  75.8929992  33.8224990  19.1579997
  75.1204170  34.2148294  19.2297045  57.9569992  30.9114990  31.6259997
  57.4559992  30.8834990  30.8109997  57.9629992  30.0064990  31.9359997
  57.8891690  30.7852234  31.5562770  57.7079992  33.6924990  28.5099997
  58.6539992  33.5474990  28.4909997  57.5949992  34.4764990  29.0469997
  57.8223578  33.7786708  28.5800300  75.9049992  34.3584990  34.1929997
  75.8559992  33.4024990  34.1549997  75.0789992  34.6254990  34.5939997
  75.7865096  34.2638416  34.2420698  66.8839992  33.9324990  33.0689997
  66.9709992  34.7584990  33.5439997  66.0199992  33.6024990  33.3179997
  66.7791944  34.0009871  33.1676558  67.2979992  37.7044990  22.8749997
  67.2229992  37.5834990  21.9279997  67.3309992  38.6534990  22.9929997
  67.2922083  37.8162639  22.7614973  60.9519992  36.4934990  24.6559997
  61.1039992  36.1454990  25.5339997  60.1009992  36.1364990  24.3999997
  60.8578344  36.3975891  24.7416851  70.3999992  36.8584990  19.8769997
  70.7749992  36.1144990  19.4059997  70.4039992  36.5884990  20.7949997
  70.4518969  36.7200920  19.9366475  70.0689992  36.7844990  22.6259997
  69.1339992  36.8844990  22.8049997  70.3489992  36.0744990  23.2049997
  69.9789471  36.7022944  22.7286678  60.2059992  32.2354990  32.6689997
  60.4219992  31.8734990  33.5289997  59.3509992  31.8604990  32.4599997
  60.1199082  32.1353377  32.7582396  56.4099992  40.9224990  92.8149997
  55.4929992  41.1934990  92.7789997  56.5329992  40.3874990  92.0309997
  56.3010828  40.8872711  92.7040767  62.8249992  20.7054990  28.6649997
  61.9629992  20.6184990  28.2569997  62.8029992  21.5614990  29.0929997
  62.7040557  20.8093078  28.6670202  67.4879992  20.4274990  32.0399997
  67.9079992  20.0124990  32.7929997  66.5549992  20.2484990  32.1569997
  67.4193736  20.3464921  32.1588950  71.5769992  29.0434990  18.6539997
  71.6189992  28.8214990  17.7239997  72.4259992  29.4424990  18.8439997
  71.6975253  29.0670510  18.5523804  67.1499992  22.9194990  19.3249997
  66.8959992  22.9384990  20.2469997  66.8929992  22.0484990  19.0229997
  67.0804508  22.8043292  19.4104786  62.9159992  25.6704990  29.7599997
  62.2739992  25.6304990  30.4689997  62.9529992  26.5974990  29.5219997
  62.8331659  25.7902540  29.8248463  62.9129992  25.8914990  24.6719997
  62.0199992  25.5514990  24.6129997  63.3639992  25.5144990  23.9159997
  62.8517185  25.7940220  24.5617698  68.4489992  26.3074990  23.4889997
  68.0399992  27.1224990  23.1969997  69.1689992  26.1674990  22.8749997
  68.4904439  26.4000383  23.3660098  69.4529992  25.7534990  26.3029997
  69.2579992  26.3594990  25.5879997  69.6349992  24.9204990  25.8689997
  69.4509195  25.7237936  26.1464079  60.6659992  25.9914990  31.6269997
  60.6279992  26.3914990  32.4959997  60.1749992  25.1744990  31.7169997
  60.5944374  25.9358228  31.7580980  64.0319992  23.3654990  18.4259997
  63.6009992  22.9204990  19.1549997  63.3139992  23.7364990  17.9129997
  63.8759176  23.3547063  18.4564913  38.7269992  40.8504990  80.6039997
  37.8019992  41.0584990  80.4739997  39.1809992  41.3344990  79.9139997
  38.6617401  40.9443895  80.4929433  57.2739992  23.1074990  25.4779997
  57.9049992  23.0784990  26.1969997  57.7239992  22.6824990  24.7469997
  57.4211082  23.0461269  25.4776307  58.5479992  23.8534990  20.9019997
  59.0229992  24.4444990  20.3169997  57.8309992  24.3834990  21.2489997
  58.5160406  24.0061011  20.8688495  68.7169992  27.3914990  30.9739997
  69.0409992  26.7604990  30.3309997  68.2769992  26.8574990  31.6349997
  68.7018707  27.2328261  30.9753195  65.4949992  23.3194990  25.7579997
  64.5839992  23.3764990  26.0469997  65.9999992  23.2594990  26.5689997
  65.4386873  23.3191838  25.9071190  60.3229992  24.9484990  24.5849997
  59.4339992  25.0474990  24.2449997  60.6189992  24.1064990  24.2389997
  60.2414001  24.8482473  24.4917318  63.9759992  24.9484990  22.2419997
  64.9079992  25.0774990  22.4199997  63.7609992  25.6174990  21.5919997
  64.0744472  25.0565817  22.1784873  69.8999992  22.5544990  29.0219997
  69.2229992  22.6854990  29.6859997  69.4139992  22.3994990  28.2119997
  69.7417265  22.5514665  29.0033380  62.6499992  26.1424990  19.8079997
  62.1079992  25.7634990  19.1169997  63.4839992  26.3374990  19.3799997
  62.6884390  26.1169091  19.6554374  66.8149992  26.1064990  27.6449997
  67.3789992  25.5604990  27.0979997  66.6669992  25.5854990  28.4339997
  66.8723037  25.9611798  27.6767212  61.8169992  22.2434990  24.0639997
  61.4989992  21.3404990  24.0279997  62.5979992  22.2454990  23.5109997
  61.8791079  22.1202240  23.9842908  65.4409992  24.4954990  30.0589997
  64.6059992  24.9494990  30.1699997  65.9649992  24.7714990  30.8109997
  65.3976072  24.5948960  30.1758118  65.9849992  30.7084990  21.7439997
  65.2399992  30.2004990  21.4219997  65.8509992  30.7574990  22.6899997
  65.8649334  30.6456144  21.8278892  73.1349992  29.8414990  30.5309997
  73.7769992  30.2974990  29.9869997  72.3049992  29.9544990  30.0679997
  73.1106536  29.9191813  30.3939579  69.8829992  23.5224990  19.9429997
  68.9439992  23.6334990  19.7919997  70.1799992  24.3784990  20.2499997
  69.7946136  23.6534977  19.9638568  67.5049992  30.8924990  32.9809997
  67.1589992  30.5104990  33.7879997  67.3049992  31.8254990  33.0519997
  67.4305987  30.9664013  33.1010443  70.6009992  25.3894990  21.6039997
  71.4929992  25.2514990  21.9229997  70.6579992  26.1804990  21.0669997
  70.7307380  25.4774777  21.5750981  61.1099992  30.0034990  27.5139997
  61.8549992  30.0004990  26.9119997  61.1879992  29.1794990  27.9949997
  61.2223365  29.8917395  27.4967412  68.1109992  32.1664990  20.7689997
  67.8159992  32.9934990  21.1509997  67.4079992  31.5474990  20.9659997
  67.9756379  32.1959182  20.8478636  58.1179992  28.4634990  32.8289997
  58.3409992  28.0454990  33.6599997  57.5159992  27.8514990  32.4059997
  58.0671513  28.3234617  32.8856722  75.4859992  25.5984990  21.2989997
  74.9319992  25.2024990  20.6259997  75.5869992  26.5094990  21.0209997
  75.4238589  25.6673904  21.1693839  38.6909992  39.5884990  88.9479997
  38.0259992  39.3424990  89.5909997  38.2479992  40.2104990  88.3709997
  38.5401168  39.6389225  88.9579830  75.4489992  31.3994990  34.1359997
  74.5979992  31.6374990  33.7679997  76.0399992  31.3824990  33.3819997
  75.4123831  31.4297623  33.9838448  73.7809992  34.3844990  21.7639997
  73.4089992  33.5594990  22.0729997  74.0589992  34.2014990  20.8659997
  73.7675807  34.2467031  21.6850063  70.9419992  29.1924990  28.7849997
  70.0139992  28.9614990  28.7579997  71.3929992  28.4154990  28.4549997
  70.8758165  29.0557785  28.7366772  63.4849992  33.5214990  24.9179997
  64.0119992  34.2944990  24.7179997  62.6049992  33.7454990  24.6159997
  63.4382121  33.6577344  24.8497460  59.2399992  28.3834990  19.5049997
  59.8559992  29.0104990  19.8849997  58.3779992  28.6994990  19.7769997
  59.2077678  28.5119423  19.5937192  64.9119992  31.1844990  24.4939997
  64.6709992  32.1094990  24.5359997  64.1719992  30.7254990  24.8909997
  64.7789463  31.2490969  24.5534279  65.4269992  35.3334990  30.8089997
  65.7899992  36.1874990  30.5759997  65.9589992  35.0414990  31.5499997
  65.5485141  35.4108907  30.8772079  63.5949992  36.2054990  24.0399997
  62.6459992  36.3114990  24.0909997  63.9469992  37.0264990  24.3839997
  63.5125647  36.3310029  24.0934882  68.9709992  31.4324990  30.5099997
  68.5449992  31.2044990  31.3359997  69.5519992  30.6934990  30.3279997
  68.9912088  31.3014393  30.5984454  71.1739992  32.3614990  19.5839997
  71.5269992  31.9814990  20.3879997  70.2249992  32.2674990  19.6709997
  71.0940956  32.2967867  19.7058005  40.8829992  52.7634990  93.0919997
  40.0619992  52.9384990  92.6319997  40.6309992  52.6904990  94.0129997
  40.7366173  52.7775806  93.1534954  71.6299992  35.9844990  32.9789997
  71.0279992  35.4284990  32.4839997  71.9109992  36.6514990  32.3529997
  71.5855757  35.9985755  32.8265657  75.6769992  36.8404990  19.7849997
  76.4209992  37.4264990  19.6449997  74.9829992  37.4094990  20.1179997
  75.6849809  36.9975830  19.8108572  59.7519992  23.2174990  32.3869997
  58.8589992  23.5554990  32.3189997  59.6529992  22.3614990  32.8049997
  59.6164752  23.1480986  32.4341644  72.0399992  31.0334990  21.8109997
  71.7629992  30.3054990  22.3669997  72.9669992  31.1524990  22.0159997
  72.1274419  30.9499436  21.9148264  59.4029992  35.0214990  30.8219997
  59.6199992  34.0894990  30.7909997  59.6499992  35.2964990  31.7049997
  59.4660948  34.9310976  30.9371268  65.2649992  33.4734990  18.0309997
  65.5039992  32.7244990  17.4839997  64.9959992  33.0854990  18.8639997
  65.2613233  33.3186865  18.0687791  64.2019992  33.0434990  20.4869997
  64.3489992  32.5234990  21.2769997  64.1989992  33.9504990  20.7939997
  64.2217102  33.0948964  20.6365907  60.6549992  30.2954990  20.9979997
  59.9689992  30.6484990  21.5649997  61.1779992  31.0584990  20.7509997
  60.6318402  30.4468912  21.0421783  68.4859992  22.9584990  31.2769997
  69.1849992  23.0324990  31.9269997  68.1059992  22.0934990  31.4309997
  68.5302662  22.8517050  31.3867412  69.2709992  22.6104990  22.3739997
  69.4909992  23.0814990  21.5699997  69.8289992  23.0044990  23.0439997
  69.3766044  22.7282946  22.3545207  43.8369992  53.7374990  89.3509997
  43.4119992  54.5474990  89.0679997  44.7409992  53.8234990  89.0489997
  43.9011002  53.8598728  89.2714798  66.9399992  34.7404990  21.2369997
  66.1229992  35.2374990  21.2889997  67.4689992  35.2164990  20.5959997
  66.8998125  34.8727000  21.1575289  66.4709992  24.3384990  23.2089997
  67.2829992  24.8424990  23.2549997  66.2259992  24.1934990  24.1229997
  66.5491091  24.3879366  23.3388552  67.0069992  25.3244990  32.3929997
  67.1259992  25.8984990  33.1499997  67.6619992  24.6364990  32.5079997
  67.1118684  25.3100205  32.5121656  67.3549992  21.4194990  24.1469997
  67.0079992  22.0364990  24.7909997  68.0129992  21.9204990  23.6649997
  67.3964430  21.5716860  24.1700046  64.2779992  35.7844990  21.2179997
  64.4389992  36.5844990  20.7179997  64.0809992  36.0914990  22.1029997
  64.2733906  35.9353690  21.2692316  63.0119992  22.4824990  20.8339997
  62.9289992  23.3704990  21.1809997  63.9019992  22.2174990  21.0659997
  63.1209331  22.5681177  20.9128067  73.2109992  23.2314990  33.2279997
  72.2949992  23.4934990  33.1409997  73.5469992  23.2284990  32.3319997
  73.1308499  23.2670174  33.0948748  71.8129992  26.9814990  27.3239997
  71.0159992  26.5664990  26.9959997  72.2579992  26.2914990  27.8149997
  71.7640367  26.8313372  27.3454897  61.2709992  32.9094990  19.8939997
  61.8629992  33.6094990  20.1709997  61.7299992  32.4764990  19.1749997
  61.4141652  32.9467686  19.8346515  59.5869992  25.5744990  19.0099997
  59.5419992  26.5134990  19.1889997  58.6989992  25.3384990  18.7409997
  59.4608166  25.6711698  18.9981507  48.1479992  55.1364990  92.3099997
  48.3329992  54.8034990  93.1879997  48.9949992  55.4464990  91.9879997
  48.2877291  55.1328214  92.3866140  72.8999992  36.2374990  28.9459997
  72.7439992  36.9164990  28.2889997  73.8319992  36.3094990  29.1489997
  73.0047328  36.3401586  28.8835529  60.3949992  20.3554990  27.6829997
  60.1659992  20.4144990  26.7559997  59.9519992  19.5644990  27.9899997
  60.3037387  20.2566412  27.5975223  59.3249992  34.2964990  23.8439997
  58.4929992  34.7684990  23.8709997  59.8709992  34.8064990  23.2449997
  59.2848710  34.4300317  23.7667570  67.3029992  35.3364990  18.1689997
  66.6589992  34.7054990  18.4909997  68.0649992  34.8054990  17.9379997
  67.3178708  35.1783171  18.1818461  71.9069992  35.1534990  18.4029997
  72.1899992  34.3584990  18.8559997  72.6469992  35.3864990  17.8419997
  72.0457295  35.0762349  18.3891469  62.8619992  31.0624990  18.2609997
  62.9259992  30.2684990  18.7909997  63.5149992  30.9444990  17.5709997
  62.9590483  30.9377496  18.2403407  68.2139992  32.1094990  17.9969997
  67.9459992  32.2904990  18.8969997  68.0079992  31.1844990  17.8649997
  68.1493443  32.0091873  18.1026643  64.0109992  29.0354990  20.5669997
  63.5519992  28.5514990  21.2519997  64.2659992  28.3664990  19.9309997
  63.9825997  28.8788491  20.5748734  63.2999992  26.9284990  32.9229997
  62.6819992  27.6024990  33.2029997  63.6439992  27.2494990  32.0889997
  63.2618078  27.0642298  32.8486609  65.0819992  27.2784990  18.8289997
  64.9019992  27.1234990  17.9019997  66.0319992  27.3864990  18.8739997
  65.1857804  27.2718821  18.7081966  50.4929992  56.4224990  91.5539997
  51.1699992  55.7894990  91.3139997  50.8149992  56.8234990  92.3619997
  50.6291280  56.3900638  91.6303190  74.4719992  29.6324990  18.2749997
  74.1989992  29.2084990  17.4619997  74.5119992  30.5644990  18.0579997
  74.4400201  29.7003523  18.1343548  64.0519992  22.6524990  31.4979997
  64.5879992  23.1044990  30.8459997  63.1999992  22.5444990  31.0749997
  64.0101795  22.6997444  31.3516211  65.6339992  28.0924990  31.7369997
  66.3849992  27.9364990  31.1639997  65.2949992  28.9444990  31.4619997
  65.6909587  28.1863149  31.6214060  64.8579992  20.1094990  31.9289997
  64.7599992  21.0554990  31.8239997  64.1149992  19.7364990  31.4529997
  64.7442123  20.1886811  31.8503204  64.9799992  37.9684990  19.8299997
  65.9129992  38.1264990  19.9739997  64.7149992  38.6444990  19.2049997
  65.0719846  38.0814567  19.7652930  58.5479992  32.6054990  19.3129997
  59.4619992  32.6844990  19.5859997  58.5549992  31.9184990  18.6469997
  58.6740624  32.5234074  19.2603045  57.1969992  37.9984990  24.3899997
  56.5499992  37.5364990  23.8579997  57.5519992  37.3264990  24.9729997
  57.1563741  37.8444785  24.3959157  58.0669992  36.0784990  26.1949997
  57.7329992  35.1984990  26.3669997  58.2889992  36.4244990  27.0599997
  58.0512565  36.0047410  26.3354263  75.6159992  36.8884990  29.1759997
  75.5939992  37.0734990  30.1139997  76.3059992  37.4564990  28.8349997
  75.7063383  36.9907104  29.2584580  75.1789992  36.4554990  32.0969997
  74.6919992  35.7194990  31.7259997  75.7279992  36.0614990  32.7749997
  75.1866101  36.3016267  32.1379034  55.4109992  39.0124990  90.6339997
  54.5979992  39.3374990  90.2459997  55.6439992  38.2514990  90.1009997
  55.3312566  38.9541570  90.5089196  74.9309992  30.5014990  22.2499997
  75.7809992  30.9224990  22.3769997  74.9359992  29.7614990  22.8569997
  75.0481143  30.4591106  22.3494732  75.3249992  28.5554990  24.0729997
  74.5989992  28.0754990  24.4709997  75.9059992  28.7604990  24.8049997
  75.3042504  28.5175592  24.2264199  75.0839992  31.3404990  29.0209997
  75.9179992  30.9624990  28.7399997  75.1959992  32.2834990  28.9019997
  75.2131917  31.4162954  28.9664844  73.5699992  34.2184990  31.3279997
  72.9229992  34.5434990  31.9529997  73.0529992  33.7774990  30.6539997
  73.4114112  34.2034133  31.3225272  75.5929992  28.4564990  20.4639997
  75.0719992  28.8124990  19.7459997  75.5599992  29.1314990  21.1429997
  75.5170955  28.5965023  20.4572634  73.9419992  25.6954990  19.0149997
  74.0389992  26.3624990  18.3349997  73.8019992  24.8804990  18.5339997
  73.9363407  25.6765670  18.8568312  73.1119992  27.0764990  24.6359997
  72.9619992  26.1314990  24.6159997  72.7579992  27.3574990  25.4799997
  73.0436351  26.9851656  24.7473202  58.1469992  29.1544990  28.6469997
  58.3309992  29.0724990  27.7109997  58.9959992  29.0304990  29.0699997
  58.2870132  29.1265066  28.5761460  73.9679992  29.0464990  34.2749997
  74.5509992  28.3114990  34.4669997  74.5319992  29.8184990  34.3219997
  74.1239781  29.0503156  34.3076146  73.1899992  23.1034990  18.1329997
  73.7999992  22.7324990  18.7699997  72.3529992  22.6824990  18.3289997
  73.1603704  22.9957942  18.2467077  41.2389992  56.9944990  89.3979997
  40.5179992  57.4344990  88.9469997  40.8729992  56.7434990  90.2469997
  41.0909785  57.0207691  89.4509849  72.8219992  24.6584990  23.0989997
  73.1019992  23.7514990  23.2229997  73.5809992  25.0924990  22.7099997
  72.9629258  24.5930935  23.0633691  73.4339992  25.2404990  28.5349997
  74.3669992  25.4524990  28.4999997  73.1989992  25.3414990  29.4569997
  73.5299517  25.2831844  28.6549113  73.4629992  25.9774990  31.3109997
  72.6199992  26.2454990  31.6759997  73.9059992  26.7994990  31.0999997
  73.4074035  26.1253351  31.3324770  73.4359992  21.9214990  23.1469997
  73.6179992  21.4724990  23.9719997  72.8359992  21.3374990  22.6829997
  73.3798187  21.7810563  23.1972721  58.9659992  22.7374990  27.6789997
  59.4109992  21.9454990  27.9809997  59.4319992  23.4534990  28.1089997
  59.0899718  22.7259546  27.7785247  57.2699992  25.7364990  28.7479997
  57.7619992  25.5154990  27.9569997  57.6319992  26.5764990  29.0289997
  57.3862923  25.8198480  28.6777389  75.2659992  22.0664990  35.0129997
  74.3489992  22.3374990  34.9769997  75.3889992  21.5314990  34.2289997
  75.1570828  22.0312711  34.9020767  75.3019992  21.9894990  19.6749997
  75.7149992  21.2684990  19.1999997  75.9839992  22.6584990  19.7329997
  75.4506060  21.9813741  19.6179233  57.5829992  21.9944990  22.8019997
  56.6579992  22.2024990  22.6729997  58.0369992  22.4784990  22.1119997
  57.5176298  22.0884311  22.6910433  72.3539992  36.9784990  24.7479997
  73.0059992  36.6304990  24.1399997  72.8649992  37.4664990  25.3939997
  72.5122872  36.9968248  24.7520964  43.7059992  56.5944990  88.4279997
  42.8409992  56.6664990  88.8319997  43.6509992  57.1414990  87.6439997
  43.5802066  56.6782678  88.3773371  57.5469992  20.7324990  31.1459997
  56.8819992  20.4864990  31.7889997  57.1039992  21.3544990  30.5689997
  57.3961168  20.7829225  31.1559830  62.6929992  34.8814990  31.5489997
  62.2679992  35.6914990  31.2669997  63.5969992  34.9674990  31.2469997
  62.7570706  35.0039557  31.4695836  67.0039992  36.2804990  34.5089997
  67.1889992  35.9474990  35.3869997  67.8509992  36.5904990  34.1869997
  67.1437291  36.2768214  34.5856140  74.2669992  20.1564990  32.8319997
  73.4539992  20.4814990  32.4449997  74.4999992  19.3954990  32.2989997
  74.1871347  20.0981891  32.7069824  62.5619992  37.7384990  30.6259997
  61.6969992  37.8104990  31.0299997  62.5069992  38.2854990  29.8429997
  62.4362289  37.8223242  30.5753749  67.2729992  37.6264990  29.8019997
  66.8159992  38.1554990  29.1479997  67.4349992  38.2294990  30.5269997
  67.2323919  37.7803990  29.8105740  69.5999992  36.5044990  30.7469997
  68.6959992  36.6694990  30.4809997  70.0289992  37.3574990  30.6809997
  69.5342017  36.6424184  30.7016495  72.2039992  38.0744990  31.0419997
  72.0229992  38.9904990  30.8309997  72.3809992  37.6634990  30.1949997
  72.2031377  38.1443365  30.8987178  59.5099992  36.7614990  28.5069997
  59.4909992  36.3354990  29.3639997  60.3139992  36.4424990  28.0979997
  59.6161393  36.6600297  28.5690155  61.6509992  35.4714990  27.1619997
  61.4319992  34.5544990  27.3319997  62.4749992  35.6114990  27.6279997
  61.7324702  35.3650523  27.2482510  48.4169992  56.4824990  87.6039997
  47.9599992  57.0114990  86.9499997  48.5789992  57.0854990  88.3289997
  48.3763919  56.6363990  87.6125740  64.1879992  35.9414990  28.0109997
  64.4009992  35.0534990  27.7239997  64.2529992  35.9064990  28.9649997
  64.2259149  35.8153338  28.1007351  67.6969992  21.6054990  27.1549997
  67.0219992  20.9754990  27.4109997  68.2609992  21.1214990  26.5519997
  67.6809363  21.4538886  27.1084810  72.8389992  19.7124990  27.2679997
  73.4429992  20.2604990  26.7659997  71.9699992  20.0314990  27.0269997
  72.8040419  19.8305628  27.1667741  74.5659992  20.8514990  25.6009997
  75.1779992  20.3374990  25.0739997  74.9489992  21.7284990  25.6239997
  74.7013867  20.8997613  25.5320888  60.0229992  20.2394990  24.9769997
  59.2459992  20.0044990  24.4699997  60.5539992  19.4424990  24.9859997
  59.9883735  20.0996462  24.9088090  58.8599992  20.0374990  20.7809997
  59.2989992  20.6484990  20.1889997  58.2259992  20.5754990  21.2549997
  58.8343859  20.1939076  20.7640287  64.6029992  20.1654990  24.7899997
  65.4769992  20.5544990  24.7609997  64.4669992  19.9504990  25.7129997
  64.7041953  20.1896654  24.9107599  70.1589992  20.1954990  26.4399997
  70.2359992  20.2914990  25.4899997  69.8839992  19.2884990  26.5679997
  70.1323233  20.0859093  26.3273665  71.5129992  20.2214990  22.1319997
  70.8099992  20.8364990  21.9219997  71.0679992  19.3844990  22.2629997
  71.3566550  20.1924679  22.1209819  58.7609992  35.9854990  21.6779997
  58.0759992  35.9474990  21.0109997  58.7639992  36.8974990  21.9659997
  58.6676806  36.1036669  21.6256961  50.7439992  55.3604990  88.5489997
  49.8399992  55.5254990  88.2829997  51.1729992  56.2134990  88.4829997
  50.6782017  55.4984184  88.5036495  60.7209992  21.9534990  19.2229997
  61.2119992  21.3234990  18.6959997  61.3439992  22.2494990  19.8859997
  60.8725304  21.9072387  19.2404922  65.7469992  22.2464990  21.6799997
  65.9249992  21.5994990  22.3629997  65.6929992  23.0804990  22.1469997
  65.7640678  22.2706615  21.8366283  67.6249992  37.1944990  20.0759997
  68.4909992  37.5614990  19.8979997  67.3779992  36.7554990  19.2619997
  67.7101853  37.1854021  19.9415813  74.3339992  36.7574990  22.7549997
  74.1399992  36.0094990  22.1899997  74.2949992  37.5154990  22.1719997
  74.3021645  36.7575797  22.5988131  60.5789992  36.9054990  18.7029997
  60.3109992  37.1914990  19.5769997  61.3499992  36.3594990  18.8559997
  60.6465926  36.8707790  18.8431188  73.5519992  35.5084990  34.9049997
  72.7699992  35.3224990  34.3849997  73.4799992  36.4384990  35.1219997
  73.4352975  35.6086973  34.8631822  87.9579992  29.3954990  24.9359997
  88.0469992  30.3394990  24.8029997  87.3189992  29.1204990  24.2779997
  87.8838378  29.4873846  24.8289258  86.8909992  28.6504990  28.3549997
  86.8519992  28.0044990  29.0599997  86.5679992  28.1834990  27.5829997
  86.8420469  28.4990005  28.3472803  79.2589992  28.2644990  29.9479997
  79.2999992  27.6394990  30.6709997  79.9619992  28.8884990  30.1299997
  79.3596223  28.2632318  30.0716164  90.5969992  31.5894990  26.6559997
  90.1559992  30.8694990  27.1069997  90.5839992  32.3104990  27.2859997
  90.5349215  31.5884303  26.8028088  53.3479992  56.9304990  88.8439997
  53.1669992  57.8464990  88.6329997  53.5249992  56.5194990  87.9969997
  53.3471377  57.0003365  88.7007178  80.1829992  32.7144990  28.4829997
  79.8129992  31.9124990  28.1129997  81.1239992  32.5464990  28.5289997
  80.2595984  32.5819649  28.4385586  76.7929992  26.3744990  23.8749997
  76.3449992  27.2204990  23.8569997  76.2319992  25.7954990  23.3599997
  76.6558546  26.4119004  23.8028874  77.5029992  28.5364990  26.0009997
  77.7169992  27.7664990  26.5279997  78.2409992  28.6264990  25.3979997
  77.6320073  28.4433546  25.9915786  87.7079992  36.6934990  26.8679997
  88.3279992  36.0174990  26.5949997  87.4999992  36.4754990  27.7769997
  87.7647679  36.5715032  26.9534518  85.2799992  31.0824990  28.7609997
  85.5839992  30.3964990  28.1659997  86.0019992  31.2014990  29.3789997
  85.4191240  31.0047325  28.7630941  93.9429992  22.6844990  29.6209997
  93.9919992  23.2944990  30.3569997  94.3689992  23.1454990  28.8979997
  94.0072851  22.8303266  29.6240532  88.4209992  25.4764990  29.0879997
  88.5629992  24.5304990  29.1079997  88.3149992  25.6834990  28.1599997
  88.4261051  25.3749706  28.9652249  81.5759992  23.5784990  26.3609997
  81.6189992  24.4384990  25.9419997  81.1179992  23.0254990  25.7269997
  81.5200163  23.6214174  26.2180604  89.2979992  23.7094990  24.7609997
  89.9439992  23.3804990  25.3859997  89.8079992  24.2264990  24.1389997
  89.4554289  23.7344333  24.7623681  78.1959992  25.9754990  27.1229997
  78.8499992  25.4254990  27.5549997  78.2199992  25.7014990  26.2059997
  78.2887199  25.8632178  27.0581650  40.6539992  55.6174990  86.3089997
  40.6349992  55.1914990  87.1659997  41.4579992  55.2984990  85.8999997
  40.7601393  55.5160297  86.3710155  83.3519992  27.5254990  26.3379997
  83.9679992  26.9984990  26.8469997  82.7659992  26.8854990  25.9339997
  83.3570652  27.3668919  26.3530277  94.3349992  24.1624990  31.8569997
  93.6459992  24.8204990  31.7619997  94.3499992  23.9644990  32.7939997
  94.2427756  24.2257614  31.9705795  80.3859992  22.4964990  30.4349997
  80.1669992  23.0264990  29.6679997  79.7179992  22.7224990  31.0819997
  80.2656975  22.5995979  30.4175123  87.7549992  31.9964990  23.9789997
  87.4589992  31.6734990  23.1269997  87.4309992  32.8964990  24.0199997
  87.6707458  32.0739678  23.8680598  82.9549992  30.1714990  30.7219997
  82.2149992  30.7704990  30.8259997  83.6689992  30.7254990  30.4059997
  82.9503146  30.3282611  30.6935150  91.0619992  23.0004990  26.7419997
  90.8469992  22.2344990  27.2749997  91.7179992  23.4724990  27.2549997
  91.1212673  22.9595739  26.8841972  79.9799992  24.3884990  28.3869997
  80.5929992  25.0214990  28.7599997  80.4919992  23.9164990  27.7309997
  80.1331933  24.4113380  28.3493477  81.3619992  32.1364990  31.5089997
  81.3569992  33.0154990  31.1309997  80.5089992  32.0524990  31.9339997
  81.2459199  32.2455901  31.5146942  77.4839992  31.8074990  22.2909997
  77.2119992  32.0364990  21.4019997  77.5289992  32.6444990  22.7519997
  77.4528360  31.9521034  22.2316186  91.1089992  33.4284990  29.0039997
  90.1669992  33.4874990  29.1659997  91.3849992  34.3344990  28.8669997
  91.0175865  33.5590299  29.0076174  42.7949992  54.3274990  84.9639997
  42.5759992  53.4104990  85.1329997  43.6189992  54.4674990  85.4299997
  42.8764637  54.2209586  85.0501414  91.4089992  21.7154990  30.4209997
  90.6729992  22.3254990  30.3839997  92.0929992  22.1304990  29.8949997
  91.4005367  21.8552562  30.3448156  84.4119992  19.8014990  27.8869997
  84.2949992  18.8534990  27.8329997  83.5569992  20.1344990  28.1599997
  84.2803691  19.7165842  27.9165072  89.3609992  35.2094990  25.6289997
  89.7859992  34.5024990  25.1439997  89.6779992  36.0114990  25.2119997
  89.4620266  35.2210201  25.5062461  90.5199992  33.1104990  24.1379997
  90.2629992  32.4204990  23.5259997  90.5909992  32.6674990  24.9829997
  90.4944322  32.9561568  24.1685372  92.2059992  31.6774990  32.6149997
  92.3459992  31.0854990  31.8759997  92.3739992  32.5504990  32.2589997
  92.2478734  31.7144041  32.4656937  86.6789992  28.6394990  22.3879997
  85.9669992  29.1744990  22.0359997  87.3699992  28.6944990  21.7279997
  86.6749704  28.7201663  22.2505797  86.7329992  27.0964990  19.4259997
  87.4339992  27.1194990  20.0779997  87.0349992  26.4684990  18.7699997
  86.8698202  27.0147223  19.4265591  94.0479992  28.0174990  30.6809997
  93.3959992  28.7114990  30.7699997  94.5129992  28.2274990  29.8709997
  94.0215357  28.1409544  30.5837056  90.0849992  28.8484990  23.3389997
  89.3529992  29.0774990  23.9119997  90.5319992  28.1354990  23.7939997
  90.0452753  28.7833984  23.4789698  89.9819992  27.0234990  32.4069997
  90.0619992  27.7864990  32.9789997  89.3809992  27.3024990  31.7169997
  89.9116547  27.1657468  32.3920029  45.3319992  54.7974990  85.8119997
  45.5449992  53.9094990  85.5249997  45.3969992  54.7624990  86.7669997
  45.3699075  54.6713318  85.9017355  81.7299992  29.4794990  25.2219997
  81.3999992  29.1084990  24.4039997  82.3179992  28.8084990  25.5689997
  81.7643182  29.3380648  25.1569898  83.0969992  32.9074990  27.9029997
  83.0019992  32.3284990  27.1469997  83.8259992  32.5364990  28.3989997
  83.1826011  32.7780572  27.8666011  82.0969992  28.2474990  28.8549997
  82.6619992  28.3694990  28.0929997  82.4149992  28.8854990  29.4939997
  82.2173619  28.3504388  28.8370019  88.4059992  33.7514990  29.5889997
  88.1649992  34.4134990  30.2369997  88.2079992  32.9164990  30.0139997
  88.3462662  33.7292704  29.7351008  82.9769992  32.6474990  33.5729997
  82.6649992  33.4294990  34.0279997  82.3269992  32.4944990  32.8869997
  82.8464858  32.7337882  33.5425344  88.9559992  28.0114990  21.0249997
  89.5349992  28.1614990  21.7709997  89.3699992  28.4814990  20.3009997
  89.0913358  28.0955966  21.0293935  86.6819992  34.7474990  24.4599997
  87.1559992  35.0434990  25.2369997  86.1189992  35.4864990  24.2269997
  86.6707890  34.8878047  24.5348084  81.2159992  34.7184990  34.3359997
  81.2239992  34.5824990  33.3889997  80.2999992  34.6014990  34.5879997
  81.0932528  34.6840475  34.2403226  92.6539992  19.7614990  20.8369997
  91.7539992  19.8994990  21.1329997  92.9059992  20.5924990  20.4359997
  92.5647727  19.8928705  20.8232935  80.7199992  28.5484990  22.8109997
  80.4279992  29.3164990  22.3199997  80.0459992  27.8894990  22.6479997
  80.5888843  28.5644537  22.7217695  48.8409992  40.4614990  84.9569997
  48.1659992  39.8314990  85.2119997  49.4049992  39.9774990  84.3539997
  48.8249558  40.3099283  84.9103451  93.8439992  34.1274990  19.2139997
  93.9169992  35.0664990  19.3839997  94.7489992  33.8224990  19.1579997
  93.9764170  34.2148294  19.2297045  76.8129992  30.9114990  31.6259997
  76.3119992  30.8834990  30.8109997  76.8189992  30.0064990  31.9359997
  76.7451690  30.7852234  31.5562770  76.5639992  33.6924990  28.5099997
  77.5099992  33.5474990  28.4909997  76.4509992  34.4764990  29.0469997
  76.6783578  33.7786708  28.5800300  85.7399992  33.9324990  33.0689997
  85.8269992  34.7584990  33.5439997  84.8759992  33.6024990  33.3179997
  85.6351944  34.0009871  33.1676558  86.1539992  37.7044990  22.8749997
  86.0789992  37.5834990  21.9279997  86.1869992  38.6534990  22.9929997
  86.1482083  37.8162639  22.7614973  79.8079992  36.4934990  24.6559997
  79.9599992  36.1454990  25.5339997  78.9569992  36.1364990  24.3999997
  79.7138344  36.3975891  24.7416851  89.2559992  36.8584990  19.8769997
  89.6309992  36.1144990  19.4059997  89.2599992  36.5884990  20.7949997
  89.3078969  36.7200920  19.9366475  88.9249992  36.7844990  22.6259997
  87.9899992  36.8844990  22.8049997  89.2049992  36.0744990  23.2049997
  88.8349471  36.7022944  22.7286678  79.0619992  32.2354990  32.6689997
  79.2779992  31.8734990  33.5289997  78.2069992  31.8604990  32.4599997
  78.9759082  32.1353377  32.7582396  81.6809992  20.7054990  28.6649997
  80.8189992  20.6184990  28.2569997  81.6589992  21.5614990  29.0929997
  81.5600557  20.8093078  28.6670202  53.9829992  38.5684990  85.0689997
  54.5869992  39.1164990  84.5679997  53.1139992  38.8874990  84.8289997
  53.9481126  38.6867070  84.9679180  86.3439992  20.4274990  32.0399997
  86.7639992  20.0124990  32.7929997  85.4109992  20.2484990  32.1569997
  86.2753736  20.3464921  32.1588950  89.6699992  24.1824990  32.8929997
  89.1559992  24.0574990  33.6909997  89.5149992  25.0954990  32.6489997
  89.5787802  24.2887433  32.9691504  90.4329992  29.0434990  18.6539997
  90.4749992  28.8214990  17.7239997  91.2819992  29.4424990  18.8439997
  90.5535253  29.0670510  18.5523804  86.0059992  22.9194990  19.3249997
  85.7519992  22.9384990  20.2469997  85.7489992  22.0484990  19.0229997
  85.9364508  22.8043292  19.4104786  81.7719992  25.6704990  29.7599997
  81.1299992  25.6304990  30.4689997  81.8089992  26.5974990  29.5219997
  81.6891659  25.7902540  29.8248463  81.7689992  25.8914990  24.6719997
  80.8759992  25.5514990  24.6129997  82.2199992  25.5144990  23.9159997
  81.7077185  25.7940220  24.5617698  87.3049992  26.3074990  23.4889997
  86.8959992  27.1224990  23.1969997  88.0249992  26.1674990  22.8749997
  87.3464439  26.4000383  23.3660098  88.3089992  25.7534990  26.3029997
  88.1139992  26.3594990  25.5879997  88.4909992  24.9204990  25.8689997
  88.3069195  25.7237936  26.1464079  82.8879992  23.3654990  18.4259997
  82.4569992  22.9204990  19.1549997  82.1699992  23.7364990  17.9129997
  82.7319176  23.3547063  18.4564913  76.1299992  23.1074990  25.4779997
  76.7609992  23.0784990  26.1969997  76.5799992  22.6824990  24.7469997
  76.2771082  23.0461269  25.4776307  41.1669992  39.0954990  82.7789997
  40.3899992  38.8604990  82.2709997  41.6979992  38.2984990  82.7879997
  41.1324443  38.9556721  82.7107200  77.4039992  23.8534990  20.9019997
  77.8789992  24.4444990  20.3169997  76.6869992  24.3834990  21.2489997
  77.3720406  24.0061011  20.8688495  87.5729992  27.3914990  30.9739997
  87.8969992  26.7604990  30.3309997  87.1329992  26.8574990  31.6349997
  87.5578707  27.2328261  30.9753195  84.3509992  23.3194990  25.7579997
  83.4399992  23.3764990  26.0469997  84.8559992  23.2594990  26.5689997
  84.2946873  23.3191838  25.9071190  79.1789992  24.9484990  24.5849997
  78.2899992  25.0474990  24.2449997  79.4749992  24.1064990  24.2389997
  79.0974001  24.8482473  24.4917318  82.8319992  24.9484990  22.2419997
  83.7639992  25.0774990  22.4199997  82.6169992  25.6174990  21.5919997
  82.9304472  25.0565817  22.1784873  88.7559992  22.5544990  29.0219997
  88.0789992  22.6854990  29.6859997  88.2699992  22.3994990  28.2119997
  88.5977265  22.5514665  29.0033380  81.5059992  26.1424990  19.8079997
  80.9639992  25.7634990  19.1169997  82.3399992  26.3374990  19.3799997
  81.5444390  26.1169091  19.6554374  85.6709992  26.1064990  27.6449997
  86.2349992  25.5604990  27.0979997  85.5229992  25.5854990  28.4339997
  85.7283037  25.9611798  27.6767212  80.6729992  22.2434990  24.0639997
  80.3549992  21.3404990  24.0279997  81.4539992  22.2454990  23.5109997
  80.7351079  22.1202240  23.9842908  84.2969992  24.4954990  30.0589997
  83.4619992  24.9494990  30.1699997  84.8209992  24.7714990  30.8109997
  84.2536072  24.5948960  30.1758118  40.0039992  38.8934990  78.5819997
  40.4429992  39.5044990  77.9909997  39.3699992  39.4314990  79.0559997
  39.9784103  39.0499233  78.5651376  84.8409992  30.7084990  21.7439997
  84.0959992  30.2004990  21.4219997  84.7069992  30.7574990  22.6899997
  84.7209334  30.6456144  21.8278892  91.9909992  29.8414990  30.5309997
  92.6329992  30.2974990  29.9869997  91.1609992  29.9544990  30.0679997
  91.9666536  29.9191813  30.3939579  88.7389992  23.5224990  19.9429997
  87.7999992  23.6334990  19.7919997  89.0359992  24.3784990  20.2499997
  88.6506136  23.6534977  19.9638568  86.3609992  30.8924990  32.9809997
  86.0149992  30.5104990  33.7879997  86.1609992  31.8254990  33.0519997
  86.2865987  30.9664013  33.1010443  89.4569992  25.3894990  21.6039997
  90.3489992  25.2514990  21.9229997  89.5139992  26.1804990  21.0669997
  89.5867380  25.4774777  21.5750981  79.9659992  30.0034990  27.5139997
  80.7109992  30.0004990  26.9119997  80.0439992  29.1794990  27.9949997
  80.0783365  29.8917395  27.4967412  86.9669992  32.1664990  20.7689997
  86.6719992  32.9934990  21.1509997  86.2639992  31.5474990  20.9659997
  86.8316379  32.1959182  20.8478636  88.6109992  33.3544990  32.9309997
  87.7099992  33.5374990  32.6639997  88.6449992  33.6134990  33.8519997
  88.4923861  33.4145245  33.0189517  94.3419992  25.5984990  21.2989997
  93.7879992  25.2024990  20.6259997  94.4429992  26.5094990  21.0209997
  94.2798589  25.6673904  21.1693839  94.3049992  31.3994990  34.1359997
  93.4539992  31.6374990  33.7679997  94.8959992  31.3824990  33.3819997
  94.2683831  31.4297623  33.9838448  45.7469992  39.0214990  82.5919997
  46.6209992  39.4104990  82.5619997  45.6109992  38.8064990  83.5149997
  45.8483125  39.0457120  82.7126523  92.6369992  34.3844990  21.7639997
  92.2649992  33.5594990  22.0729997  92.9149992  34.2014990  20.8659997
  92.6235807  34.2467031  21.6850063  89.7979992  29.1924990  28.7849997
  88.8699992  28.9614990  28.7579997  90.2489992  28.4154990  28.4549997
  89.7318165  29.0557785  28.7366772  82.3409992  33.5214990  24.9179997
  82.8679992  34.2944990  24.7179997  81.4609992  33.7454990  24.6159997
  82.2942121  33.6577344  24.8497460  78.0959992  28.3834990  19.5049997
  78.7119992  29.0104990  19.8849997  77.2339992  28.6994990  19.7769997
  78.0637678  28.5119423  19.5937192  83.7679992  31.1844990  24.4939997
  83.5269992  32.1094990  24.5359997  83.0279992  30.7254990  24.8909997
  83.6349463  31.2490969  24.5534279  84.2829992  35.3334990  30.8089997
  84.6459992  36.1874990  30.5759997  84.8149992  35.0414990  31.5499997
  84.4045141  35.4108907  30.8772079  82.4509992  36.2054990  24.0399997
  81.5019992  36.3114990  24.0909997  82.8029992  37.0264990  24.3839997
  82.3685647  36.3310029  24.0934882  87.8269992  31.4324990  30.5099997
  87.4009992  31.2044990  31.3359997  88.4079992  30.6934990  30.3279997
  87.8472088  31.3014393  30.5984454  90.0299992  32.3614990  19.5839997
  90.3829992  31.9814990  20.3879997  89.0809992  32.2674990  19.6709997
  89.9500956  32.2967867  19.7058005  90.4859992  35.9844990  32.9789997
  89.8839992  35.4284990  32.4839997  90.7669992  36.6514990  32.3529997
  90.4415757  35.9985755  32.8265657  51.3029992  39.0514990  84.2409997
  51.3799992  39.1474990  83.2919997  51.0279992  38.1444990  84.3699997
  51.2763407  38.9419188  84.1283532  94.5329992  36.8404990  19.7849997
  95.2769992  37.4264990  19.6449997  93.8389992  37.4094990  20.1179997
  94.5409809  36.9975830  19.8108572  78.6079992  23.2174990  32.3869997
  77.7149992  23.5554990  32.3189997  78.5089992  22.3614990  32.8049997
  78.4724752  23.1480986  32.4341644  90.8959992  31.0334990  21.8109997
  90.6189992  30.3054990  22.3669997  91.8229992  31.1524990  22.0159997
  90.9834419  30.9499436  21.9148264  78.2589992  35.0214990  30.8219997
  78.4759992  34.0894990  30.7909997  78.5059992  35.2964990  31.7049997
  78.3220948  34.9310976  30.9371268  84.1209992  33.4734990  18.0309997
  84.3599992  32.7244990  17.4839997  83.8519992  33.0854990  18.8639997
  84.1173233  33.3186865  18.0687791  83.0579992  33.0434990  20.4869997
  83.2049992  32.5234990  21.2769997  83.0549992  33.9504990  20.7939997
  83.0777102  33.0948964  20.6365907  79.5109992  30.2954990  20.9979997
  78.8249992  30.6484990  21.5649997  80.0339992  31.0584990  20.7509997
  79.4878402  30.4468912  21.0421783  87.3419992  22.9584990  31.2769997
  88.0409992  23.0324990  31.9269997  86.9619992  22.0934990  31.4309997
  87.3862662  22.8517050  31.3867412  88.1269992  22.6104990  22.3739997
  88.3469992  23.0814990  21.5699997  88.6849992  23.0044990  23.0439997
  88.2326044  22.7282946  22.3545207  85.7959992  34.7404990  21.2369997
  84.9789992  35.2374990  21.2889997  86.3249992  35.2164990  20.5959997
  85.7558125  34.8727000  21.1575289  52.6569992  39.0774990  79.9339997
  51.9539992  39.6924990  79.7239997  52.2119992  38.2404990  80.0649997
  52.5006550  39.0484679  79.9229819  85.3269992  24.3384990  23.2089997
  86.1389992  24.8424990  23.2549997  85.0819992  24.1934990  24.1229997
  85.4051091  24.3879366  23.3388552  85.8629992  25.3244990  32.3929997
  85.9819992  25.8984990  33.1499997  86.5179992  24.6364990  32.5079997
  85.9678684  25.3100205  32.5121656  86.2109992  21.4194990  24.1469997
  85.8639992  22.0364990  24.7909997  86.8689992  21.9204990  23.6649997
  86.2524430  21.5716860  24.1700046  83.1339992  35.7844990  21.2179997
  83.2949992  36.5844990  20.7179997  82.9369992  36.0914990  22.1029997
  83.1293906  35.9353690  21.2692316  81.8679992  22.4824990  20.8339997
  81.7849992  23.3704990  21.1809997  82.7579992  22.2174990  21.0659997
  81.9769331  22.5681177  20.9128067  92.0669992  23.2314990  33.2279997
  91.1509992  23.4934990  33.1409997  92.4029992  23.2284990  32.3319997
  91.9868499  23.2670174  33.0948748  90.6689992  26.9814990  27.3239997
  89.8719992  26.5664990  26.9959997  91.1139992  26.2914990  27.8149997
  90.6200367  26.8313372  27.3454897  80.1269992  32.9094990  19.8939997
  80.7189992  33.6094990  20.1709997  80.5859992  32.4764990  19.1749997
  80.2701652  32.9467686  19.8346515  78.4429992  25.5744990  19.0099997
  78.3979992  26.5134990  19.1889997  77.5549992  25.3384990  18.7409997
  78.3168166  25.6711698  18.9981507  91.7559992  36.2374990  28.9459997
  91.5999992  36.9164990  28.2889997  92.6879992  36.3094990  29.1489997
  91.8607328  36.3401586  28.8835529  39.9049992  54.8414990  79.4799997
  39.2199992  54.8034990  78.8119997  39.9079992  55.7534990  79.7679997
  39.8117358  54.9596744  79.4276145  79.2509992  20.3554990  27.6829997
  79.0219992  20.4144990  26.7559997  78.8079992  19.5644990  27.9899997
  79.1597387  20.2566412  27.5975223  78.1809992  34.2964990  23.8439997
  77.3489992  34.7684990  23.8709997  78.7269992  34.8064990  23.2449997
  78.1408710  34.4300317  23.7667570  86.1589992  35.3364990  18.1689997
  85.5149992  34.7054990  18.4909997  86.9209992  34.8054990  17.9379997
  86.1738708  35.1783171  18.1818461  88.6439992  34.2084990  35.5229997
  88.2929992  33.3514990  35.7659997  89.3699992  34.3504990  36.1299997
  88.6941590  34.1105189  35.6382889  90.7629992  35.1534990  18.4029997
  91.0459992  34.3584990  18.8559997  91.5029992  35.3864990  17.8419997
  90.9017295  35.0762349  18.3891469  81.7179992  31.0624990  18.2609997
  81.7819992  30.2684990  18.7909997  82.3709992  30.9444990  17.5709997
  81.8150483  30.9377496  18.2403407  87.0699992  32.1094990  17.9969997
  86.8019992  32.2904990  18.8969997  86.8639992  31.1844990  17.8649997
  87.0053443  32.0091873  18.1026643  89.7669992  30.6044990  32.9439997
  90.5119992  31.1934990  32.8249997  89.0089992  31.1864990  33.0069997
  89.7665289  30.7637067  32.9362292  82.8669992  29.0354990  20.5669997
  82.4079992  28.5514990  21.2519997  83.1219992  28.3664990  19.9309997
  82.8385997  28.8788491  20.5748734  82.1559992  26.9284990  32.9229997
  81.5379992  27.6024990  33.2029997  82.4999992  27.2494990  32.0889997
  82.1178078  27.0642298  32.8486609  46.8909992  41.1024990  79.4819997
  47.0689992  40.4554990  80.1649997  46.8369992  41.9364990  79.9489997
  46.9080678  41.1266615  79.6386283  83.9379992  27.2784990  18.8289997
  83.7579992  27.1234990  17.9019997  84.8879992  27.3864990  18.8739997
  84.0417804  27.2718821  18.7081966  93.3279992  29.6324990  18.2749997
  93.0549992  29.2084990  17.4619997  93.3679992  30.5644990  18.0579997
  93.2960201  29.7003523  18.1343548  82.4959992  24.2834990  34.0049997
  82.6459992  23.5544990  33.4029997  82.4979992  25.0604990  33.4459997
  82.5167967  24.2887720  33.8470523  82.9079992  22.6524990  31.4979997
  83.4439992  23.1044990  30.8459997  82.0559992  22.5444990  31.0749997
  82.8661795  22.6997444  31.3516211  84.4899992  28.0924990  31.7369997
  85.2409992  27.9364990  31.1639997  84.1509992  28.9444990  31.4619997
  84.5469587  28.1863149  31.6214060  90.2219992  28.6964990  34.8429997
  89.9409992  29.4054990  34.2649997  91.1649992  28.6234990  34.6919997
  90.3109272  28.7836704  34.7434976  83.7139992  20.1094990  31.9289997
  83.6159992  21.0554990  31.8239997  82.9709992  19.7364990  31.4529997
  83.6002123  20.1886811  31.8503204  79.1549992  23.4014990  35.6209997
  79.3659992  22.6954990  35.0109997  79.0429992  22.9644990  36.4649997
  79.1687668  23.2456619  35.6515445  83.9359992  19.4034990  34.5999997
  84.6469992  18.7634990  34.5859997  83.8349992  19.6694990  33.6869997
  84.0196858  19.3518591  34.4745501  83.8359992  37.9684990  19.8299997
  84.7689992  38.1264990  19.9739997  83.5709992  38.6444990  19.2049997
  83.9279846  38.0814567  19.7652930  41.1249992  39.6094990  92.2959997
  40.7589992  38.8434990  92.7389997  42.0379992  39.6384990  92.5829997
  41.1983225  39.5086917  92.3953441  77.4039992  32.6054990  19.3129997
  78.3179992  32.6844990  19.5859997  77.4109992  31.9184990  18.6469997
  77.5300624  32.5234074  19.2603045  76.0529992  37.9984990  24.3899997
  75.4059992  37.5364990  23.8579997  76.4079992  37.3264990  24.9729997
  76.0123741  37.8444785  24.3959157  76.9229992  36.0784990  26.1949997
  76.5889992  35.1984990  26.3669997  77.1449992  36.4244990  27.0599997
  76.9072565  36.0047410  26.3354263  94.4719992  36.8884990  29.1759997
  94.4499992  37.0734990  30.1139997  95.1619992  37.4564990  28.8349997
  94.5623383  36.9907104  29.2584580  94.0349992  36.4554990  32.0969997
  93.5479992  35.7194990  31.7259997  94.5839992  36.0614990  32.7749997
  94.0426101  36.3016267  32.1379034  93.7869992  30.5014990  22.2499997
  94.6369992  30.9224990  22.3769997  93.7919992  29.7614990  22.8569997
  93.9041143  30.4591106  22.3494732  94.1809992  28.5554990  24.0729997
  93.4549992  28.0754990  24.4709997  94.7619992  28.7604990  24.8049997
  94.1602504  28.5175592  24.2264199  93.9399992  31.3404990  29.0209997
  94.7739992  30.9624990  28.7399997  94.0519992  32.2834990  28.9019997
  94.0691917  31.4162954  28.9664844  92.4259992  34.2184990  31.3279997
  91.7789992  34.5434990  31.9529997  91.9089992  33.7774990  30.6539997
  92.2674112  34.2034133  31.3225272  94.4489992  28.4564990  20.4639997
  93.9279992  28.8124990  19.7459997  94.4159992  29.1314990  21.1429997
  94.3730955  28.5965023  20.4572634  43.0979992  38.9594990  93.8319997
  43.9969992  38.6854990  93.6469997  42.7119992  38.2174990  94.2959997
  43.1687237  38.8216520  93.8694693  92.7979992  25.6954990  19.0149997
  92.8949992  26.3624990  18.3349997  92.6579992  24.8804990  18.5339997
  92.7923407  25.6765670  18.8568312  91.9679992  27.0764990  24.6359997
  91.8179992  26.1314990  24.6159997  91.6139992  27.3574990  25.4799997
  91.8996351  26.9851656  24.7473202  77.0029992  29.1544990  28.6469997
  77.1869992  29.0724990  27.7109997  77.8519992  29.0304990  29.0699997
  77.1430132  29.1265066  28.5761460  92.8239992  29.0464990  34.2749997
  93.4069992  28.3114990  34.4669997  93.3879992  29.8184990  34.3219997
  92.9799781  29.0503156  34.3076146  92.0459992  23.1034990  18.1329997
  92.6559992  22.7324990  18.7699997  91.2089992  22.6824990  18.3289997
  92.0163704  22.9957942  18.2467077  91.6779992  24.6584990  23.0989997
  91.9579992  23.7514990  23.2229997  92.4369992  25.0924990  22.7099997
  91.8189258  24.5930935  23.0633691  92.2899992  25.2404990  28.5349997
  93.2229992  25.4524990  28.4999997  92.0549992  25.3414990  29.4569997
  92.3859517  25.2831844  28.6549113  92.3189992  25.9774990  31.3109997
  91.4759992  26.2454990  31.6759997  92.7619992  26.7994990  31.0999997
  92.2634035  26.1253351  31.3324770  76.5999992  24.4244990  34.7869997
  77.5199992  24.3024990  35.0239997  76.1509992  23.6744990  35.1769997
  76.6650500  24.3064576  34.8721016  92.2919992  21.9214990  23.1469997
  92.4739992  21.4724990  23.9719997  91.6919992  21.3374990  22.6829997
  92.2358187  21.7810563  23.1972721  51.5189992  38.2924990  94.0139997
  51.5959992  37.8664990  94.8679997  52.4129992  38.3054990  93.6719997
  51.6503315  38.2360320  94.0845052  77.8219992  22.7374990  27.6789997
  78.2669992  21.9454990  27.9809997  78.2879992  23.4534990  28.1089997
  77.9459718  22.7259546  27.7785247  76.1259992  25.7364990  28.7479997
  76.6179992  25.5154990  27.9569997  76.4879992  26.5764990  29.0289997
  76.2422923  25.8198480  28.6777389  94.1219992  22.0664990  35.0129997
  93.2049992  22.3374990  34.9769997  94.2449992  21.5314990  34.2289997
  94.0130828  22.0312711  34.9020767  94.1579992  21.9894990  19.6749997
  94.5709992  21.2684990  19.1999997  94.8399992  22.6584990  19.7329997
  94.3066060  21.9813741  19.6179233  76.4389992  21.9944990  22.8019997
  75.5139992  22.2024990  22.6729997  76.8929992  22.4784990  22.1119997
  76.3736298  22.0884311  22.6910433  91.2099992  36.9784990  24.7479997
  91.8619992  36.6304990  24.1399997  91.7209992  37.4664990  25.3939997
  91.3682872  36.9968248  24.7520964  76.4029992  20.7324990  31.1459997
  75.7379992  20.4864990  31.7889997  75.9599992  21.3544990  30.5689997
  76.2521168  20.7829225  31.1559830  81.5489992  34.8814990  31.5489997
  81.1239992  35.6914990  31.2669997  82.4529992  34.9674990  31.2469997
  81.6130706  35.0039557  31.4695836  93.1229992  20.1564990  32.8319997
  92.3099992  20.4814990  32.4449997  93.3559992  19.3954990  32.2989997
  93.0431347  20.0981891  32.7069824  78.9509992  38.1384990  31.5969997
  78.2299992  38.5784990  31.1459997  78.5849992  37.8874990  32.4449997
  78.8029632  38.1647235  31.6499649  54.6959992  54.3644990  92.7069997
  53.9139992  54.1784990  92.1869997  54.6239992  55.2944990  92.9239997
  54.5792975  54.4646973  92.6651823  81.4179992  37.7384990  30.6259997
  80.5529992  37.8104990  31.0299997  81.3629992  38.2854990  29.8429997
  81.2922289  37.8223242  30.5753749  86.1289992  37.6264990  29.8019997
  85.6719992  38.1554990  29.1479997  86.2909992  38.2294990  30.5269997
  86.0883919  37.7803990  29.8105740  88.4559992  36.5044990  30.7469997
  87.5519992  36.6694990  30.4809997  88.8849992  37.3574990  30.6809997
  88.3902017  36.6424184  30.7016495  91.0599992  38.0744990  31.0419997
  90.8789992  38.9904990  30.8309997  91.2369992  37.6634990  30.1949997
  91.0591377  38.1443365  30.8987178  78.3659992  36.7614990  28.5069997
  78.3469992  36.3354990  29.3639997  79.1699992  36.4424990  28.0979997
  78.4721393  36.6600297  28.5690155  80.5069992  35.4714990  27.1619997
  80.2879992  34.5544990  27.3319997  81.3309992  35.6114990  27.6279997
  80.5884702  35.3650523  27.2482510  83.0439992  35.9414990  28.0109997
  83.2569992  35.0534990  27.7239997  83.1089992  35.9064990  28.9649997
  83.0819149  35.8153338  28.1007351  86.5529992  21.6054990  27.1549997
  85.8779992  20.9754990  27.4109997  87.1169992  21.1214990  26.5519997
  86.5369363  21.4538886  27.1084810  91.6949992  19.7124990  27.2679997
  92.2989992  20.2604990  26.7659997  90.8259992  20.0314990  27.0269997
  91.6600419  19.8305628  27.1667741  93.4219992  20.8514990  25.6009997
  94.0339992  20.3374990  25.0739997  93.8049992  21.7284990  25.6239997
  93.5573867  20.8997613  25.5320888  69.1019992  48.2514990  82.7369997
  69.1909992  49.1954990  82.6049997  68.4629992  47.9764990  82.0789997
  69.0278319  48.3434984  82.6300276  78.8789992  20.2394990  24.9769997
  78.1019992  20.0044990  24.4699997  79.4099992  19.4424990  24.9859997
  78.8443735  20.0996462  24.9088090  77.7159992  20.0374990  20.7809997
  78.1549992  20.6484990  20.1889997  77.0819992  20.5754990  21.2549997
  77.6903859  20.1939076  20.7640287  83.4589992  20.1654990  24.7899997
  84.3329992  20.5544990  24.7609997  83.3229992  19.9504990  25.7129997
  83.5601953  20.1896654  24.9107599  89.0149992  20.1954990  26.4399997
  89.0919992  20.2914990  25.4899997  88.7399992  19.2884990  26.5679997
  88.9883233  20.0859093  26.3273665  90.3689992  20.2214990  22.1319997
  89.6659992  20.8364990  21.9219997  89.9239992  19.3844990  22.2629997
  90.2126550  20.1924679  22.1209819  77.6169992  35.9854990  21.6779997
  76.9319992  35.9474990  21.0109997  77.6199992  36.8974990  21.9659997
  77.5236806  36.1036669  21.6256961  79.5769992  21.9534990  19.2229997
  80.0679992  21.3234990  18.6959997  80.1999992  22.2494990  19.8859997
  79.7285304  21.9072387  19.2404922  84.6029992  22.2464990  21.6799997
  84.7809992  21.5994990  22.3629997  84.5489992  23.0804990  22.1469997
  84.6200678  22.2706615  21.8366283  86.4809992  37.1944990  20.0759997
  87.3469992  37.5614990  19.8979997  86.2339992  36.7554990  19.2619997
  86.5661853  37.1854021  19.9415813  93.1899992  36.7574990  22.7549997
  92.9959992  36.0094990  22.1899997  93.1509992  37.5154990  22.1719997
  93.1581645  36.7575797  22.5988131  68.0349992  47.5064990  86.1559997
  67.9959992  46.8604990  86.8609997  67.7119992  47.0394990  85.3849997
  67.9860199  47.3550089  86.1482865  79.4349992  36.9054990  18.7029997
  79.1669992  37.1914990  19.5769997  80.2059992  36.3594990  18.8559997
  79.5025927  36.8707790  18.8431188 106.8139992  29.3954990  24.9359997
 106.9029992  30.3394990  24.8029997 106.1749992  29.1204990  24.2779997
 106.7398378  29.4873846  24.8289258 105.7469992  28.6504990  28.3549997
 105.7079992  28.0044990  29.0599997 105.4239992  28.1834990  27.5829997
 105.6980469  28.4990005  28.3472803  98.1149992  28.2644990  29.9479997
  98.1559992  27.6394990  30.6709997  98.8179992  28.8884990  30.1299997
  98.2156223  28.2632318  30.0716164 109.4529992  31.5894990  26.6559997
 109.0119992  30.8694990  27.1069997 109.4399992  32.3104990  27.2859997
 109.3909215  31.5884303  26.8028088  99.0389992  32.7144990  28.4829997
  98.6689992  31.9124990  28.1129997  99.9799992  32.5464990  28.5289997
  99.1155984  32.5819649  28.4385586  95.6489992  26.3744990  23.8749997
  95.2009992  27.2204990  23.8569997  95.0879992  25.7954990  23.3599997
  95.5118546  26.4119004  23.8028874  96.3589992  28.5364990  26.0009997
  96.5729992  27.7664990  26.5279997  97.0969992  28.6264990  25.3979997
  96.4880073  28.4433546  25.9915786 106.5639992  36.6934990  26.8679997
 107.1839992  36.0174990  26.5949997 106.3559992  36.4754990  27.7769997
 106.6207679  36.5715032  26.9534518 104.1359992  31.0824990  28.7609997
 104.4399992  30.3964990  28.1659997 104.8579992  31.2014990  29.3789997
 104.2751240  31.0047325  28.7630941  60.4029992  47.1204990  87.7489997
  60.4439992  46.4954990  88.4729997  61.1059992  47.7444990  87.9309997
  60.5036054  47.1193262  87.8726311 112.7989992  22.6844990  29.6209997
 112.8479992  23.2944990  30.3569997 113.2249992  23.1454990  28.8979997
 112.8632851  22.8303266  29.6240532 107.2769992  25.4764990  29.0879997
 107.4189992  24.5304990  29.1079997 107.1709992  25.6834990  28.1599997
 107.2821051  25.3749706  28.9652249 100.4319992  23.5784990  26.3609997
 100.4749992  24.4384990  25.9419997  99.9739992  23.0254990  25.7269997
 100.3760163  23.6214174  26.2180604 108.1539992  23.7094990  24.7609997
 108.7999992  23.3804990  25.3859997 108.6639992  24.2264990  24.1389997
 108.3114289  23.7344333  24.7623681  97.0519992  25.9754990  27.1229997
  97.7059992  25.4254990  27.5549997  97.0759992  25.7014990  26.2059997
  97.1447199  25.8632178  27.0581650 102.2079992  27.5254990  26.3379997
 102.8239992  26.9984990  26.8469997 101.6219992  26.8854990  25.9339997
 102.2130652  27.3668919  26.3530277 113.1909992  24.1624990  31.8569997
 112.5019992  24.8204990  31.7619997 113.2059992  23.9644990  32.7939997
 113.0987756  24.2257614  31.9705795  99.2419992  22.4964990  30.4349997
  99.0229992  23.0264990  29.6679997  98.5739992  22.7224990  31.0819997
  99.1216975  22.5995979  30.4175123 106.6109992  31.9964990  23.9789997
 106.3149992  31.6734990  23.1269997 106.2869992  32.8964990  24.0199997
 106.5267458  32.0739678  23.8680598 101.8109992  30.1714990  30.7219997
 101.0709992  30.7704990  30.8259997 102.5249992  30.7254990  30.4059997
 101.8063146  30.3282611  30.6935150  71.7409992  50.4454990  84.4579997
  71.2999992  49.7254990  84.9079997  71.7279992  51.1664990  85.0879997
  71.6788398  50.4443187  84.6047734 109.9179992  23.0004990  26.7419997
 109.7029992  22.2344990  27.2749997 110.5739992  23.4724990  27.2549997
 109.9772673  22.9595739  26.8841972  98.8359992  24.3884990  28.3869997
  99.4489992  25.0214990  28.7599997  99.3479992  23.9164990  27.7309997
  98.9891933  24.4113380  28.3493477 100.2179992  32.1364990  31.5089997
 100.2129992  33.0154990  31.1309997  99.3649992  32.0524990  31.9339997
 100.1019199  32.2455901  31.5146942  96.3399992  31.8074990  22.2909997
  96.0679992  32.0364990  21.4019997  96.3849992  32.6444990  22.7519997
  96.3088360  31.9521034  22.2316186 109.9649992  33.4284990  29.0039997
 109.0229992  33.4874990  29.1659997 110.2409992  34.3344990  28.8669997
 109.8735865  33.5590299  29.0076174 110.2649992  21.7154990  30.4209997
 109.5289992  22.3254990  30.3839997 110.9489992  22.1304990  29.8949997
 110.2565367  21.8552562  30.3448156 103.2679992  19.8014990  27.8869997
 103.1509992  18.8534990  27.8329997 102.4129992  20.1344990  28.1599997
 103.1363691  19.7165842  27.9165072 108.2169992  35.2094990  25.6289997
 108.6419992  34.5024990  25.1439997 108.5339992  36.0114990  25.2119997
 108.3180266  35.2210201  25.5062461 109.3759992  33.1104990  24.1379997
 109.1189992  32.4204990  23.5259997 109.4469992  32.6674990  24.9829997
 109.3504322  32.9561568  24.1685372 105.5349992  28.6394990  22.3879997
 104.8229992  29.1744990  22.0359997 106.2259992  28.6944990  21.7279997
 105.5309704  28.7201663  22.2505797  61.3269992  51.5704990  86.2839997
  60.9569992  50.7684990  85.9149997  62.2679992  51.4024990  86.3309997
  61.4035630  51.4378680  86.2397873 105.5889992  27.0964990  19.4259997
 106.2899992  27.1194990  20.0779997 105.8909992  26.4684990  18.7699997
 105.7258202  27.0147223  19.4265591 112.9039992  28.0174990  30.6809997
 112.2519992  28.7114990  30.7699997 113.3689992  28.2274990  29.8709997
 112.8775357  28.1409544  30.5837056 108.9409992  28.8484990  23.3389997
 108.2089992  29.0774990  23.9119997 109.3879992  28.1354990  23.7939997
 108.9012753  28.7833984  23.4789698 100.5859992  29.4794990  25.2219997
 100.2559992  29.1084990  24.4039997 101.1739992  28.8084990  25.5689997
 100.6203182  29.3380648  25.1569898 101.9529992  32.9074990  27.9029997
 101.8579992  32.3284990  27.1469997 102.6819992  32.5364990  28.3989997
 102.0386011  32.7780572  27.8666011 100.9529992  28.2474990  28.8549997
 101.5179992  28.3694990  28.0929997 101.2709992  28.8854990  29.4939997
 101.0733619  28.3504388  28.8370019 107.2619992  33.7514990  29.5889997
 107.0209992  34.4134990  30.2369997 107.0639992  32.9164990  30.0139997
 107.2022662  33.7292704  29.7351008 101.8329992  32.6474990  33.5729997
 101.5209992  33.4294990  34.0279997 101.1829992  32.4944990  32.8869997
 101.7024858  32.7337882  33.5425344 107.8119992  28.0114990  21.0249997
 108.3909992  28.1614990  21.7709997 108.2259992  28.4814990  20.3009997
 107.9473358  28.0955966  21.0293935  98.7529992  28.8454990  32.8009997
  98.8229992  29.4964990  33.4999997  97.8619992  28.9484990  32.4659997
  98.6421690  28.9484261  32.8513026  58.6469992  47.3924990  83.8029997
  58.8609992  46.6224990  84.3299997  59.3849992  47.4824990  83.1999997
  58.7760073  47.2993546  83.7935786 105.5379992  34.7474990  24.4599997
 106.0119992  35.0434990  25.2369997 104.9749992  35.4864990  24.2269997
 105.5267890  34.8878047  24.5348084 100.0719992  34.7184990  34.3359997
 100.0799992  34.5824990  33.3889997  99.1559992  34.6014990  34.5879997
  99.9492528  34.6840475  34.2403226 111.5099992  19.7614990  20.8369997
 110.6099992  19.8994990  21.1329997 111.7619992  20.5924990  20.4359997
 111.4207727  19.8928705  20.8232935  99.5759992  28.5484990  22.8109997
  99.2839992  29.3164990  22.3199997  98.9019992  27.8894990  22.6479997
  99.4448843  28.5644537  22.7217695 112.6999992  34.1274990  19.2139997
 112.7729992  35.0664990  19.3839997 113.6049992  33.8224990  19.1579997
 112.8324170  34.2148294  19.2297045  95.6689992  30.9114990  31.6259997
  95.1679992  30.8834990  30.8109997  95.6749992  30.0064990  31.9359997
  95.6011690  30.7852234  31.5562770  95.4199992  33.6924990  28.5099997
  96.3659992  33.5474990  28.4909997  95.3069992  34.4764990  29.0469997
  95.5343578  33.7786708  28.5800300 113.6169992  34.3584990  34.1929997
 113.5679992  33.4024990  34.1549997 112.7909992  34.6254990  34.5939997
 113.4985096  34.2638416  34.2420698 105.0099992  37.7044990  22.8749997
 104.9349992  37.5834990  21.9279997 105.0429992  38.6534990  22.9929997
 105.0042083  37.8162639  22.7614973  98.6639992  36.4934990  24.6559997
  98.8159992  36.1454990  25.5339997  97.8129992  36.1364990  24.3999997
  98.5698344  36.3975891  24.7416851  68.8519992  55.5494990  84.6699997
  69.4719992  54.8734990  84.3969997  68.6439992  55.3314990  85.5779997
  68.9087360  55.4274792  84.7554387 108.1119992  36.8584990  19.8769997
 108.4869992  36.1144990  19.4059997 108.1159992  36.5884990  20.7949997
 108.1638969  36.7200920  19.9366475 107.7809992  36.7844990  22.6259997
 106.8459992  36.8844990  22.8049997 108.0609992  36.0744990  23.2049997
 107.6909471  36.7022944  22.7286678  97.9179992  32.2354990  32.6689997
  98.1339992  31.8734990  33.5289997  97.0629992  31.8604990  32.4599997
  97.8319082  32.1353377  32.7582396 100.5369992  20.7054990  28.6649997
  99.6749992  20.6184990  28.2569997 100.5149992  21.5614990  29.0929997
 100.4160557  20.8093078  28.6670202 105.1999992  20.4274990  32.0399997
 105.6199992  20.0124990  32.7929997 104.2669992  20.2484990  32.1569997
 105.1313736  20.3464921  32.1588950 109.2889992  29.0434990  18.6539997
 109.3309992  28.8214990  17.7239997 110.1379992  29.4424990  18.8439997
 109.4095253  29.0670510  18.5523804 104.8619992  22.9194990  19.3249997
 104.6079992  22.9384990  20.2469997 104.6049992  22.0484990  19.0229997
 104.7924508  22.8043292  19.4104786 100.6279992  25.6704990  29.7599997
  99.9859992  25.6304990  30.4689997 100.6649992  26.5974990  29.5219997
 100.5451659  25.7902540  29.8248463 100.6249992  25.8914990  24.6719997
  99.7319992  25.5514990  24.6129997 101.0759992  25.5144990  23.9159997
 100.5637185  25.7940220  24.5617698 106.1609992  26.3074990  23.4889997
 105.7519992  27.1224990  23.1969997 106.8809992  26.1674990  22.8749997
 106.2024439  26.4000383  23.3660098  66.4239992  49.9384990  86.5619997
  66.7279992  49.2524990  85.9679997  67.1459992  50.0574990  87.1799997
  66.5631152  49.8607201  86.5642106 107.1649992  25.7534990  26.3029997
 106.9699992  26.3594990  25.5879997 107.3469992  24.9204990  25.8689997
 107.1629195  25.7237936  26.1464079  98.3779992  25.9914990  31.6269997
  98.3399992  26.3914990  32.4959997  97.8869992  25.1744990  31.7169997
  98.3064374  25.9358228  31.7580980 101.7439992  23.3654990  18.4259997
 101.3129992  22.9204990  19.1549997 101.0259992  23.7364990  17.9129997
 101.5879176  23.3547063  18.4564913  94.9859992  23.1074990  25.4779997
  95.6169992  23.0784990  26.1969997  95.4359992  22.6824990  24.7469997
  95.1331082  23.0461269  25.4776307  96.2599992  23.8534990  20.9019997
  96.7349992  24.4444990  20.3169997  95.5429992  24.3834990  21.2489997
  96.2280406  24.0061011  20.8688495 106.4289992  27.3914990  30.9739997
 106.7529992  26.7604990  30.3309997 105.9889992  26.8574990  31.6349997
 106.4138707  27.2328261  30.9753195 103.2069992  23.3194990  25.7579997
 102.2959992  23.3764990  26.0469997 103.7119992  23.2594990  26.5689997
 103.1506873  23.3191838  25.9071190  98.0349992  24.9484990  24.5849997
  97.1459992  25.0474990  24.2449997  98.3309992  24.1064990  24.2389997
  97.9534001  24.8482473  24.4917318 101.6879992  24.9484990  22.2419997
 102.6199992  25.0774990  22.4199997 101.4729992  25.6174990  21.5919997
 101.7864472  25.0565817  22.1784873 107.6119992  22.5544990  29.0219997
 106.9349992  22.6854990  29.6859997 107.1259992  22.3994990  28.2119997
 107.4537265  22.5514665  29.0033380  75.0869992  41.5404990  87.4229997
  75.1359992  42.1504990  88.1589997  75.5129992  42.0014990  86.6999997
  75.1512851  41.6863266  87.4260532 100.3619992  26.1424990  19.8079997
  99.8199992  25.7634990  19.1169997 101.1959992  26.3374990  19.3799997
 100.4004390  26.1169091  19.6554374  98.4969992  30.6994990  34.9069997
  99.2289992  30.9544990  35.4689997  97.7169992  30.9044990  35.4229997
  98.4916526  30.7620438  35.0535168 104.5269992  26.1064990  27.6449997
 105.0909992  25.5604990  27.0979997 104.3789992  25.5854990  28.4339997
 104.5843037  25.9611798  27.6767212  99.5289992  22.2434990  24.0639997
  99.2109992  21.3404990  24.0279997 100.3099992  22.2454990  23.5109997
  99.5911079  22.1202240  23.9842908 103.1529992  24.4954990  30.0589997
 102.3179992  24.9494990  30.1699997 103.6769992  24.7714990  30.8109997
 103.1096072  24.5948960  30.1758118 103.6969992  30.7084990  21.7439997
 102.9519992  30.2004990  21.4219997 103.5629992  30.7574990  22.6899997
 103.5769334  30.6456144  21.8278892 110.8469992  29.8414990  30.5309997
 111.4889992  30.2974990  29.9869997 110.0169992  29.9544990  30.0679997
 110.8226536  29.9191813  30.3939579 107.5949992  23.5224990  19.9429997
 106.6559992  23.6334990  19.7919997 107.8919992  24.3784990  20.2499997
 107.5066136  23.6534977  19.9638568 105.2169992  30.8924990  32.9809997
 104.8709992  30.5104990  33.7879997 105.0169992  31.8254990  33.0519997
 105.1425987  30.9664013  33.1010443 108.3129992  25.3894990  21.6039997
 109.2049992  25.2514990  21.9229997 108.3699992  26.1804990  21.0669997
 108.4427380  25.4774777  21.5750981  69.5649992  44.3324990  86.8899997
  69.7069992  43.3864990  86.9099997  69.4589992  44.5394990  85.9609997
  69.5701158  44.2309722  86.7672241  98.8219992  30.0034990  27.5139997
  99.5669992  30.0004990  26.9119997  98.8999992  29.1794990  27.9949997
  98.9343365  29.8917395  27.4967412 105.8229992  32.1664990  20.7689997
 105.5279992  32.9934990  21.1509997 105.1199992  31.5474990  20.9659997
 105.6876379  32.1959182  20.8478636  95.8299992  28.4634990  32.8289997
  96.0529992  28.0454990  33.6599997  95.2279992  27.8514990  32.4059997
  95.7791513  28.3234617  32.8856722 113.1979992  25.5984990  21.2989997
 112.6439992  25.2024990  20.6259997 113.2989992  26.5094990  21.0209997
 113.1358589  25.6673904  21.1693839 111.4929992  34.3844990  21.7639997
 111.1209992  33.5594990  22.0729997 111.7709992  34.2014990  20.8659997
 111.4795807  34.2467031  21.6850063 108.6539992  29.1924990  28.7849997
 107.7259992  28.9614990  28.7579997 109.1049992  28.4154990  28.4549997
 108.5878165  29.0557785  28.7366772 101.1969992  33.5214990  24.9179997
 101.7239992  34.2944990  24.7179997 100.3169992  33.7454990  24.6159997
 101.1502121  33.6577344  24.8497460  96.9519992  28.3834990  19.5049997
  97.5679992  29.0104990  19.8849997  96.0899992  28.6994990  19.7769997
  96.9197678  28.5119423  19.5937192 102.6239992  31.1844990  24.4939997
 102.3829992  32.1094990  24.5359997 101.8839992  30.7254990  24.8909997
 102.4909463  31.2490969  24.5534279 103.1389992  35.3334990  30.8089997
 103.5019992  36.1874990  30.5759997 103.6709992  35.0414990  31.5499997
 103.2605141  35.4108907  30.8772079  70.4419992  42.5654990  82.5629997
  71.0879992  42.2364990  83.1879997  70.9519992  43.0824990  81.9399997
  70.5994392  42.5903710  82.5643248 101.3069992  36.2054990  24.0399997
 100.3579992  36.3114990  24.0909997 101.6589992  37.0264990  24.3839997
 101.2245647  36.3310029  24.0934882 106.6829992  31.4324990  30.5099997
 106.2569992  31.2044990  31.3359997 107.2639992  30.6934990  30.3279997
 106.7032088  31.3014393  30.5984454 108.8859992  32.3614990  19.5839997
 109.2389992  31.9814990  20.3879997 107.9369992  32.2674990  19.6709997
 108.8060956  32.2967867  19.7058005 109.3419992  35.9844990  32.9789997
 108.7399992  35.4284990  32.4839997 109.6229992  36.6514990  32.3529997
 109.2975757  35.9985755  32.8265657 113.3889992  36.8404990  19.7849997
 114.1329992  37.4264990  19.6449997 112.6949992  37.4094990  20.1179997
 113.3969809  36.9975830  19.8108572  97.4639992  23.2174990  32.3869997
  96.5709992  23.5554990  32.3189997  97.3649992  22.3614990  32.8049997
  97.3284752  23.1480986  32.4341644 109.7519992  31.0334990  21.8109997
 109.4749992  30.3054990  22.3669997 110.6789992  31.1524990  22.0159997
 109.8394419  30.9499436  21.9148264  97.1149992  35.0214990  30.8219997
  97.3319992  34.0894990  30.7909997  97.3619992  35.2964990  31.7049997
  97.1780948  34.9310976  30.9371268 102.9769992  33.4734990  18.0309997
 103.2159992  32.7244990  17.4839997 102.7079992  33.0854990  18.8639997
 102.9733233  33.3186865  18.0687791 101.9139992  33.0434990  20.4869997
 102.0609992  32.5234990  21.2769997 101.9109992  33.9504990  20.7939997
 101.9337102  33.0948964  20.6365907  64.4959992  46.3814990  84.1399997
  65.1119992  45.8544990  84.6489997  63.9099992  45.7414990  83.7359997
  64.5010652  46.2228919  84.1550277  98.3669992  30.2954990  20.9979997
  97.6809992  30.6484990  21.5649997  98.8899992  31.0584990  20.7509997
  98.3438402  30.4468912  21.0421783 106.1979992  22.9584990  31.2769997
 106.8969992  23.0324990  31.9269997 105.8179992  22.0934990  31.4309997
 106.2422662  22.8517050  31.3867412 106.9829992  22.6104990  22.3739997
 107.2029992  23.0814990  21.5699997 107.5409992  23.0044990  23.0439997
 107.0886044  22.7282946  22.3545207 104.6519992  34.7404990  21.2369997
 103.8349992  35.2374990  21.2889997 105.1809992  35.2164990  20.5959997
 104.6118125  34.8727000  21.1575289 104.1829992  24.3384990  23.2089997
 104.9949992  24.8424990  23.2549997 103.9379992  24.1934990  24.1229997
 104.2611091  24.3879366  23.3388552 104.7189992  25.3244990  32.3929997
 104.8379992  25.8984990  33.1499997 105.3739992  24.6364990  32.5079997
 104.8238684  25.3100205  32.5121656 105.0669992  21.4194990  24.1469997
 104.7199992  22.0364990  24.7909997 105.7249992  21.9204990  23.6649997
 105.1084430  21.5716860  24.1700046 101.9899992  35.7844990  21.2179997
 102.1509992  36.5844990  20.7179997 101.7929992  36.0914990  22.1029997
 101.9853906  35.9353690  21.2692316 100.7239992  22.4824990  20.8339997
 100.6409992  23.3704990  21.1809997 101.6139992  22.2174990  21.0659997
 100.8329331  22.5681177  20.9128067 110.9229992  23.2314990  33.2279997
 110.0069992  23.4934990  33.1409997 111.2589992  23.2284990  32.3319997
 110.8428499  23.2670174  33.0948748  75.4789992  43.0184990  89.6589997
  74.7899992  43.6764990  89.5639997  75.4939992  42.8204990  90.5959997
  75.3867756  43.0817614  89.7725795 109.5249992  26.9814990  27.3239997
 108.7279992  26.5664990  26.9959997 109.9699992  26.2914990  27.8149997
 109.4760367  26.8313372  27.3454897  98.9829992  32.9094990  19.8939997
  99.5749992  33.6094990  20.1709997  99.4419992  32.4764990  19.1749997
  99.1261652  32.9467686  19.8346515  97.2989992  25.5744990  19.0099997
  97.2539992  26.5134990  19.1889997  96.4109992  25.3384990  18.7409997
  97.1728166  25.6711698  18.9981507 110.6119992  36.2374990  28.9459997
 110.4559992  36.9164990  28.2889997 111.5439992  36.3094990  29.1489997
 110.7167328  36.3401586  28.8835529  98.1069992  20.3554990  27.6829997
  97.8779992  20.4144990  26.7559997  97.6639992  19.5644990  27.9899997
  98.0157387  20.2566412  27.5975223  97.0369992  34.2964990  23.8439997
  96.2049992  34.7684990  23.8709997  97.5829992  34.8064990  23.2449997
  96.9968710  34.4300317  23.7667570 105.0149992  35.3364990  18.1689997
 104.3709992  34.7054990  18.4909997 105.7769992  34.8054990  17.9379997
 105.0298708  35.1783171  18.1818461 107.4999992  34.2084990  35.5229997
 107.1489992  33.3514990  35.7659997 108.2259992  34.3504990  36.1299997
 107.5501590  34.1105189  35.6382889 109.6189992  35.1534990  18.4029997
 109.9019992  34.3584990  18.8559997 110.3589992  35.3864990  17.8419997
 109.7577295  35.0762349  18.3891469 100.5739992  31.0624990  18.2609997
 100.6379992  30.2684990  18.7909997 101.2269992  30.9444990  17.5709997
 100.6710483  30.9377496  18.2403407  61.5299992  41.3524990  88.2359997
  61.3109992  41.8824990  87.4699997  60.8619992  41.5784990  88.8839997
  61.4097271  41.4556508  88.2186206 105.9259992  32.1094990  17.9969997
 105.6579992  32.2904990  18.8969997 105.7199992  31.1844990  17.8649997
 105.8613443  32.0091873  18.1026643 101.7229992  29.0354990  20.5669997
 101.2639992  28.5514990  21.2519997 101.9779992  28.3664990  19.9309997
 101.6945997  28.8788491  20.5748734 102.7939992  27.2784990  18.8289997
 102.6139992  27.1234990  17.9019997 103.7439992  27.3864990  18.8739997
 102.8977804  27.2718821  18.7081966 112.1839992  29.6324990  18.2749997
 111.9109992  29.2084990  17.4619997 112.2239992  30.5644990  18.0579997
 112.1520201  29.7003523  18.1343548 101.3519992  24.2834990  34.0049997
 101.5019992  23.5544990  33.4029997 101.3539992  25.0604990  33.4459997
 101.3727967  24.2887720  33.8470523 101.7639992  22.6524990  31.4979997
 102.2999992  23.1044990  30.8459997 100.9119992  22.5444990  31.0749997
 101.7221795  22.6997444  31.3516211 103.3459992  28.0924990  31.7369997
 104.0969992  27.9364990  31.1639997 103.0069992  28.9444990  31.4619997
 103.4029587  28.1863149  31.6214060 102.5699992  20.1094990  31.9289997
 102.4719992  21.0554990  31.8239997 101.8269992  19.7364990  31.4529997
 102.4562123  20.1886811  31.8503204 102.6919992  37.9684990  19.8299997
 103.6249992  38.1264990  19.9739997 102.4269992  38.6444990  19.2049997
 102.7839846  38.0814567  19.7652930  96.2599992  32.6054990  19.3129997
  97.1739992  32.6844990  19.5859997  96.2669992  31.9184990  18.6469997
  96.3860624  32.5234074  19.2603045  68.8989992  50.8524990  81.7799997
  68.6029992  50.5294990  80.9289997  68.5749992  51.7524990  81.8219997
  68.8146501  50.9299058  81.6690893  94.9089992  37.9984990  24.3899997
  94.2619992  37.5364990  23.8579997  95.2639992  37.3264990  24.9729997
  94.8683741  37.8444785  24.3959157  95.7789992  36.0784990  26.1949997
  95.4449992  35.1984990  26.3669997  96.0009992  36.4244990  27.0599997
  95.7632565  36.0047410  26.3354263 113.3279992  36.8884990  29.1759997
 113.3059992  37.0734990  30.1139997 114.0179992  37.4564990  28.8349997
 113.4183383  36.9907104  29.2584580 112.8909992  36.4554990  32.0969997
 112.4039992  35.7194990  31.7259997 113.4399992  36.0614990  32.7749997
 112.8986101  36.3016267  32.1379034 112.6429992  30.5014990  22.2499997
 113.4929992  30.9224990  22.3769997 112.6479992  29.7614990  22.8569997
 112.7601143  30.4591106  22.3494732 113.0369992  28.5554990  24.0729997
 112.3109992  28.0754990  24.4709997 113.6179992  28.7604990  24.8049997
 113.0162504  28.5175592  24.2264199 112.7959992  31.3404990  29.0209997
 113.6299992  30.9624990  28.7399997 112.9079992  32.2834990  28.9019997
 112.9251917  31.4162954  28.9664844 111.2819992  34.2184990  31.3279997
 110.6349992  34.5434990  31.9529997 110.7649992  33.7774990  30.6539997
 111.1234112  34.2034133  31.3225272 113.3049992  28.4564990  20.4639997
 112.7839992  28.8124990  19.7459997 113.2719992  29.1314990  21.1429997
 113.2290955  28.5965023  20.4572634 111.6539992  25.6954990  19.0149997
 111.7509992  26.3624990  18.3349997 111.5139992  24.8804990  18.5339997
 111.6483407  25.6765670  18.8568312  64.0989992  49.0274990  88.5239997
  63.3589992  49.6264990  88.6269997  64.8129992  49.5814990  88.2079997
  64.0943288  49.1842368  88.4953787 110.8239992  27.0764990  24.6359997
 110.6739992  26.1314990  24.6159997 110.4699992  27.3574990  25.4799997
 110.7556351  26.9851656  24.7473202  95.8589992  29.1544990  28.6469997
  96.0429992  29.0724990  27.7109997  96.7079992  29.0304990  29.0699997
  95.9990132  29.1265066  28.5761460 113.1769992  26.9494990  34.9599997
 112.3129992  26.5704990  34.7939997 113.7809992  26.2104990  34.8849997
 113.1405394  26.7978378  34.9271778 110.9019992  23.1034990  18.1329997
 111.5119992  22.7324990  18.7699997 110.0649992  22.6824990  18.3289997
 110.8723704  22.9957942  18.2467077 110.5339992  24.6584990  23.0989997
 110.8139992  23.7514990  23.2229997 111.2929992  25.0924990  22.7099997
 110.6749258  24.5930935  23.0633691 111.1459992  25.2404990  28.5349997
 112.0789992  25.4524990  28.4999997 110.9109992  25.3414990  29.4569997
 111.2419517  25.2831844  28.6549113 111.1749992  25.9774990  31.3109997
 110.3319992  26.2454990  31.6759997 111.6179992  26.7994990  31.0999997
 111.1194035  26.1253351  31.3324770 111.1479992  21.9214990  23.1469997
 111.3299992  21.4724990  23.9719997 110.5479992  21.3374990  22.6829997
 111.0918187  21.7810563  23.1972721  96.6779992  22.7374990  27.6789997
  97.1229992  21.9454990  27.9809997  97.1439992  23.4534990  28.1089997
  96.8019718  22.7259546  27.7785247  94.9819992  25.7364990  28.7479997
  95.4739992  25.5154990  27.9569997  95.3439992  26.5764990  29.0289997
  95.0982923  25.8198480  28.6777389  72.2059992  41.8564990  84.5439997
  71.9909992  41.0904990  85.0759997  72.8619992  42.3284990  85.0569997
  72.2652451  41.8154472  84.6861699 113.0139992  21.9894990  19.6749997
 113.4269992  21.2684990  19.1999997 113.6959992  22.6584990  19.7329997
 113.1626060  21.9813741  19.6179233  95.2949992  21.9944990  22.8019997
  94.3699992  22.2024990  22.6729997  95.7489992  22.4784990  22.1119997
  95.2296298  22.0884311  22.6910433 110.0659992  36.9784990  24.7479997
 110.7179992  36.6304990  24.1399997 110.5769992  37.4664990  25.3939997
 110.2242872  36.9968248  24.7520964  95.2589992  20.7324990  31.1459997
  94.5939992  20.4864990  31.7889997  94.8159992  21.3544990  30.5689997
  95.1081168  20.7829225  31.1559830 100.4049992  34.8814990  31.5489997
  99.9799992  35.6914990  31.2669997 101.3089992  34.9674990  31.2469997
 100.4690706  35.0039557  31.4695836 111.9789992  20.1564990  32.8319997
 111.1659992  20.4814990  32.4449997 112.2119992  19.3954990  32.2989997
 111.8991347  20.0981891  32.7069824  97.8069992  38.1384990  31.5969997
  97.0859992  38.5784990  31.1459997  97.4409992  37.8874990  32.4449997
  97.6589632  38.1647235  31.6499649 100.2739992  37.7384990  30.6259997
  99.4089992  37.8104990  31.0299997 100.2189992  38.2854990  29.8429997
 100.1482289  37.8223242  30.5753749 104.9849992  37.6264990  29.8019997
 104.5279992  38.1554990  29.1479997 105.1469992  38.2294990  30.5269997
 104.9443919  37.7803990  29.8105740 107.3119992  36.5044990  30.7469997
 106.4079992  36.6694990  30.4809997 107.7409992  37.3574990  30.6809997
 107.2462017  36.6424184  30.7016495  62.5059992  50.9924990  89.3109997
  62.5009992  51.8714990  88.9329997  61.6529992  50.9084990  89.7359997
  62.3899199  51.1015901  89.3166942 109.9159992  38.0744990  31.0419997
 109.7349992  38.9904990  30.8309997 110.0929992  37.6634990  30.1949997
 109.9151377  38.1443365  30.8987178  97.2219992  36.7614990  28.5069997
  97.2029992  36.3354990  29.3639997  98.0259992  36.4424990  28.0979997
  97.3281393  36.6600297  28.5690155  99.3629992  35.4714990  27.1619997
  99.1439992  34.5544990  27.3319997 100.1869992  35.6114990  27.6279997
  99.4444702  35.3650523  27.2482510 101.8999992  35.9414990  28.0109997
 102.1129992  35.0534990  27.7239997 101.9649992  35.9064990  28.9649997
 101.9379149  35.8153338  28.1007351 105.4089992  21.6054990  27.1549997
 104.7339992  20.9754990  27.4109997 105.9729992  21.1214990  26.5519997
 105.3929363  21.4538886  27.1084810 110.5509992  19.7124990  27.2679997
 111.1549992  20.2604990  26.7659997 109.6819992  20.0314990  27.0269997
 110.5160419  19.8305628  27.1667741 112.2779992  20.8514990  25.6009997
 112.8899992  20.3374990  25.0739997 112.6609992  21.7284990  25.6239997
 112.4133867  20.8997613  25.5320888  97.7349992  20.2394990  24.9769997
  96.9579992  20.0044990  24.4699997  98.2659992  19.4424990  24.9859997
  97.7003735  20.0996462  24.9088090  96.5719992  20.0374990  20.7809997
  97.0109992  20.6484990  20.1889997  95.9379992  20.5754990  21.2549997
  96.5463859  20.1939076  20.7640287 102.3149992  20.1654990  24.7899997
 103.1889992  20.5544990  24.7609997 102.1789992  19.9504990  25.7129997
 102.4161953  20.1896654  24.9107599  72.2529992  52.2844990  86.8059997
  71.3109992  52.3434990  86.9669997  72.5289992  53.1904990  86.6689997
  72.1615771  52.4150270  86.8094827 107.8709992  20.1954990  26.4399997
 107.9479992  20.2914990  25.4899997 107.5959992  19.2884990  26.5679997
 107.8443233  20.0859093  26.3273665 109.2249992  20.2214990  22.1319997
 108.5219992  20.8364990  21.9219997 108.7799992  19.3844990  22.2629997
 109.0686550  20.1924679  22.1209819  96.4729992  35.9854990  21.6779997
  95.7879992  35.9474990  21.0109997  96.4759992  36.8974990  21.9659997
  96.3796806  36.1036669  21.6256961  98.4329992  21.9534990  19.2229997
  98.9239992  21.3234990  18.6959997  99.0559992  22.2494990  19.8859997
  98.5845304  21.9072387  19.2404922 103.4589992  22.2464990  21.6799997
 103.6369992  21.5994990  22.3629997 103.4049992  23.0804990  22.1469997
 103.4760678  22.2706615  21.8366283 105.3369992  37.1944990  20.0759997
 106.2029992  37.5614990  19.8979997 105.0899992  36.7554990  19.2619997
 105.4221853  37.1854021  19.9415813 112.0459992  36.7574990  22.7549997
 111.8519992  36.0094990  22.1899997 112.0069992  37.5154990  22.1719997
 112.0141645  36.7575797  22.5988131  98.2909992  36.9054990  18.7029997
  98.0229992  37.1914990  19.5769997  99.0619992  36.3594990  18.8559997
  98.3585926  36.8707790  18.8431188 111.2639992  35.5084990  34.9049997
 110.4819992  35.3224990  34.3849997 111.1919992  36.4384990  35.1219997
 111.1472975  35.6086973  34.8631822 125.6699992  29.3954990  24.9359997
 125.7589992  30.3394990  24.8029997 125.0309992  29.1204990  24.2779997
 125.5958378  29.4873846  24.8289258  72.5529992  40.5714990  88.2229997
  71.8169992  41.1814990  88.1849997  73.2369992  40.9864990  87.6969997
  72.5445885  40.7111924  88.1466931 124.6029992  28.6504990  28.3549997
 124.5639992  28.0044990  29.0599997 124.2799992  28.1834990  27.5829997
 124.5540469  28.4990005  28.3472803 116.9709992  28.2644990  29.9479997
 117.0119992  27.6394990  30.6709997 117.6739992  28.8884990  30.1299997
 117.0716223  28.2632318  30.0716164 128.3089992  31.5894990  26.6559997
 127.8679992  30.8694990  27.1069997 128.2959992  32.3104990  27.2859997
 128.2469215  31.5884303  26.8028088 117.8949992  32.7144990  28.4829997
 117.5249992  31.9124990  28.1129997 118.8359992  32.5464990  28.5289997
 117.9715984  32.5819649  28.4385586 114.5049992  26.3744990  23.8749997
 114.0569992  27.2204990  23.8569997 113.9439992  25.7954990  23.3599997
 114.3678546  26.4119004  23.8028874 115.2149992  28.5364990  26.0009997
 115.4289992  27.7664990  26.5279997 115.9529992  28.6264990  25.3979997
 115.3440073  28.4433546  25.9915786 125.4199992  36.6934990  26.8679997
 126.0399992  36.0174990  26.5949997 125.2119992  36.4754990  27.7769997
 125.4767679  36.5715032  26.9534518 122.9919992  31.0824990  28.7609997
 123.2959992  30.3964990  28.1659997 123.7139992  31.2014990  29.3789997
 123.1311240  31.0047325  28.7630941 131.6549992  22.6844990  29.6209997
 131.7039992  23.2944990  30.3569997 132.0809992  23.1454990  28.8979997
 131.7192851  22.8303266  29.6240532 126.1329992  25.4764990  29.0879997
 126.2749992  24.5304990  29.1079997 126.0269992  25.6834990  28.1599997
 126.1381051  25.3749706  28.9652249  65.5559992  38.6574990  85.6889997
  65.4389992  37.7094990  85.6349997  64.7009992  38.9904990  85.9619997
  65.4243691  38.5725842  85.7185072 119.2879992  23.5784990  26.3609997
 119.3309992  24.4384990  25.9419997 118.8299992  23.0254990  25.7269997
 119.2320163  23.6214174  26.2180604 127.0099992  23.7094990  24.7609997
 127.6559992  23.3804990  25.3859997 127.5199992  24.2264990  24.1389997
 127.1674289  23.7344333  24.7623681 115.9079992  25.9754990  27.1229997
 116.5619992  25.4254990  27.5549997 115.9319992  25.7014990  26.2059997
 116.0007199  25.8632178  27.0581650 121.0639992  27.5254990  26.3379997
 121.6799992  26.9984990  26.8469997 120.4779992  26.8854990  25.9339997
 121.0690652  27.3668919  26.3530277 132.0469992  24.1624990  31.8569997
 131.3579992  24.8204990  31.7619997 132.0619992  23.9644990  32.7939997
 131.9547756  24.2257614  31.9705795 118.0979992  22.4964990  30.4349997
 117.8789992  23.0264990  29.6679997 117.4299992  22.7224990  31.0819997
 117.9776975  22.5995979  30.4175123 125.4669992  31.9964990  23.9789997
 125.1709992  31.6734990  23.1269997 125.1429992  32.8964990  24.0199997
 125.3827458  32.0739678  23.8680598 120.6669992  30.1714990  30.7219997
 119.9269992  30.7704990  30.8259997 121.3809992  30.7254990  30.4059997
 120.6623146  30.3282611  30.6935150 128.7739992  23.0004990  26.7419997
 128.5589992  22.2344990  27.2749997 129.4299992  23.4724990  27.2549997
 128.8332673  22.9595739  26.8841972 117.6919992  24.3884990  28.3869997
 118.3049992  25.0214990  28.7599997 118.2039992  23.9164990  27.7309997
 117.8451933  24.4113380  28.3493477  70.5049992  54.0654990  83.4309997
  70.9299992  53.3584990  82.9459997  70.8219992  54.8674990  83.0139997
  70.6060266  54.0770201  83.3082461 119.0739992  32.1364990  31.5089997
 119.0689992  33.0154990  31.1309997 118.2209992  32.0524990  31.9339997
 118.9579199  32.2455901  31.5146942 115.1959992  31.8074990  22.2909997
 114.9239992  32.0364990  21.4019997 115.2409992  32.6444990  22.7519997
 115.1648360  31.9521034  22.2316186 128.8209992  33.4284990  29.0039997
 127.8789992  33.4874990  29.1659997 129.0969992  34.3344990  28.8669997
 128.7295865  33.5590299  29.0076174 129.1209992  21.7154990  30.4209997
 128.3849992  22.3254990  30.3839997 129.8049992  22.1304990  29.8949997
 129.1125367  21.8552562  30.3448156 122.1239992  19.8014990  27.8869997
 122.0069992  18.8534990  27.8329997 121.2689992  20.1344990  28.1599997
 121.9923691  19.7165842  27.9165072 127.0729992  35.2094990  25.6289997
 127.4979992  34.5024990  25.1439997 127.3899992  36.0114990  25.2119997
 127.1740266  35.2210201  25.5062461 128.2319992  33.1104990  24.1379997
 127.9749992  32.4204990  23.5259997 128.3029992  32.6674990  24.9829997
 128.2064322  32.9561568  24.1685372 129.9179992  31.6774990  32.6149997
 130.0579992  31.0854990  31.8759997 130.0859992  32.5504990  32.2589997
 129.9598734  31.7144041  32.4656937 124.3909992  28.6394990  22.3879997
 123.6789992  29.1744990  22.0359997 125.0819992  28.6944990  21.7279997
 124.3869704  28.7201663  22.2505797 124.4449992  27.0964990  19.4259997
 125.1459992  27.1194990  20.0779997 124.7469992  26.4684990  18.7699997
 124.5818202  27.0147223  19.4265591  71.6639992  51.9664990  81.9399997
  71.4069992  51.2764990  81.3279997  71.7349992  51.5234990  82.7849997
  71.6384322  51.8121568  81.9705372 131.7599992  28.0174990  30.6809997
 131.1079992  28.7114990  30.7699997 132.2249992  28.2274990  29.8709997
 131.7335357  28.1409544  30.5837056 127.7969992  28.8484990  23.3389997
 127.0649992  29.0774990  23.9119997 128.2439992  28.1354990  23.7939997
 127.7572753  28.7833984  23.4789698 127.6939992  27.0234990  32.4069997
 127.7739992  27.7864990  32.9789997 127.0929992  27.3024990  31.7169997
 127.6236547  27.1657468  32.3920029 119.4419992  29.4794990  25.2219997
 119.1119992  29.1084990  24.4039997 120.0299992  28.8084990  25.5689997
 119.4763182  29.3380648  25.1569898 120.8089992  32.9074990  27.9029997
 120.7139992  32.3284990  27.1469997 121.5379992  32.5364990  28.3989997
 120.8946011  32.7780572  27.8666011 119.8089992  28.2474990  28.8549997
 120.3739992  28.3694990  28.0929997 120.1269992  28.8854990  29.4939997
 119.9293619  28.3504388  28.8370019 126.1179992  33.7514990  29.5889997
 125.8769992  34.4134990  30.2369997 125.9199992  32.9164990  30.0139997
 126.0582662  33.7292704  29.7351008 126.6679992  28.0114990  21.0249997
 127.2469992  28.1614990  21.7709997 127.0819992  28.4814990  20.3009997
 126.8033358  28.0955966  21.0293935 124.3939992  34.7474990  24.4599997
 124.8679992  35.0434990  25.2369997 123.8309992  35.4864990  24.2269997
 124.3827890  34.8878047  24.5348084 130.3659992  19.7614990  20.8369997
 129.4659992  19.8994990  21.1329997 130.6179992  20.5924990  20.4359997
 130.2767727  19.8928705  20.8232935  73.3499992  50.5334990  90.4169997
  73.4899992  49.9414990  89.6779997  73.5179992  51.4064990  90.0609997
  73.3918734  50.5704041  90.2676937 118.4319992  28.5484990  22.8109997
 118.1399992  29.3164990  22.3199997 117.7579992  27.8894990  22.6479997
 118.3008843  28.5644537  22.7217695 131.5559992  34.1274990  19.2139997
 131.6289992  35.0664990  19.3839997 132.4609992  33.8224990  19.1579997
 131.6884170  34.2148294  19.2297045 114.5249992  30.9114990  31.6259997
 114.0239992  30.8834990  30.8109997 114.5309992  30.0064990  31.9359997
 114.4571690  30.7852234  31.5562770 114.2759992  33.6924990  28.5099997
 115.2219992  33.5474990  28.4909997 114.1629992  34.4764990  29.0469997
 114.3903578  33.7786708  28.5800300 123.8659992  37.7044990  22.8749997
 123.7909992  37.5834990  21.9279997 123.8989992  38.6534990  22.9929997
 123.8602083  37.8162639  22.7614973 117.5199992  36.4934990  24.6559997
 117.6719992  36.1454990  25.5339997 116.6689992  36.1364990  24.3999997
 117.4258344  36.3975891  24.7416851 126.9679992  36.8584990  19.8769997
 127.3429992  36.1144990  19.4059997 126.9719992  36.5884990  20.7949997
 127.0198969  36.7200920  19.9366475 126.6369992  36.7844990  22.6259997
 125.7019992  36.8844990  22.8049997 126.9169992  36.0744990  23.2049997
 126.5469471  36.7022944  22.7286678 116.7739992  32.2354990  32.6689997
 116.9899992  31.8734990  33.5289997 115.9189992  31.8604990  32.4599997
 116.6879082  32.1353377  32.7582396 119.3929992  20.7054990  28.6649997
 118.5309992  20.6184990  28.2569997 119.3709992  21.5614990  29.0929997
 119.2720557  20.8093078  28.6670202  67.8229992  47.4954990  80.1889997
  67.1109992  48.0304990  79.8379997  68.5139992  47.5504990  79.5289997
  67.8188696  47.5762591  80.0516372 124.0559992  20.4274990  32.0399997
 124.4759992  20.0124990  32.7929997 123.1229992  20.2484990  32.1569997
 123.9873736  20.3464921  32.1588950 127.3819992  24.1824990  32.8929997
 126.8679992  24.0574990  33.6909997 127.2269992  25.0954990  32.6489997
 127.2907802  24.2887433  32.9691504 128.1449992  29.0434990  18.6539997
 128.1869992  28.8214990  17.7239997 128.9939992  29.4424990  18.8439997
 128.2655253  29.0670510  18.5523804 123.7179992  22.9194990  19.3249997
 123.4639992  22.9384990  20.2469997 123.4609992  22.0484990  19.0229997
 123.6484508  22.8043292  19.4104786 119.4839992  25.6704990  29.7599997
 118.8419992  25.6304990  30.4689997 119.5209992  26.5974990  29.5219997
 119.4011659  25.7902540  29.8248463 119.4809992  25.8914990  24.6719997
 118.5879992  25.5514990  24.6129997 119.9319992  25.5144990  23.9159997
 119.4197185  25.7940220  24.5617698 125.0169992  26.3074990  23.4889997
 124.6079992  27.1224990  23.1969997 125.7369992  26.1674990  22.8749997
 125.0584439  26.4000383  23.3660098 126.0209992  25.7534990  26.3029997
 125.8259992  26.3594990  25.5879997 126.2029992  24.9204990  25.8689997
 126.0189195  25.7237936  26.1464079 117.2339992  25.9914990  31.6269997
 117.1959992  26.3914990  32.4959997 116.7429992  25.1744990  31.7169997
 117.1624374  25.9358228  31.7580980 120.5999992  23.3654990  18.4259997
 120.1689992  22.9204990  19.1549997 119.8819992  23.7364990  17.9129997
 120.4439176  23.3547063  18.4564913  67.8769992  45.9524990  77.2279997
  68.5779992  45.9754990  77.8789997  68.1789992  45.3244990  76.5719997
  68.0138282  45.8707350  77.2284478 113.8419992  23.1074990  25.4779997
 114.4729992  23.0784990  26.1969997 114.2919992  22.6824990  24.7469997
 113.9891082  23.0461269  25.4776307 115.1159992  23.8534990  20.9019997
 115.5909992  24.4444990  20.3169997 114.3989992  24.3834990  21.2489997
 115.0840406  24.0061011  20.8688495 125.2849992  27.3914990  30.9739997
 125.6089992  26.7604990  30.3309997 124.8449992  26.8574990  31.6349997
 125.2698707  27.2328261  30.9753195 122.0629992  23.3194990  25.7579997
 121.1519992  23.3764990  26.0469997 122.5679992  23.2594990  26.5689997
 122.0066873  23.3191838  25.9071190 116.8909992  24.9484990  24.5849997
 116.0019992  25.0474990  24.2449997 117.1869992  24.1064990  24.2389997
 116.8094001  24.8482473  24.4917318 120.5439992  24.9484990  22.2419997
 121.4759992  25.0774990  22.4199997 120.3289992  25.6174990  21.5919997
 120.6424472  25.0565817  22.1784873 126.4679992  22.5544990  29.0219997
 125.7909992  22.6854990  29.6859997 125.9819992  22.3994990  28.2119997
 126.3097265  22.5514665  29.0033380 119.2179992  26.1424990  19.8079997
 118.6759992  25.7634990  19.1169997 120.0519992  26.3374990  19.3799997
 119.2564390  26.1169091  19.6554374 123.3829992  26.1064990  27.6449997
 123.9469992  25.5604990  27.0979997 123.2349992  25.5854990  28.4339997
 123.4403037  25.9611798  27.6767212 118.3849992  22.2434990  24.0639997
 118.0669992  21.3404990  24.0279997 119.1659992  22.2454990  23.5109997
 118.4471079  22.1202240  23.9842908  75.1919992  46.8734990  88.4829997
  74.5399992  47.5674990  88.5719997  75.6569992  47.0834990  87.6729997
  75.1655357  46.9969544  88.3857056 122.0089992  24.4954990  30.0589997
 121.1739992  24.9494990  30.1699997 122.5329992  24.7714990  30.8109997
 121.9656072  24.5948960  30.1758118 122.5529992  30.7084990  21.7439997
 121.8079992  30.2004990  21.4219997 122.4189992  30.7574990  22.6899997
 122.4329334  30.6456144  21.8278892 129.7029992  29.8414990  30.5309997
 130.3449992  30.2974990  29.9869997 128.8729992  29.9544990  30.0679997
 129.6786536  29.9191813  30.3939579 126.4509992  23.5224990  19.9429997
 125.5119992  23.6334990  19.7919997 126.7479992  24.3784990  20.2499997
 126.3626136  23.6534977  19.9638568 127.1689992  25.3894990  21.6039997
 128.0609992  25.2514990  21.9229997 127.2259992  26.1804990  21.0669997
 127.2987380  25.4774777  21.5750981 117.6779992  30.0034990  27.5139997
 118.4229992  30.0004990  26.9119997 117.7559992  29.1794990  27.9949997
 117.7903365  29.8917395  27.4967412 124.6789992  32.1664990  20.7689997
 124.3839992  32.9934990  21.1509997 123.9759992  31.5474990  20.9659997
 124.5436379  32.1959182  20.8478636 114.6859992  28.4634990  32.8289997
 114.9089992  28.0454990  33.6599997 114.0839992  27.8514990  32.4059997
 114.6351513  28.3234617  32.8856722 126.3229992  33.3544990  32.9309997
 125.4219992  33.5374990  32.6639997 126.3569992  33.6134990  33.8519997
 126.2043861  33.4145245  33.0189517 132.0539992  25.5984990  21.2989997
 131.4999992  25.2024990  20.6259997 132.1549992  26.5094990  21.0209997
 131.9918589  25.6673904  21.1693839  71.2289992  47.7044990  81.1409997
  70.4969992  47.9334990  81.7139997  71.6759992  46.9914990  81.5959997
  71.1892753  47.6393984  81.2809698 130.3489992  34.3844990  21.7639997
 129.9769992  33.5594990  22.0729997 130.6269992  34.2014990  20.8659997
 130.3355807  34.2467031  21.6850063 127.5099992  29.1924990  28.7849997
 126.5819992  28.9614990  28.7579997 127.9609992  28.4154990  28.4549997
 127.4438165  29.0557785  28.7366772 120.0529992  33.5214990  24.9179997
 120.5799992  34.2944990  24.7179997 119.1729992  33.7454990  24.6159997
 120.0062121  33.6577344  24.8497460 115.8079992  28.3834990  19.5049997
 116.4239992  29.0104990  19.8849997 114.9459992  28.6994990  19.7769997
 115.7757678  28.5119423  19.5937192 121.4799992  31.1844990  24.4939997
 121.2389992  32.1094990  24.5359997 120.7399992  30.7254990  24.8909997
 121.3469463  31.2490969  24.5534279 121.9949992  35.3334990  30.8089997
 122.3579992  36.1874990  30.5759997 122.5269992  35.0414990  31.5499997
 122.1165141  35.4108907  30.8772079 120.1629992  36.2054990  24.0399997
 119.2139992  36.3114990  24.0909997 120.5149992  37.0264990  24.3839997
 120.0805647  36.3310029  24.0934882 125.5389992  31.4324990  30.5099997
 125.1129992  31.2044990  31.3359997 126.1199992  30.6934990  30.3279997
 125.5592088  31.3014393  30.5984454 127.7419992  32.3614990  19.5839997
 128.0949992  31.9814990  20.3879997 126.7929992  32.2674990  19.6709997
 127.6620956  32.2967867  19.7058005 128.1979992  35.9844990  32.9789997
 127.5959992  35.4284990  32.4839997 128.4789992  36.6514990  32.3529997
 128.1535757  35.9985755  32.8265657  71.1259992  45.8794990  90.2089997
  71.2059992  46.6424990  90.7809997  70.5249992  46.1584990  89.5179997
  71.0557115  46.0217707  90.1939631 132.2449992  36.8404990  19.7849997
 132.9889992  37.4264990  19.6449997 131.5509992  37.4094990  20.1179997
 132.2529809  36.9975830  19.8108572 116.3199992  23.2174990  32.3869997
 115.4269992  23.5554990  32.3189997 116.2209992  22.3614990  32.8049997
 116.1844752  23.1480986  32.4341644 128.6079992  31.0334990  21.8109997
 128.3309992  30.3054990  22.3669997 129.5349992  31.1524990  22.0159997
 128.6954419  30.9499436  21.9148264 115.9709992  35.0214990  30.8219997
 116.1879992  34.0894990  30.7909997 116.2179992  35.2964990  31.7049997
 116.0340948  34.9310976  30.9371268 121.8329992  33.4734990  18.0309997
 122.0719992  32.7244990  17.4839997 121.5639992  33.0854990  18.8639997
 121.8293233  33.3186865  18.0687791 120.7699992  33.0434990  20.4869997
 120.9169992  32.5234990  21.2769997 120.7669992  33.9504990  20.7939997
 120.7897102  33.0948964  20.6365907 117.2229992  30.2954990  20.9979997
 116.5369992  30.6484990  21.5649997 117.7459992  31.0584990  20.7509997
 117.1998402  30.4468912  21.0421783 125.0539992  22.9584990  31.2769997
 125.7529992  23.0324990  31.9269997 124.6739992  22.0934990  31.4309997
 125.0982662  22.8517050  31.3867412 125.8389992  22.6104990  22.3739997
 126.0589992  23.0814990  21.5699997 126.3969992  23.0044990  23.0439997
 125.9446044  22.7282946  22.3545207 123.5079992  34.7404990  21.2369997
 122.6909992  35.2374990  21.2889997 124.0369992  35.2164990  20.5959997
 123.4678125  34.8727000  21.1575289  62.8739992  48.3354990  83.0239997
  62.5439992  47.9644990  82.2049997  63.4619992  47.6644990  83.3699997
  62.9084056  48.1941257  82.9589035 123.0389992  24.3384990  23.2089997
 123.8509992  24.8424990  23.2549997 122.7939992  24.1934990  24.1229997
 123.1171091  24.3879366  23.3388552 123.5749992  25.3244990  32.3929997
 123.6939992  25.8984990  33.1499997 124.2299992  24.6364990  32.5079997
 123.6798684  25.3100205  32.5121656 123.9229992  21.4194990  24.1469997
 123.5759992  22.0364990  24.7909997 124.5809992  21.9204990  23.6649997
 123.9644430  21.5716860  24.1700046 120.8459992  35.7844990  21.2179997
 121.0069992  36.5844990  20.7179997 120.6489992  36.0914990  22.1029997
 120.8413906  35.9353690  21.2692316 119.5799992  22.4824990  20.8339997
 119.4969992  23.3704990  21.1809997 120.4699992  22.2174990  21.0659997
 119.6889331  22.5681177  20.9128067 129.7789992  23.2314990  33.2279997
 128.8629992  23.4934990  33.1409997 130.1149992  23.2284990  32.3319997
 129.6988499  23.2670174  33.0948748 128.3809992  26.9814990  27.3239997
 127.5839992  26.5664990  26.9959997 128.8259992  26.2914990  27.8149997
 128.3320367  26.8313372  27.3454897 117.8389992  32.9094990  19.8939997
 118.4309992  33.6094990  20.1709997 118.2979992  32.4764990  19.1749997
 117.9821652  32.9467686  19.8346515 116.1549992  25.5744990  19.0099997
 116.1099992  26.5134990  19.1889997 115.2669992  25.3384990  18.7409997
 116.0288166  25.6711698  18.9981507 129.4679992  36.2374990  28.9459997
 129.3119992  36.9164990  28.2889997 130.3999992  36.3094990  29.1489997
 129.5727328  36.3401586  28.8835529  64.2409992  51.7634990  85.7049997
  64.1459992  51.1844990  84.9479997  64.9699992  51.3924990  86.2009997
  64.3266161  51.6340902  85.6685191 116.9629992  20.3554990  27.6829997
 116.7339992  20.4144990  26.7559997 116.5199992  19.5644990  27.9899997
 116.8717387  20.2566412  27.5975223 115.8929992  34.2964990  23.8439997
 115.0609992  34.7684990  23.8709997 116.4389992  34.8064990  23.2449997
 115.8528710  34.4300317  23.7667570 123.8709992  35.3364990  18.1689997
 123.2269992  34.7054990  18.4909997 124.6329992  34.8054990  17.9379997
 123.8858708  35.1783171  18.1818462 128.4749992  35.1534990  18.4029997
 128.7579992  34.3584990  18.8559997 129.2149992  35.3864990  17.8419997
 128.6137295  35.0762349  18.3891469 119.4299992  31.0624990  18.2609997
 119.4939992  30.2684990  18.7909997 120.0829992  30.9444990  17.5709997
 119.5270483  30.9377496  18.2403407 124.7819992  32.1094990  17.9969997
 124.5139992  32.2904990  18.8969997 124.5759992  31.1844990  17.8649997
 124.7173443  32.0091873  18.1026643 120.5789992  29.0354990  20.5669997
 120.1199992  28.5514990  21.2519997 120.8339992  28.3664990  19.9309997
 120.5505997  28.8788491  20.5748734 119.8679992  26.9284990  32.9229997
 119.2499992  27.6024990  33.2029997 120.2119992  27.2494990  32.0889997
 119.8298078  27.0642298  32.8486609 121.6499992  27.2784990  18.8289997
 121.4699992  27.1234990  17.9019997 122.5999992  27.3864990  18.8739997
 121.7537804  27.2718821  18.7081966 131.0399992  29.6324990  18.2749997
 130.7669992  29.2084990  17.4619997 131.0799992  30.5644990  18.0579997
 131.0080201  29.7003523  18.1343548  63.2409992  47.1034990  86.6569997
  63.8059992  47.2254990  85.8939997  63.5589992  47.7414990  87.2959997
  63.3613430  47.2064448  86.6389094 120.2079992  24.2834990  34.0049997
 120.3579992  23.5544990  33.4029997 120.2099992  25.0604990  33.4459997
 120.2287967  24.2887720  33.8470523 120.6199992  22.6524990  31.4979997
 121.1559992  23.1044990  30.8459997 119.7679992  22.5444990  31.0749997
 120.5781795  22.6997444  31.3516211 122.2019992  28.0924990  31.7369997
 122.9529992  27.9364990  31.1639997 121.8629992  28.9444990  31.4619997
 122.2589587  28.1863149  31.6214060 121.4259992  20.1094990  31.9289997
 121.3279992  21.0554990  31.8239997 120.6829992  19.7364990  31.4529997
 121.3122123  20.1886811  31.8503204 121.5479992  37.9684990  19.8299997
 122.4809992  38.1264990  19.9739997 121.2829992  38.6444990  19.2049997
 121.6399846  38.0814567  19.7652930 115.1159992  32.6054990  19.3129997
 116.0299992  32.6844990  19.5859997 115.1229992  31.9184990  18.6469997
 115.2420624  32.5234074  19.2603045 113.7649992  37.9984990  24.3899997
 113.1179992  37.5364990  23.8579997 114.1199992  37.3264990  24.9729997
 113.7243741  37.8444785  24.3959157 114.6349992  36.0784990  26.1949997
 114.3009992  35.1984990  26.3669997 114.8569992  36.4244990  27.0599997
 114.6192565  36.0047410  26.3354263 132.1839992  36.8884990  29.1759997
 132.1619992  37.0734990  30.1139997 132.8739992  37.4564990  28.8349997
 132.2743383  36.9907104  29.2584580 131.7469992  36.4554990  32.0969997
 131.2599992  35.7194990  31.7259997 132.2959992  36.0614990  32.7749997
 131.7546101  36.3016267  32.1379034  69.5499992  52.6074990  87.3909997
  69.3089992  53.2694990  88.0389997  69.3519992  51.7724990  87.8159997
  69.4902662  52.5852704  87.5371008 131.4989992  30.5014990  22.2499997
 132.3489992  30.9224990  22.3769997 131.5039992  29.7614990  22.8569997
 131.6161143  30.4591106  22.3494732 131.8929992  28.5554990  24.0729997
 131.1669992  28.0754990  24.4709997 132.4739992  28.7604990  24.8049997
 131.8722504  28.5175592  24.2264199 131.6519992  31.3404990  29.0209997
 132.4859992  30.9624990  28.7399997 131.7639992  32.2834990  28.9019997
 131.7811917  31.4162954  28.9664844 130.1379992  34.2184990  31.3279997
 129.4909992  34.5434990  31.9529997 129.6209992  33.7774990  30.6539997
 129.9794112  34.2034133  31.3225272 132.1609992  28.4564990  20.4639997
 131.6399992  28.8124990  19.7459997 132.1279992  29.1314990  21.1429997
 132.0850955  28.5965023  20.4572634 130.5099992  25.6954990  19.0149997
 130.6069992  26.3624990  18.3349997 130.3699992  24.8804990  18.5339997
 130.5043407  25.6765670  18.8568312 129.6799992  27.0764990  24.6359997
 129.5299992  26.1314990  24.6159997 129.3259992  27.3574990  25.4799997
 129.6116351  26.9851656  24.7473202 114.7149992  29.1544990  28.6469997
 114.8989992  29.0724990  27.7109997 115.5639992  29.0304990  29.0699997
 114.8550132  29.1265066  28.5761460 129.7579992  23.1034990  18.1329997
 130.3679992  22.7324990  18.7699997 128.9209992  22.6824990  18.3289997
 129.7283704  22.9957942  18.2467077 129.3899992  24.6584990  23.0989997
 129.6699992  23.7514990  23.2229997 130.1489992  25.0924990  22.7099997
 129.5309258  24.5930935  23.0633691  64.1209992  51.5034990  91.3739997
  63.8089992  52.2854990  91.8299997  63.4709992  51.3504990  90.6879997
  63.9904643  51.5898019  91.3436657 130.0019992  25.2404990  28.5349997
 130.9349992  25.4524990  28.4999997 129.7669992  25.3414990  29.4569997
 130.0979517  25.2831844  28.6549113 130.0309992  25.9774990  31.3109997
 129.1879992  26.2454990  31.6759997 130.4739992  26.7994990  31.0999997
 129.9754035  26.1253351  31.3324770 114.3119992  24.4244990  34.7869997
 115.2319992  24.3024990  35.0239997 113.8629992  23.6744990  35.1769997
 114.3770500  24.3064576  34.8721016 130.0039992  21.9214990  23.1469997
 130.1859992  21.4724990  23.9719997 129.4039992  21.3374990  22.6829997
 129.9478187  21.7810563  23.1972721 115.5339992  22.7374990  27.6789997
 115.9789992  21.9454990  27.9809997 115.9999992  23.4534990  28.1089997
 115.6579718  22.7259546  27.7785247 113.8379992  25.7364990  28.7479997
 114.3299992  25.5154990  27.9569997 114.1999992  26.5764990  29.0289997
 113.9542923  25.8198480  28.6777389 131.8699992  21.9894990  19.6749997
 132.2829992  21.2684990  19.1999997 132.5519992  22.6584990  19.7329997
 132.0186060  21.9813741  19.6179233 114.1509992  21.9944990  22.8019997
 113.2259992  22.2024990  22.6729997 114.6049992  22.4784990  22.1119997
 114.0856298  22.0884311  22.6910433 128.9219992  36.9784990  24.7479997
 129.5739992  36.6304990  24.1399997 129.4329992  37.4664990  25.3939997
 129.0802872  36.9968248  24.7520964 114.1149992  20.7324990  31.1459997
 113.4499992  20.4864990  31.7889997 113.6719992  21.3544990  30.5689997
 113.9641168  20.7829225  31.1559830  70.0999992  46.8674990  78.8259997
  70.6789992  47.0174990  79.5729997  70.5139992  47.3374990  78.1029997
  70.2353122  46.9516288  78.8305024 116.3069992  33.9074990  35.2909997
 115.4859992  34.0824990  34.8299997 116.0549992  33.8344990  36.2109997
 116.1605594  33.9215728  35.3523593 119.2609992  34.8814990  31.5489997
 118.8359992  35.6914990  31.2669997 120.1649992  34.9674990  31.2469997
 119.3250706  35.0039557  31.4695836 123.5719992  36.2804990  34.5089997
 123.7569992  35.9474990  35.3869997 124.4189992  36.5904990  34.1869997
 123.7117291  36.2768214  34.5856140 125.9169992  37.5664990  33.7529997
 126.5939992  36.9334990  33.5129997 126.2389992  37.9674990  34.5599997
 126.0531618  37.5341147  33.8292802 130.8349992  20.1564990  32.8319997
 130.0219992  20.4814990  32.4449997 131.0679992  19.3954990  32.2989997
 130.7551347  20.0981891  32.7069824 116.6629992  38.1384990  31.5969997
 115.9419992  38.5784990  31.1459997 116.2969992  37.8874990  32.4449997
 116.5149632  38.1647235  31.6499649 119.1299992  37.7384990  30.6259997
 118.2649992  37.8104990  31.0299997 119.0749992  38.2854990  29.8429997
 119.0042289  37.8223242  30.5753749 123.8409992  37.6264990  29.8019997
 123.3839992  38.1554990  29.1479997 124.0029992  38.2294990  30.5269997
 123.8003919  37.7803990  29.8105740 126.1679992  36.5044990  30.7469997
 125.2639992  36.6694990  30.4809997 126.5969992  37.3574990  30.6809997
 126.1022017  36.6424184  30.7016495 128.7719992  38.0744990  31.0419997
 128.5909992  38.9904990  30.8309997 128.9489992  37.6634990  30.1949997
 128.7711377  38.1443365  30.8987178  61.0409992  47.7014990  90.6029997
  61.1109992  48.3524990  91.3009997  60.1499992  47.8044990  90.2679997
  60.9301802  47.8044769  90.6532231 116.0779992  36.7614990  28.5069997
 116.0589992  36.3354990  29.3639997 116.8819992  36.4424990  28.0979997
 116.1841393  36.6600297  28.5690155 118.2189992  35.4714990  27.1619997
 117.9999992  34.5544990  27.3319997 119.0429992  35.6114990  27.6279997
 118.3004702  35.3650523  27.2482510 120.7559992  35.9414990  28.0109997
 120.9689992  35.0534990  27.7239997 120.8209992  35.9064990  28.9649997
 120.7939149  35.8153338  28.1007351 124.2649992  21.6054990  27.1549997
 123.5899992  20.9754990  27.4109997 124.8289992  21.1214990  26.5519997
 124.2489363  21.4538886  27.1084810 129.4069992  19.7124990  27.2679997
 130.0109992  20.2604990  26.7659997 128.5379992  20.0314990  27.0269997
 129.3720419  19.8305628  27.1667741 131.1339992  20.8514990  25.6009997
 131.7459992  20.3374990  25.0739997 131.5169992  21.7284990  25.6239997
 131.2693867  20.8997613  25.5320888 116.5909992  20.2394990  24.9769997
 115.8139992  20.0044990  24.4699997 117.1219992  19.4424990  24.9859997
 116.5563735  20.0996462  24.9088090 115.4279992  20.0374990  20.7809997
 115.8669992  20.6484990  20.1889997 114.7939992  20.5754990  21.2549997
 115.4023859  20.1939076  20.7640287 121.1709992  20.1654990  24.7899997
 122.0449992  20.5544990  24.7609997 121.0349992  19.9504990  25.7129997
 121.2721953  20.1896654  24.9107599 126.7269992  20.1954990  26.4399997
 126.8039992  20.2914990  25.4899997 126.4519992  19.2884990  26.5679997
 126.7003233  20.0859093  26.3273665  67.8259992  53.6034990  82.2619997
  68.2999992  53.8994990  83.0389997  67.2629992  54.3424990  82.0279997
  67.8148460  53.7438336  82.3367626 128.0809992  20.2214990  22.1319997
 127.3779992  20.8364990  21.9219997 127.6359992  19.3844990  22.2629997
 127.9246550  20.1924679  22.1209819 115.3289992  35.9854990  21.6779997
 114.6439992  35.9474990  21.0109997 115.3319992  36.8974990  21.9659997
 115.2356806  36.1036669  21.6256961 117.2889992  21.9534990  19.2229997
 117.7799992  21.3234990  18.6959997 117.9119992  22.2494990  19.8859997
 117.4405304  21.9072387  19.2404922 122.3149992  22.2464990  21.6799997
 122.4929992  21.5994990  22.3629997 122.2609992  23.0804990  22.1469997
 122.3320678  22.2706615  21.8366283 124.1929992  37.1944990  20.0759997
 125.0589992  37.5614990  19.8979997 123.9459992  36.7554990  19.2619997
 124.2781853  37.1854021  19.9415813 130.9019992  36.7574990  22.7549997
 130.7079992  36.0094990  22.1899997 130.8629992  37.5154990  22.1719997
 130.8701645  36.7575797  22.5988131 117.1469992  36.9054990  18.7029997
 116.8789992  37.1914990  19.5769997 117.9179992  36.3594990  18.8559997
 117.2145926  36.8707790  18.8431188 130.1199992  35.5084990  34.9049997
 129.3379992  35.3224990  34.3849997 130.0479992  36.4384990  35.1219997
 130.0032975  35.6086973  34.8631822 135.8269992  28.2644990  29.9479997
 135.8679992  27.6394990  30.6709997 136.5299992  28.8884990  30.1299997
 135.9276223  28.2632318  30.0716164 136.7509992  32.7144990  28.4829997
 136.3809992  31.9124990  28.1129997 137.6919992  32.5464990  28.5289997
 136.8275984  32.5819649  28.4385586  62.3599992  53.5744990  92.1379997
  62.3679992  53.4384990  91.1899997  61.4439992  53.4574990  92.3899997
  62.2372512  53.5400663  92.0423179 133.3609992  26.3744990  23.8749997
 132.9129992  27.2204990  23.8569997 132.7999992  25.7954990  23.3599997
 133.2238546  26.4119004  23.8028874 134.0709992  28.5364990  26.0009997
 134.2849992  27.7664990  26.5279997 134.8089992  28.6264990  25.3979997
 134.2000073  28.4433546  25.9915786 138.1439992  23.5784990  26.3609997
 138.1869992  24.4384990  25.9419997 137.6859992  23.0254990  25.7269997
 138.0880163  23.6214174  26.2180604 134.7639992  25.9754990  27.1229997
 135.4179992  25.4254990  27.5549997 134.7879992  25.7014990  26.2059997
 134.8567199  25.8632178  27.0581650 136.9539992  22.4964990  30.4349997
 136.7349992  23.0264990  29.6679997 136.2859992  22.7224990  31.0819997
 136.8336975  22.5995979  30.4175123 139.5229992  30.1714990  30.7219997
 138.7829992  30.7704990  30.8259997 140.2369992  30.7254990  30.4059997
 139.5183146  30.3282611  30.6935150 136.5479992  24.3884990  28.3869997
 137.1609992  25.0214990  28.7599997 137.0599992  23.9164990  27.7309997
 136.7011933  24.4113380  28.3493477 137.9299992  32.1364990  31.5089997
 137.9249992  33.0154990  31.1309997 137.0769992  32.0524990  31.9339997
 137.8139199  32.2455901  31.5146942 134.0519992  31.8074990  22.2909997
 133.7799992  32.0364990  21.4019997 134.0969992  32.6444990  22.7519997
 134.0208360  31.9521034  22.2316186 138.2979992  29.4794990  25.2219997
 137.9679992  29.1084990  24.4039997 138.8859992  28.8084990  25.5689997
 138.3323182  29.3380648  25.1569898  74.9879992  52.9834990  77.0159997
  75.0609992  53.9224990  77.1859997  75.8929992  52.6784990  76.9589997
  75.1204168  53.0708531  77.0315736 138.6649992  28.2474990  28.8549997
 139.2299992  28.3694990  28.0929997 138.9829992  28.8854990  29.4939997
 138.7853619  28.3504388  28.8370019 139.5449992  32.6474990  33.5729997
 139.2329992  33.4294990  34.0279997 138.8949992  32.4944990  32.8869997
 139.4144858  32.7337882  33.5425344 136.4649992  28.8454990  32.8009997
 136.5349992  29.4964990  33.4999997 135.5739992  28.9484990  32.4659997
 136.3541690  28.9484261  32.8513026 137.7839992  34.7184990  34.3359997
 137.7919992  34.5824990  33.3889997 136.8679992  34.6014990  34.5879997
 137.6612528  34.6840475  34.2403226 137.2879992  28.5484990  22.8109997
 136.9959992  29.3164990  22.3199997 136.6139992  27.8894990  22.6479997
 137.1568843  28.5644537  22.7217695 133.3809992  30.9114990  31.6259997
 132.8799992  30.8834990  30.8109997 133.3869992  30.0064990  31.9359997
 133.3131690  30.7852234  31.5562770 133.1319992  33.6924990  28.5099997
 134.0779992  33.5474990  28.4909997 133.0189992  34.4764990  29.0469997
 133.2463578  33.7786708  28.5800300 136.3759992  36.4934990  24.6559997
 136.5279992  36.1454990  25.5339997 135.5249992  36.1364990  24.3999997
 136.2818344  36.3975891  24.7416851 135.6299992  32.2354990  32.6689997
 135.8459992  31.8734990  33.5289997 134.7749992  31.8604990  32.4599997
 135.5439082  32.1353377  32.7582396 138.2489992  20.7054990  28.6649997
 137.3869992  20.6184990  28.2569997 138.2269992  21.5614990  29.0929997
 138.1280557  20.8093078  28.6670202  57.9569992  49.7674990  89.4279997
  57.4559992  49.7394990  88.6129997  57.9629992  48.8624990  89.7379997
  57.8891690  49.6412234  89.3582770 138.3399992  25.6704990  29.7599997
 137.6979992  25.6304990  30.4689997 138.3769992  26.5974990  29.5219997
 138.2571659  25.7902540  29.8248463 138.3369992  25.8914990  24.6719997
 137.4439992  25.5514990  24.6129997 138.7879992  25.5144990  23.9159997
 138.2757185  25.7940220  24.5617698 136.0899992  25.9914990  31.6269997
 136.0519992  26.3914990  32.4959997 135.5989992  25.1744990  31.7169997
 136.0184374  25.9358228  31.7580980 139.4559992  23.3654990  18.4259997
 139.0249992  22.9204990  19.1549997 138.7379992  23.7364990  17.9129997
 139.2999176  23.3547063  18.4564913 132.6979992  23.1074990  25.4779997
 133.3289992  23.0784990  26.1969997 133.1479992  22.6824990  24.7469997
 132.8451082  23.0461269  25.4776307 133.9719992  23.8534990  20.9019997
 134.4469992  24.4444990  20.3169997 133.2549992  24.3834990  21.2489997
 133.9400406  24.0061011  20.8688495 135.7469992  24.9484990  24.5849997
 134.8579992  25.0474990  24.2449997 136.0429992  24.1064990  24.2389997
 135.6654001  24.8482473  24.4917318 139.3999992  24.9484990  22.2419997
 140.3319992  25.0774990  22.4199997 139.1849992  25.6174990  21.5919997
 139.4984472  25.0565817  22.1784873 138.0739992  26.1424990  19.8079997
 137.5319992  25.7634990  19.1169997 138.9079992  26.3374990  19.3799997
 138.1124390  26.1169091  19.6554374 137.2409992  22.2434990  24.0639997
 136.9229992  21.3404990  24.0279997 138.0219992  22.2454990  23.5109997
 137.3031079  22.1202240  23.9842908  57.7079992  52.5484990  86.3119997
  58.6539992  52.4034990  86.2929997  57.5949992  53.3324990  86.8489997
  57.8223578  52.6346708  86.3820300 136.5339992  30.0034990  27.5139997
 137.2789992  30.0004990  26.9119997 136.6119992  29.1794990  27.9949997
 136.6463365  29.8917395  27.4967412 133.5419992  28.4634990  32.8289997
 133.7649992  28.0454990  33.6599997 132.9399992  27.8514990  32.4059997
 133.4911513  28.3234617  32.8856722 138.9089992  33.5214990  24.9179997
 139.4359992  34.2944990  24.7179997 138.0289992  33.7454990  24.6159997
 138.8622121  33.6577344  24.8497460 134.6639992  28.3834990  19.5049997
 135.2799992  29.0104990  19.8849997 133.8019992  28.6994990  19.7769997
 134.6317678  28.5119423  19.5937192 139.0189992  36.2054990  24.0399997
 138.0699992  36.3114990  24.0909997 139.3709992  37.0264990  24.3839997
 138.9365647  36.3310029  24.0934882 135.1759992  23.2174990  32.3869997
 134.2829992  23.5554990  32.3189997 135.0769992  22.3614990  32.8049997
 135.0404752  23.1480986  32.4341644 134.8269992  35.0214990  30.8219997
 135.0439992  34.0894990  30.7909997 135.0739992  35.2964990  31.7049997
 134.8900948  34.9310976  30.9371268 136.0789992  30.2954990  20.9979997
 135.3929992  30.6484990  21.5649997 136.6019992  31.0584990  20.7509997
 136.0558402  30.4468912  21.0421784 138.4359992  22.4824990  20.8339997
 138.3529992  23.3704990  21.1809997 139.3259992  22.2174990  21.0659997
 138.5449331  22.5681177  20.9128067 136.6949992  32.9094990  19.8939997
 137.2869992  33.6094990  20.1709997 137.1539992  32.4764990  19.1749997
 136.8381652  32.9467686  19.8346515  75.9049992  53.2144990  91.9939997
  75.8559992  52.2584990  91.9569997  75.0789992  53.4814990  92.3959997
  75.7865767  53.1198841  92.0433133 135.0109992  25.5744990  19.0099997
 134.9659992  26.5134990  19.1889997 134.1229992  25.3384990  18.7409997
 134.8848166  25.6711698  18.9981507 135.8189992  20.3554990  27.6829997
 135.5899992  20.4144990  26.7559997 135.3759992  19.5644990  27.9899997
 135.7277387  20.2566412  27.5975223 134.7489992  34.2964990  23.8439997
 133.9169992  34.7684990  23.8709997 135.2949992  34.8064990  23.2449997
 134.7088710  34.4300317  23.7667570 138.2859992  31.0624990  18.2609997
 138.3499992  30.2684990  18.7909997 138.9389992  30.9444990  17.5709997
 138.3830483  30.9377496  18.2403407 139.4349992  29.0354990  20.5669997
 138.9759992  28.5514990  21.2519997 139.6899992  28.3664990  19.9309997
 139.4065997  28.8788491  20.5748734 138.7239992  26.9284990  32.9229997
 138.1059992  27.6024990  33.2029997 139.0679992  27.2494990  32.0889997
 138.6858078  27.0642298  32.8486609 139.0639992  24.2834990  34.0049997
 139.2139992  23.5544990  33.4029997 139.0659992  25.0604990  33.4459997
 139.0847967  24.2887720  33.8470523 139.4759992  22.6524990  31.4979997
 140.0119992  23.1044990  30.8459997 138.6239992  22.5444990  31.0749997
 139.4341795  22.6997444  31.3516211 135.7229992  23.4014990  35.6209997
 135.9339992  22.6954990  35.0109997 135.6109992  22.9644990  36.4649997
 135.7367668  23.2456619  35.6515445 133.9719992  32.6054990  19.3129997
 134.8859992  32.6844990  19.5859997 133.9789992  31.9184990  18.6469997
 134.0980624  32.5234074  19.2603045  66.8839992  52.7884990  90.8699997
  66.9709992  53.6144990  91.3449997  66.0199992  52.4584990  91.1189997
  66.7791944  52.8569871  90.9686558 132.6209992  37.9984990  24.3899997
 131.9739992  37.5364990  23.8579997 132.9759992  37.3264990  24.9729997
 132.5803741  37.8444785  24.3959157 133.4909992  36.0784990  26.1949997
 133.1569992  35.1984990  26.3669997 133.7129992  36.4244990  27.0599997
 133.4752565  36.0047410  26.3354263 133.5709992  29.1544990  28.6469997
 133.7549992  29.0724990  27.7109997 134.4199992  29.0304990  29.0699997
 133.7110132  29.1265066  28.5761460 133.1679992  24.4244990  34.7869997
 134.0879992  24.3024990  35.0239997 132.7189992  23.6744990  35.1769997
 133.2330500  24.3064576  34.8721016 134.3899992  22.7374990  27.6789997
 134.8349992  21.9454990  27.9809997 134.8559992  23.4534990  28.1089997
 134.5139718  22.7259546  27.7785247 132.6939992  25.7364990  28.7479997
 133.1859992  25.5154990  27.9569997 133.0559992  26.5764990  29.0289997
 132.8102923  25.8198480  28.6777389 133.0069992  21.9944990  22.8019997
 132.0819992  22.2024990  22.6729997 133.4609992  22.4784990  22.1119997
 132.9416298  22.0884311  22.6910433 132.9709992  20.7324990  31.1459997
 132.3059992  20.4864990  31.7889997 132.5279992  21.3544990  30.5689997
 132.8201168  20.7829225  31.1559830 138.1169992  34.8814990  31.5489997
 137.6919992  35.6914990  31.2669997 139.0209992  34.9674990  31.2469997
 138.1810706  35.0039557  31.4695836 135.5189992  38.1384990  31.5969997
 134.7979992  38.5784990  31.1459997 135.1529992  37.8874990  32.4449997
 135.3709632  38.1647235  31.6499649  67.2979992  56.5604990  80.6759997
  67.2229992  56.4394990  79.7299997  67.3309992  57.5094990  80.7949997
  67.2921862  56.6722492  80.5624840 137.9859992  37.7384990  30.6259997
 137.1209992  37.8104990  31.0299997 137.9309992  38.2854990  29.8429997
 137.8602289  37.8223242  30.5753749 134.9339992  36.7614990  28.5069997
 134.9149992  36.3354990  29.3639997 135.7379992  36.4424990  28.0979997
 135.0401393  36.6600297  28.5690155 137.0749992  35.4714990  27.1619997
 136.8559992  34.5544990  27.3319997 137.8989992  35.6114990  27.6279997
 137.1564702  35.3650523  27.2482510 135.4469992  20.2394990  24.9769997
 134.6699992  20.0044990  24.4699997 135.9779992  19.4424990  24.9859997
 135.4123735  20.0996462  24.9088090 134.2839992  20.0374990  20.7809997
 134.7229992  20.6484990  20.1889997 133.6499992  20.5754990  21.2549997
 134.2583859  20.1939076  20.7640287 134.1849992  35.9854990  21.6779997
 133.4999992  35.9474990  21.0109997 134.1879992  36.8974990  21.9659997
 134.0916806  36.1036669  21.6256961 136.1449992  21.9534990  19.2229997
 136.6359992  21.3234990  18.6959997 136.7679992  22.2494990  19.8859997
 136.2965304  21.9072387  19.2404922 136.0029992  36.9054990  18.7029997
 135.7349992  37.1914990  19.5769997 136.7739992  36.3594990  18.8559997
 136.0705926  36.8707790  18.8431188  12.5339992  48.2514990  24.9359997
  12.6229992  49.1954990  24.8029997  11.8949992  47.9764990  24.2779997
  12.4598378  48.3433846  24.8289258  11.4669992  47.5064990  28.3549997
  11.4279992  46.8604990  29.0599997  11.1439992  47.0394990  27.5829997
  11.4180469  47.3550005  28.3472803  70.0689992  55.6404990  80.4279997
  69.1339992  55.7404990  80.6069997  70.3489992  54.9304990  81.0059997
  69.9789270  55.5582300  80.5305984   3.8349992  47.1204990  29.9479997
   3.8759992  46.4954990  30.6709997   4.5379992  47.7444990  30.1299997
   3.9356223  47.1192318  30.0716164  15.1729992  50.4454990  26.6559997
  14.7319992  49.7254990  27.1069997  15.1599992  51.1664990  27.2859997
  15.1109215  50.4444303  26.8028088   4.7589992  51.5704990  28.4829997
   4.3889992  50.7684990  28.1129997   5.6999992  51.4024990  28.5289997
   4.8355984  51.4379649  28.4385586   1.3689992  45.2304990  23.8749997
   0.9209992  46.0764990  23.8569997   0.8079992  44.6514990  23.3599997
   1.2318546  45.2679004  23.8028874   2.0789992  47.3924990  26.0009997
   2.2929992  46.6224990  26.5279997   2.8169992  47.4824990  25.3979997
   2.2080073  47.2993546  25.9915786  12.2839992  55.5494990  26.8679997
  12.9039992  54.8734990  26.5949997  12.0759992  55.3314990  27.7769997
  12.3407679  55.4275032  26.9534518   9.8559992  49.9384990  28.7609997
  10.1599992  49.2524990  28.1659997  10.5779992  50.0574990  29.3789997
   9.9951240  49.8607325  28.7630941  18.5189992  41.5404990  29.6209997
  18.5679992  42.1504990  30.3569997  18.9449992  42.0014990  28.8979997
  18.5832851  41.6863266  29.6240532  12.9969992  44.3324990  29.0879997
  13.1389992  43.3864990  29.1079997  12.8909992  44.5394990  28.1599997
  13.0021051  44.2309706  28.9652249   6.1519992  42.4344990  26.3609997
   6.1949992  43.2944990  25.9419997   5.6939992  41.8814990  25.7269997
   6.0960163  42.4774174  26.2180604  73.0569992  44.7074990  92.4739997
  72.6499992  45.1874990  91.7539997  73.0979992  43.8014990  92.1669997
  73.0067178  44.6508609  92.3337441  13.8739992  42.5654990  24.7609997
  14.5199992  42.2364990  25.3859997  14.3839992  43.0824990  24.1389997
  14.0314289  42.5904333  24.7623681   2.7719992  44.8314990  27.1229997
   3.4259992  44.2814990  27.5549997   2.7959992  44.5574990  26.2059997
   2.8647199  44.7192178  27.0581650   7.9279992  46.3814990  26.3379997
   8.5439992  45.8544990  26.8469997   7.3419992  45.7414990  25.9339997
   7.9330652  46.2228919  26.3530277  18.9109992  43.0184990  31.8569997
  18.2219992  43.6764990  31.7619997  18.9259992  42.8204990  32.7939997
  18.8187756  43.0817614  31.9705795   4.9619992  41.3524990  30.4349997
   4.7429992  41.8824990  29.6679997   4.2939992  41.5784990  31.0819997
   4.8416975  41.4555979  30.4175123  12.3309992  50.8524990  23.9789997
  12.0349992  50.5294990  23.1269997  12.0069992  51.7524990  24.0199997
  12.2467458  50.9299678  23.8680598   7.5309992  49.0274990  30.7219997
   6.7909992  49.6264990  30.8259997   8.2449992  49.5814990  30.4059997
   7.5263146  49.1842611  30.6935150  15.6379992  41.8564990  26.7419997
  15.4229992  41.0904990  27.2749997  16.2939992  42.3284990  27.2549997
  15.6972673  41.8155739  26.8841972   4.5559992  43.2444990  28.3869997
   5.1689992  43.8774990  28.7599997   5.0679992  42.7724990  27.7309997
   4.7091933  43.2673380  28.3493477   5.9379992  50.9924990  31.5089997
   5.9329992  51.8714990  31.1309997   5.0849992  50.9084990  31.9339997
   5.8219199  51.1015901  31.5146942  60.2059992  51.0914990  90.4709997
  60.4219992  50.7294990  91.3309997  59.3509992  50.7164990  90.2609997
  60.1199349  50.9912914  90.5602134   2.0599992  50.6634990  22.2909997
   1.7879992  50.8924990  21.4019997   2.1049992  51.5004990  22.7519997
   2.0288360  50.8081034  22.2316186  15.6849992  52.2844990  29.0039997
  14.7429992  52.3434990  29.1659997  15.9609992  53.1904990  28.8669997
  15.5935865  52.4150299  29.0076174  15.9849992  40.5714990  30.4209997
  15.2489992  41.1814990  30.3839997  16.6689992  40.9864990  29.8949997
  15.9765367  40.7112562  30.3448156   8.9879992  38.6574990  27.8869997
   8.8709992  37.7094990  27.8329997   8.1329992  38.9904990  28.1599997
   8.8563691  38.5725842  27.9165072  13.9369992  54.0654990  25.6289997
  14.3619992  53.3584990  25.1439997  14.2539992  54.8674990  25.2119997
  14.0380266  54.0770201  25.5062461  15.0959992  51.9664990  24.1379997
  14.8389992  51.2764990  23.5259997  15.1669992  51.5234990  24.9829997
  15.0704322  51.8121568  24.1685372  16.7819992  50.5334990  32.6149997
  16.9219992  49.9414990  31.8759997  16.9499992  51.4064990  32.2589997
  16.8238734  50.5704041  32.4656937  11.2549992  47.4954990  22.3879997
  10.5429992  48.0304990  22.0359997  11.9459992  47.5504990  21.7279997
  11.2509704  47.5761663  22.2505797  11.3089992  45.9524990  19.4259997
  12.0099992  45.9754990  20.0779997  11.6109992  45.3244990  18.7699997
  11.4458202  45.8707223  19.4265591  18.6239992  46.8734990  30.6809997
  17.9719992  47.5674990  30.7699997  19.0889992  47.0834990  29.8709997
  18.5975357  46.9969544  30.5837056  62.8249992  39.5614990  86.4669997
  61.9629992  39.4744990  86.0589997  62.8029992  40.4174990  86.8939997
  62.7040953  39.6653558  86.4689262  14.6609992  47.7044990  23.3389997
  13.9289992  47.9334990  23.9119997  15.1079992  46.9914990  23.7939997
  14.6212753  47.6393984  23.4789698  14.5579992  45.8794990  32.4069997
  14.6379992  46.6424990  32.9789997  13.9569992  46.1584990  31.7169997
  14.4876547  46.0217468  32.3920029   6.3059992  48.3354990  25.2219997
   5.9759992  47.9644990  24.4039997   6.8939992  47.6644990  25.5689997
   6.3403182  48.1940648  25.1569898   7.6729992  51.7634990  27.9029997
   7.5779992  51.1844990  27.1469997   8.4019992  51.3924990  28.3989997
   7.7586011  51.6340572  27.8666011   6.6729992  47.1034990  28.8549997
   7.2379992  47.2254990  28.0929997   6.9909992  47.7414990  29.4939997
   6.7933619  47.2064388  28.8370019  12.9819992  52.6074990  29.5889997
  12.7409992  53.2694990  30.2369997  12.7839992  51.7724990  30.0139997
  12.9222662  52.5852704  29.7351008   7.5529992  51.5034990  33.5729997
   7.2409992  52.2854990  34.0279997   6.9029992  51.3504990  32.8869997
   7.4224858  51.5897882  33.5425344  13.5319992  46.8674990  21.0249997
  14.1109992  47.0174990  21.7709997  13.9459992  47.3374990  20.3009997
  13.6673358  46.9515966  21.0293935  11.2579992  53.6034990  24.4599997
  11.7319992  53.8994990  25.2369997  10.6949992  54.3424990  24.2269997
  11.2467890  53.7438047  24.5348084   5.7919992  53.5744990  34.3359997
   5.7999992  53.4384990  33.3889997   4.8759992  53.4574990  34.5879997
   5.6692528  53.5400475  34.2403226  67.4879992  39.2834990  89.8409997
  67.9079992  38.8684990  90.5939997  66.5549992  39.1044990  89.9579997
  67.4193736  39.2024921  89.9598950  17.2299992  38.6174990  20.8369997
  16.3299992  38.7554990  21.1329997  17.4819992  39.4484990  20.4359997
  17.1407727  38.7488705  20.8232935   5.2959992  47.4044990  22.8109997
   5.0039992  48.1724990  22.3199997   4.6219992  46.7454990  22.6479997
   5.1648843  47.4204537  22.7217695  18.4199992  52.9834990  19.2139997
  18.4929992  53.9224990  19.3839997  19.3249992  52.6784990  19.1579997
  18.5524170  53.0708294  19.2297045   1.3889992  49.7674990  31.6259997
   0.8879992  49.7394990  30.8109997   1.3949992  48.8624990  31.9359997
   1.3211690  49.6412234  31.5562770   1.1399992  52.5484990  28.5099997
   2.0859992  52.4034990  28.4909997   1.0269992  53.3324990  29.0469997
   1.2543578  52.6346708  28.5800300  19.3369992  53.2144990  34.1929997
  19.2879992  52.2584990  34.1549997  18.5109992  53.4814990  34.5939997
  19.2185096  53.1198416  34.2420698  10.3159992  52.7884990  33.0689997
  10.4029992  53.6144990  33.5439997   9.4519992  52.4584990  33.3179997
  10.2111944  52.8569871  33.1676558  10.7299992  56.5604990  22.8749997
  10.6549992  56.4394990  21.9279997  10.7629992  57.5094990  22.9929997
  10.7242083  56.6722639  22.7614973   4.3839992  55.3494990  24.6559997
   4.5359992  55.0014990  25.5339997   3.5329992  54.9924990  24.3999997
   4.2898344  55.2535891  24.7416851  13.8319992  55.7144990  19.8769997
  14.2069992  54.9704990  19.4059997  13.8359992  55.4444990  20.7949997
  13.8838969  55.5760920  19.9366475  70.8139992  43.0384990  90.6949997
  70.2999992  42.9134990  91.4919997  70.6589992  43.9514990  90.4499997
  70.7226643  43.1447068  90.7710624  13.5009992  55.6404990  22.6259997
  12.5659992  55.7404990  22.8049997  13.7809992  54.9304990  23.2049997
  13.4109471  55.5582944  22.7286678   3.6379992  51.0914990  32.6689997
   3.8539992  50.7294990  33.5289997   2.7829992  50.7164990  32.4599997
   3.5519082  50.9913377  32.7582396   6.2569992  39.5614990  28.6649997
   5.3949992  39.4744990  28.2569997   6.2349992  40.4174990  29.0929997
   6.1360557  39.6653078  28.6670202  10.9199992  39.2834990  32.0399997
  11.3399992  38.8684990  32.7929997   9.9869992  39.1044990  32.1569997
  10.8513736  39.2024921  32.1588950  14.2459992  43.0384990  32.8929997
  13.7319992  42.9134990  33.6909997  14.0909992  43.9514990  32.6489997
  14.1547802  43.1447433  32.9691504  15.0089992  47.8994990  18.6539997
  15.0509992  47.6774990  17.7239997  15.8579992  48.2984990  18.8439997
  15.1295253  47.9230510  18.5523804  10.5819992  41.7754990  19.3249997
  10.3279992  41.7944990  20.2469997  10.3249992  40.9044990  19.0229997
  10.5124508  41.6603292  19.4104786   6.3479992  44.5264990  29.7599997
   5.7059992  44.4864990  30.4689997   6.3849992  45.4534990  29.5219997
   6.2651659  44.6462540  29.8248463   6.3449992  44.7474990  24.6719997
   5.4519992  44.4074990  24.6129997   6.7959992  44.3704990  23.9159997
   6.2837185  44.6500220  24.5617698  11.8809992  45.1634990  23.4889997
  11.4719992  45.9784990  23.1969997  12.6009992  45.0234990  22.8749997
  11.9224439  45.2560383  23.3660098  67.1499992  41.7754990  77.1259997
  66.8959992  41.7944990  78.0489997  66.8929992  40.9044990  76.8249997
  67.0805133  41.6603121  77.2115065  12.8849992  44.6094990  26.3029997
  12.6899992  45.2154990  25.5879997  13.0669992  43.7764990  25.8689997
  12.8829195  44.5797936  26.1464079   4.0979992  44.8474990  31.6269997
   4.0599992  45.2474990  32.4959997   3.6069992  44.0304990  31.7169997
   4.0264374  44.7918228  31.7580980   7.4639992  42.2214990  18.4259997
   7.0329992  41.7764990  19.1549997   6.7459992  42.5924990  17.9129997
   7.3079176  42.2107063  18.4564913   0.7059992  41.9634990  25.4779997
   1.3369992  41.9344990  26.1969997   1.1559992  41.5384990  24.7469997
   0.8531082  41.9021269  25.4776307   1.9799992  42.7094990  20.9019997
   2.4549992  43.3004990  20.3169997   1.2629992  43.2394990  21.2489997
   1.9480406  42.8621011  20.8688495  12.1489992  46.2474990  30.9739997
  12.4729992  45.6164990  30.3309997  11.7089992  45.7134990  31.6349997
  12.1338707  46.0888261  30.9753195   8.9269992  42.1754990  25.7579997
   8.0159992  42.2324990  26.0469997   9.4319992  42.1154990  26.5689997
   8.8706873  42.1751838  25.9071190   3.7549992  43.8044990  24.5849997
   2.8659992  43.9034990  24.2449997   4.0509992  42.9624990  24.2389997
   3.6734001  43.7042473  24.4917318   7.4079992  43.8044990  22.2419997
   8.3399992  43.9334990  22.4199997   7.1929992  44.4734990  21.5919997
   7.5064472  43.9125817  22.1784873  13.3319992  41.4104990  29.0219997
  12.6549992  41.5414990  29.6859997  12.8459992  41.2554990  28.2119997
  13.1737265  41.4074665  29.0033380  62.9159992  44.5264990  87.5619997
  62.2739992  44.4864990  88.2709997  62.9529992  45.4534990  87.3239997
  62.8331659  44.6462540  87.6268463   6.0819992  44.9984990  19.8079997
   5.5399992  44.6194990  19.1169997   6.9159992  45.1934990  19.3799997
   6.1204390  44.9729091  19.6554374  10.2469992  44.9624990  27.6449997
  10.8109992  44.4164990  27.0979997  10.0989992  44.4414990  28.4339997
  10.3043037  44.8171798  27.6767212   5.2489992  41.0994990  24.0639997
   4.9309992  40.1964990  24.0279997   6.0299992  41.1014990  23.5109997
   5.3111079  40.9762240  23.9842908   8.8729992  43.3514990  30.0589997
   8.0379992  43.8054990  30.1699997   9.3969992  43.6274990  30.8109997
   8.8296072  43.4508960  30.1758118   9.4169992  49.5644990  21.7439997
   8.6719992  49.0564990  21.4219997   9.2829992  49.6134990  22.6899997
   9.2969334  49.5016144  21.8278892  16.5669992  48.6974990  30.5309997
  17.2089992  49.1534990  29.9869997  15.7369992  48.8104990  30.0679997
  16.5426536  48.7751813  30.3939579  13.3149992  42.3784990  19.9429997
  12.3759992  42.4894990  19.7919997  13.6119992  43.2344990  20.2499997
  13.2266136  42.5094977  19.9638568  10.9369992  49.7484990  32.9809997
  10.5909992  49.3664990  33.7879997  10.7369992  50.6814990  33.0519997
  10.8625987  49.8224013  33.1010443  14.0329992  44.2454990  21.6039997
  14.9249992  44.1074990  21.9229997  14.0899992  45.0364990  21.0669997
  14.1627380  44.3334777  21.5750981   4.5419992  48.8594990  27.5139997
   5.2869992  48.8564990  26.9119997   4.6199992  48.0354990  27.9949997
   4.6543366  48.7477395  27.4967412  68.4489992  45.1634990  81.2909997
  68.0399992  45.9784990  80.9989997  69.1689992  45.0234990  80.6759997
  68.4903946  45.2559963  81.1679616  11.5429992  51.0224990  20.7689997
  11.2479992  51.8494990  21.1509997  10.8399992  50.4034990  20.9659997
  11.4076379  51.0519182  20.8478636  13.1869992  52.2104990  32.9309997
  12.2859992  52.3934990  32.6639997  13.2209992  52.4694990  33.8519997
  13.0683861  52.2705245  33.0189517  18.9179992  44.4544990  21.2989997
  18.3639992  44.0584990  20.6259997  19.0189992  45.3654990  21.0209997
  18.8558589  44.5233904  21.1693839  18.8809992  50.2554990  34.1359997
  18.0299992  50.4934990  33.7679997  19.4719992  50.2384990  33.3819997
  18.8443831  50.2857623  33.9838448  17.2129992  53.2404990  21.7639997
  16.8409992  52.4154990  22.0729997  17.4909992  53.0574990  20.8659997
  17.1995807  53.1027031  21.6850063  14.3739992  48.0484990  28.7849997
  13.4459992  47.8174990  28.7579997  14.8249992  47.2714990  28.4549997
  14.3078165  47.9117785  28.7366772   6.9169992  52.3774990  24.9179997
   7.4439992  53.1504990  24.7179997   6.0369992  52.6014990  24.6159997
   6.8702121  52.5137344  24.8497460   2.6719992  47.2394990  19.5049997
   3.2879992  47.8664990  19.8849997   1.8099992  47.5554990  19.7769997
   2.6397678  47.3679423  19.5937192   8.3439992  50.0404990  24.4939997
   8.1029992  50.9654990  24.5359997   7.6039992  49.5814990  24.8909997
   8.2109463  50.1050969  24.5534279   8.8589992  54.1894990  30.8089997
   9.2219992  55.0434990  30.5759997   9.3909992  53.8974990  31.5499997
   8.9805141  54.2668907  30.8772079  67.5509992  45.3394990  92.7789997
  66.9879992  44.6344990  93.0989997  68.3769992  45.2184990  93.2459997
  67.5856423  45.2265614  92.8860168   7.0269992  55.0614990  24.0399997
   6.0779992  55.1674990  24.0909997   7.3789992  55.8824990  24.3839997
   6.9445647  55.1870029  24.0934882  12.4029992  50.2884990  30.5099997
  11.9769992  50.0604990  31.3359997  12.9839992  49.5494990  30.3279997
  12.4232088  50.1574393  30.5984454  14.6059992  51.2174990  19.5839997
  14.9589992  50.8374990  20.3879997  13.6569992  51.1234990  19.6709997
  14.5260956  51.1527867  19.7058005  19.1089992  55.6964990  19.7849997
  19.8529992  56.2824990  19.6449997  18.4149992  56.2654990  20.1179997
  19.1169809  55.8535830  19.8108572   3.1839992  42.0734990  32.3869997
   2.2909992  42.4114990  32.3189997   3.0849992  41.2174990  32.8049997
   3.0484752  42.0040986  32.4341644  15.4719992  49.8894990  21.8109997
  15.1949992  49.1614990  22.3669997  16.3989992  50.0084990  22.0159997
  15.5594419  49.8059436  21.9148264   2.8349992  53.8774990  30.8219997
   3.0519992  52.9454990  30.7909997   3.0819992  54.1524990  31.7049997
   2.8980948  53.7870976  30.9371268   8.6969992  52.3294990  18.0309997
   8.9359992  51.5804990  17.4839997   8.4279992  51.9414990  18.8639997
   8.6933233  52.1746865  18.0687791   7.6339992  51.8994990  20.4869997
   7.7809992  51.3794990  21.2769997   7.6309992  52.8064990  20.7939997
   7.6537102  51.9508964  20.6365907   4.0869992  49.1514990  20.9979997
   3.4009992  49.5044990  21.5649997   4.6099992  49.9144990  20.7509997
   4.0638402  49.3028912  21.0421784  69.4529992  44.6094990  84.1049997
  69.2579992  45.2154990  83.3899997  69.6349992  43.7764990  83.6699997
  69.4509272  44.5797955  83.9484075  11.9179992  41.8144990  31.2769997
  12.6169992  41.8884990  31.9269997  11.5379992  40.9494990  31.4309997
  11.9622662  41.7077050  31.3867412  12.7029992  41.4664990  22.3739997
  12.9229992  41.9374990  21.5699997  13.2609992  41.8604990  23.0439997
  12.8086044  41.5842946  22.3545207  10.3719992  53.5964990  21.2369997
   9.5549992  54.0934990  21.2889997  10.9009992  54.0724990  20.5959997
  10.3318125  53.7287000  21.1575289   9.9029992  43.1944990  23.2089997
  10.7149992  43.6984990  23.2549997   9.6579992  43.0494990  24.1229997
   9.9811091  43.2439366  23.3388552  10.4389992  44.1804990  32.3929997
  10.5579992  44.7544990  33.1499997  11.0939992  43.4924990  32.5079997
  10.5438684  44.1660205  32.5121656  10.7869992  40.2754990  24.1469997
  10.4399992  40.8924990  24.7909997  11.4449992  40.7764990  23.6649997
  10.8284430  40.4276860  24.1700046   7.7099992  54.6404990  21.2179997
   7.8709992  55.4404990  20.7179997   7.5129992  54.9474990  22.1029997
   7.7053906  54.7913690  21.2692316   6.4439992  41.3384990  20.8339997
   6.3609992  42.2264990  21.1809997   7.3339992  41.0734990  21.0659997
   6.5529331  41.4241177  20.9128067  16.6429992  42.0874990  33.2279997
  15.7269992  42.3494990  33.1409997  16.9789992  42.0844990  32.3319997
  16.5628499  42.1230174  33.0948748  15.2449992  45.8374990  27.3239997
  14.4479992  45.4224990  26.9959997  15.6899992  45.1474990  27.8149997
  15.1960367  45.6873372  27.3454897  60.6659992  44.8474990  89.4289997
  60.6279992  45.2474990  90.2969997  60.1749992  44.0304990  89.5189997
  60.5944246  44.7918842  89.5601171   4.7029992  51.7654990  19.8939997
   5.2949992  52.4654990  20.1709997   5.1619992  51.3324990  19.1749997
   4.8461652  51.8027686  19.8346515   3.0189992  44.4304990  19.0099997
   2.9739992  45.3694990  19.1889997   2.1309992  44.1944990  18.7409997
   2.8928166  44.5271698  18.9981507  16.3319992  55.0934990  28.9459997
  16.1759992  55.7724990  28.2889997  17.2639992  55.1654990  29.1489997
  16.4367328  55.1961586  28.8835529   3.8269992  39.2114990  27.6829997
   3.5979992  39.2704990  26.7559997   3.3839992  38.4204990  27.9899997
   3.7357387  39.1126412  27.5975223   2.7569992  53.1524990  23.8439997
   1.9249992  53.6244990  23.8709997   3.3029992  53.6624990  23.2449997
   2.7168710  53.2860317  23.7667570  10.7349992  54.1924990  18.1689997
  10.0909992  53.5614990  18.4909997  11.4969992  53.6614990  17.9379997
  10.7498708  54.0343171  18.1818461  13.2199992  53.0644990  35.5229997
  12.8689992  52.2074990  35.7659997  13.9459992  53.2064990  36.1299997
  13.2701590  52.9665189  35.6382889  15.3389992  54.0094990  18.4029997
  15.6219992  53.2144990  18.8559997  16.0789992  54.2424990  17.8419997
  15.4777295  53.9322349  18.3891469   6.2939992  49.9184990  18.2609997
   6.3579992  49.1244990  18.7909997   6.9469992  49.8004990  17.5709997
   6.3910483  49.7937496  18.2403407  11.6459992  50.9654990  17.9969997
  11.3779992  51.1464990  18.8969997  11.4399992  50.0404990  17.8649997
  11.5813443  50.8651873  18.1026643  68.7169992  46.2474990  88.7759997
  69.0409992  45.6164990  88.1329997  68.2769992  45.7134990  89.4369997
  68.7018707  46.0888261  88.7773195  14.3429992  49.4604990  32.9439997
  15.0879992  50.0494990  32.8249997  13.5849992  50.0424990  33.0069997
  14.3425289  49.6197067  32.9362292   7.4429992  47.8914990  20.5669997
   6.9839992  47.4074990  21.2519997   7.6979992  47.2224990  19.9309997
   7.4145997  47.7348491  20.5748734   6.7319992  45.7844990  32.9229997
   6.1139992  46.4584990  33.2029997   7.0759992  46.1054990  32.0889997
   6.6938078  45.9202298  32.8486609   8.5139992  46.1344990  18.8289997
   8.3339992  45.9794990  17.9019997   9.4639992  46.2424990  18.8739997
   8.6177804  46.1278821  18.7081966  17.9039992  48.4884990  18.2749997
  17.6309992  48.0644990  17.4619997  17.9439992  49.4204990  18.0579997
  17.8720201  48.5563523  18.1343548   7.4839992  41.5084990  31.4979997
   8.0199992  41.9604990  30.8459997   6.6319992  41.4004990  31.0749997
   7.4421795  41.5557444  31.3516211   9.0659992  46.9484990  31.7369997
   9.8169992  46.7924990  31.1639997   8.7269992  47.8004990  31.4619997
   9.1229587  47.0423149  31.6214060   8.2899992  38.9654990  31.9289997
   8.1919992  39.9114990  31.8239997   7.5469992  38.5924990  31.4529997
   8.1762123  39.0446811  31.8503204  12.2699992  42.4144990  34.5679997
  11.3219992  42.4464990  34.6999997  12.5819992  41.7884990  35.2219997
  12.1825293  42.3342934  34.6744130   3.7309992  42.2574990  35.6209997
   3.9419992  41.5514990  35.0109997   3.6189992  41.8204990  36.4649997
   3.7447668  42.1016619  35.6515445  65.4949992  42.1754990  83.5599997
  64.5839992  42.2324990  83.8489997  65.9999992  42.1154990  84.3709997
  65.4386873  42.1751838  83.7091190   8.5119992  38.2594990  34.5999997
   9.2229992  37.6194990  34.5859997   8.4109992  38.5254990  33.6869997
   8.5956858  38.2078591  34.4745501   8.4119992  56.8244990  19.8299997
   9.3449992  56.9824990  19.9739997   8.1469992  57.5004990  19.2049997
   8.5039846  56.9374567  19.7652930   1.9799992  51.4614990  19.3129997
   2.8939992  51.5404990  19.5859997   1.9869992  50.7744990  18.6469997
   2.1060624  51.3794074  19.2603045   0.6289992  56.8544990  24.3899997
  -0.0180008  56.3924990  23.8579997   0.9839992  56.1824990  24.9729997
   0.5883741  56.7004785  24.3959157   1.4989992  54.9344990  26.1949997
   1.1649992  54.0544990  26.3669997   1.7209992  55.2804990  27.0599997
   1.4832565  54.8607410  26.3354263  19.0479992  55.7444990  29.1759997
  19.0259992  55.9294990  30.1139997  19.7379992  56.3124990  28.8349997
  19.1383383  55.8467104  29.2584580  18.3629992  49.3574990  22.2499997
  19.2129992  49.7784990  22.3769997  18.3679992  48.6174990  22.8569997
  18.4801143  49.3151106  22.3494732  18.7569992  47.4114990  24.0729997
  18.0309992  46.9314990  24.4709997  19.3379992  47.6164990  24.8049997
  18.7362504  47.3735592  24.2264199  18.5159992  50.1964990  29.0209997
  19.3499992  49.8184990  28.7399997  18.6279992  51.1394990  28.9019997
  18.6451917  50.2722954  28.9664844  17.0019992  53.0744990  31.3279997
  16.3549992  53.3994990  31.9529997  16.4849992  52.6334990  30.6539997
  16.8434112  53.0594133  31.3225272  69.8999992  41.4104990  86.8239997
  69.2229992  41.5414990  87.4879997  69.4139992  41.2554990  86.0139997
  69.7417265  41.4074665  86.8053380  19.0249992  47.3124990  20.4639997
  18.5039992  47.6684990  19.7459997  18.9919992  47.9874990  21.1429997
  18.9490955  47.4525023  20.4572634  17.3739992  44.5514990  19.0149997
  17.4709992  45.2184990  18.3349997  17.2339992  43.7364990  18.5339997
  17.3683407  44.5325670  18.8568312  16.5439992  45.9324990  24.6359997
  16.3939992  44.9874990  24.6159997  16.1899992  46.2134990  25.4799997
  16.4756351  45.8411656  24.7473202   1.5789992  48.0104990  28.6469997
   1.7629992  47.9284990  27.7109997   2.4279992  47.8864990  29.0699997
   1.7190132  47.9825066  28.5761460  18.8969992  45.8054990  34.9599997
  18.0329992  45.4264990  34.7939997  19.5009992  45.0664990  34.8849997
  18.8605394  45.6538378  34.9271778  16.6219992  41.9594990  18.1329997
  17.2319992  41.5884990  18.7699997  15.7849992  41.5384990  18.3289997
  16.5923704  41.8517942  18.2467077  16.2539992  43.5144990  23.0989997
  16.5339992  42.6074990  23.2229997  17.0129992  43.9484990  22.7099997
  16.3949258  43.4490935  23.0633691  16.8659992  44.0964990  28.5349997
  17.7989992  44.3084990  28.4999997  16.6309992  44.1974990  29.4569997
  16.9619517  44.1391844  28.6549113  16.8949992  44.8334990  31.3109997
  16.0519992  45.1014990  31.6759997  17.3379992  45.6554990  31.0999997
  16.8394035  44.9813351  31.3324770  16.8679992  40.7774990  23.1469997
  17.0499992  40.3284990  23.9719997  16.2679992  40.1934990  22.6829997
  16.8118187  40.6370563  23.1972721  73.1869992  57.0814990  93.1009997
  73.3869992  57.5054990  92.2659997  73.8429992  57.4254990  93.7079997
  73.3029916  57.1859784  93.0687890   2.3979992  41.5934990  27.6789997
   2.8429992  40.8014990  27.9809997   2.8639992  42.3094990  28.1089997
   2.5219718  41.5819546  27.7785247   0.7019992  44.5924990  28.7479997
   1.1939992  44.3714990  27.9569997   1.0639992  45.4324990  29.0289997
   0.8182923  44.6758480  28.6777389  18.7339992  40.8454990  19.6749997
  19.1469992  40.1244990  19.1999997  19.4159992  41.5144990  19.7329997
  18.8826060  40.8373741  19.6179233   1.0149992  40.8504990  22.8019997
   0.0899992  41.0584990  22.6729997   1.4689992  41.3344990  22.1119997
   0.9496298  40.9444311  22.6910433  15.7859992  55.8344990  24.7479997
  16.4379992  55.4864990  24.1399997  16.2969992  56.3224990  25.3939997
  15.9442872  55.8528248  24.7520964   0.9789992  39.5884990  31.1459997
   0.3139992  39.3424990  31.7889997   0.5359992  40.2104990  30.5689997
   0.8281168  39.6389225  31.1559830   6.1249992  53.7374990  31.5489997
   5.6999992  54.5474990  31.2669997   7.0289992  53.8234990  31.2469997
   6.1890706  53.8599557  31.4695836  12.7809992  56.4224990  33.7529997
  13.4579992  55.7894990  33.5129997  13.1029992  56.8234990  34.5599997
  12.9171618  56.3901147  33.8292802  17.6989992  39.0124990  32.8319997
  16.8859992  39.3374990  32.4449997  17.9319992  38.2514990  32.2989997
  17.6191347  38.9541891  32.7069824   3.5269992  56.9944990  31.5969997
   2.8059992  57.4344990  31.1459997   3.1609992  56.7434990  32.4449997
   3.3789632  57.0207235  31.6499649  60.7849992  49.5554990  92.7089997
  61.5169992  49.8104990  93.2699997  60.0049992  49.7604990  93.2239997
  60.7797684  49.6181457  92.8554774   5.9939992  56.5944990  30.6259997
   5.1289992  56.6664990  31.0299997   5.9389992  57.1414990  29.8429997
   5.8682289  56.6783242  30.5753749  10.7049992  56.4824990  29.8019997
  10.2479992  57.0114990  29.1479997  10.8669992  57.0854990  30.5269997
  10.6643919  56.6363990  29.8105740  13.0319992  55.3604990  30.7469997
  12.1279992  55.5254990  30.4809997  13.4609992  56.2134990  30.6809997
  12.9662017  55.4984184  30.7016495  15.6359992  56.9304990  31.0419997
  15.4549992  57.8464990  30.8309997  15.8129992  56.5194990  30.1949997
  15.6351377  57.0003365  30.8987178   2.9419992  55.6174990  28.5069997
   2.9229992  55.1914990  29.3639997   3.7459992  55.2984990  28.0979997
   3.0481393  55.5160297  28.5690155   5.0829992  54.3274990  27.1619997
   4.8639992  53.4104990  27.3319997   5.9069992  54.4674990  27.6279997
   5.1644702  54.2210523  27.2482510   7.6199992  54.7974990  28.0109997
   7.8329992  53.9094990  27.7239997   7.6849992  54.7624990  28.9649997
   7.6579149  54.6713338  28.1007351  11.1289992  40.4614990  27.1549997
  10.4539992  39.8314990  27.4109997  11.6929992  39.9774990  26.5519997
  11.1129363  40.3098886  27.1084810  16.2709992  38.5684990  27.2679997
  16.8749992  39.1164990  26.7659997  15.4019992  38.8874990  27.0269997
  16.2360419  38.6865628  27.1667741  17.9979992  39.7074990  25.6009997
  18.6099992  39.1934990  25.0739997  18.3809992  40.5844990  25.6239997
  18.1333867  39.7557613  25.5320888  66.8149992  44.9624990  85.4469997
  67.3789992  44.4164990  84.8999997  66.6669992  44.4414990  86.2359997
  66.8723037  44.8171798  85.4787212   3.4549992  39.0954990  24.9769997
   2.6779992  38.8604990  24.4699997   3.9859992  38.2984990  24.9859997
   3.4203735  38.9556462  24.9088090   2.2919992  38.8934990  20.7809997
   2.7309992  39.5044990  20.1889997   1.6579992  39.4314990  21.2549997
   2.2663859  39.0499076  20.7640287   8.0349992  39.0214990  24.7899997
   8.9089992  39.4104990  24.7609997   7.8989992  38.8064990  25.7129997
   8.1361953  39.0456654  24.9107599  13.5909992  39.0514990  26.4399997
  13.6679992  39.1474990  25.4899997  13.3159992  38.1444990  26.5679997
  13.5643233  38.9419093  26.3273665  14.9449992  39.0774990  22.1319997
  14.2419992  39.6924990  21.9219997  14.4999992  38.2404990  22.2629997
  14.7886550  39.0484679  22.1209819   2.1929992  54.8414990  21.6779997
   1.5079992  54.8034990  21.0109997   2.1959992  55.7534990  21.9659997
   2.0996806  54.9596669  21.6256961   4.1529992  40.8094990  19.2229997
   4.6439992  40.1794990  18.6959997   4.7759992  41.1054990  19.8859997
   4.3045304  40.7632387  19.2404922   9.1789992  41.1024990  21.6799997
   9.3569992  40.4554990  22.3629997   9.1249992  41.9364990  22.1469997
   9.1960678  41.1266615  21.8366283  11.0569992  56.0504990  20.0759997
  11.9229992  56.4174990  19.8979997  10.8099992  55.6114990  19.2619997
  11.1421853  56.0414021  19.9415813  17.7659992  55.6134990  22.7549997
  17.5719992  54.8654990  22.1899997  17.7269992  56.3714990  22.1719997
  17.7341645  55.6135797  22.5988131  65.4409992  43.3514990  87.8609997
  64.6059992  43.8054990  87.9709997  65.9649992  43.6274990  88.6129997
  65.3975070  43.4509677  87.9777134   3.4129992  39.6094990  34.4949997
   3.0469992  38.8434990  34.9369997   4.3259992  39.6384990  34.7809997
   3.4863172  39.5085335  34.5941872   4.0109992  55.7614990  18.7029997
   3.7429992  56.0474990  19.5769997   4.7819992  55.2154990  18.8559997
   4.0785926  55.7267790  18.8431188  31.3899992  48.2514990  24.9359997
  31.4789992  49.1954990  24.8029997  30.7509992  47.9764990  24.2779997
  31.3158378  48.3433846  24.8289258  30.3229992  47.5064990  28.3549997
  30.2839992  46.8604990  29.0599997  29.9999992  47.0394990  27.5829997
  30.2740469  47.3550005  28.3472803  22.6909992  47.1204990  29.9479997
  22.7319992  46.4954990  30.6709997  23.3939992  47.7444990  30.1299997
  22.7916223  47.1192318  30.0716164  34.0289992  50.4454990  26.6559997
  33.5879992  49.7254990  27.1069997  34.0159992  51.1664990  27.2859997
  33.9669215  50.4444303  26.8028088  23.6149992  51.5704990  28.4829997
  23.2449992  50.7684990  28.1129997  24.5559992  51.4024990  28.5289997
  23.6915984  51.4379649  28.4385586  20.2249992  45.2304990  23.8749997
  19.7769992  46.0764990  23.8569997  19.6639992  44.6514990  23.3599997
  20.0878546  45.2679004  23.8028874  20.9349992  47.3924990  26.0009997
  21.1489992  46.6224990  26.5279997  21.6729992  47.4824990  25.3979997
  21.0640073  47.2993546  25.9915786  31.1399992  55.5494990  26.8679997
  31.7599992  54.8734990  26.5949997  30.9319992  55.3314990  27.7769997
  31.1967679  55.4275032  26.9534518  65.9849992  49.5644990  79.5459997
  65.2399992  49.0564990  79.2229997  65.8509992  49.6134990  80.4919997
  65.8648633  49.5015714  79.6297563  28.7119992  49.9384990  28.7609997
  29.0159992  49.2524990  28.1659997  29.4339992  50.0574990  29.3789997
  28.8511240  49.8607325  28.7630941  37.3749992  41.5404990  29.6209997
  37.4239992  42.1504990  30.3569997  37.8009992  42.0014990  28.8979997
  37.4392851  41.6863266  29.6240532  31.8529992  44.3324990  29.0879997
  31.9949992  43.3864990  29.1079997  31.7469992  44.5394990  28.1599997
  31.8581051  44.2309706  28.9652249  25.0079992  42.4344990  26.3609997
  25.0509992  43.2944990  25.9419997  24.5499992  41.8814990  25.7269997
  24.9520163  42.4774174  26.2180604  32.7299992  42.5654990  24.7609997
  33.3759992  42.2364990  25.3859997  33.2399992  43.0824990  24.1389997
  32.8874289  42.5904333  24.7623681  21.6279992  44.8314990  27.1229997
  22.2819992  44.2814990  27.5549997  21.6519992  44.5574990  26.2059997
  21.7207199  44.7192178  27.0581650  26.7839992  46.3814990  26.3379997
  27.3999992  45.8544990  26.8469997  26.1979992  45.7414990  25.9339997
  26.7890652  46.2228919  26.3530277  37.7669992  43.0184990  31.8569997
  37.0779992  43.6764990  31.7619997  37.7819992  42.8204990  32.7939997
  37.6747756  43.0817614  31.9705795  23.8179992  41.3524990  30.4349997
  23.5989992  41.8824990  29.6679997  23.1499992  41.5784990  31.0819997
  23.6976975  41.4555979  30.4175123  31.1869992  50.8524990  23.9789997
  30.8909992  50.5294990  23.1269997  30.8629992  51.7524990  24.0199997
  31.1027458  50.9299678  23.8680598  73.1349992  48.6974990  88.3319997
  73.7769992  49.1534990  87.7889997  72.3049992  48.8104990  87.8699997
  73.1107352  48.7753223  88.1950234  26.3869992  49.0274990  30.7219997
  25.6469992  49.6264990  30.8259997  27.1009992  49.5814990  30.4059997
  26.3823146  49.1842611  30.6935150  34.4939992  41.8564990  26.7419997
  34.2789992  41.0904990  27.2749997  35.1499992  42.3284990  27.2549997
  34.5532673  41.8155739  26.8841972  23.4119992  43.2444990  28.3869997
  24.0249992  43.8774990  28.7599997  23.9239992  42.7724990  27.7309997
  23.5651933  43.2673380  28.3493477  24.7939992  50.9924990  31.5089997
  24.7889992  51.8714990  31.1309997  23.9409992  50.9084990  31.9339997
  24.6779199  51.1015901  31.5146942  20.9159992  50.6634990  22.2909997
  20.6439992  50.8924990  21.4019997  20.9609992  51.5004990  22.7519997
  20.8848360  50.8081034  22.2316186  34.5409992  52.2844990  29.0039997
  33.5989992  52.3434990  29.1659997  34.8169992  53.1904990  28.8669997
  34.4495865  52.4150299  29.0076174  34.8409992  40.5714990  30.4209997
  34.1049992  41.1814990  30.3839997  35.5249992  40.9864990  29.8949997
  34.8325367  40.7112562  30.3448156  27.8439992  38.6574990  27.8869997
  27.7269992  37.7094990  27.8329997  26.9889992  38.9904990  28.1599997
  27.7123691  38.5725842  27.9165072  32.7929992  54.0654990  25.6289997
  33.2179992  53.3584990  25.1439997  33.1099992  54.8674990  25.2119997
  32.8940266  54.0770201  25.5062461  33.9519992  51.9664990  24.1379997
  33.6949992  51.2764990  23.5259997  34.0229992  51.5234990  24.9829997
  33.9264322  51.8121568  24.1685372  69.8829992  42.3784990  77.7449997
  68.9439992  42.4894990  77.5939997  70.1799992  43.2344990  78.0509997
  69.7946371  42.5095327  77.7657362  35.6379992  50.5334990  32.6149997
  35.7779992  49.9414990  31.8759997  35.8059992  51.4064990  32.2589997
  35.6798734  50.5704041  32.4656937  30.1109992  47.4954990  22.3879997
  29.3989992  48.0304990  22.0359997  30.8019992  47.5504990  21.7279997
  30.1069704  47.5761663  22.2505797  30.1649992  45.9524990  19.4259997
  30.8659992  45.9754990  20.0779997  30.4669992  45.3244990  18.7699997
  30.3018202  45.8707223  19.4265591  37.4799992  46.8734990  30.6809997
  36.8279992  47.5674990  30.7699997  37.9449992  47.0834990  29.8709997
  37.4535357  46.9969544  30.5837056  33.5169992  47.7044990  23.3389997
  32.7849992  47.9334990  23.9119997  33.9639992  46.9914990  23.7939997
  33.4772753  47.6393984  23.4789698  33.4139992  45.8794990  32.4069997
  33.4939992  46.6424990  32.9789997  32.8129992  46.1584990  31.7169997
  33.3436547  46.0217468  32.3920029  25.1619992  48.3354990  25.2219997
  24.8319992  47.9644990  24.4039997  25.7499992  47.6644990  25.5689997
  25.1963182  48.1940648  25.1569898  26.5289992  51.7634990  27.9029997
  26.4339992  51.1844990  27.1469997  27.2579992  51.3924990  28.3989997
  26.6146011  51.6340572  27.8666011  25.5289992  47.1034990  28.8549997
  26.0939992  47.2254990  28.0929997  25.8469992  47.7414990  29.4939997
  25.6493619  47.2064388  28.8370019  31.8379992  52.6074990  29.5889997
  31.5969992  53.2694990  30.2369997  31.6399992  51.7724990  30.0139997
  31.7782662  52.5852704  29.7351008  67.5049992  49.7484990  90.7829997
  67.1589992  49.3664990  91.5889997  67.3049992  50.6814990  90.8539997
  67.4305399  49.8223489  90.9030401  26.4089992  51.5034990  33.5729997
  26.0969992  52.2854990  34.0279997  25.7589992  51.3504990  32.8869997
  26.2784858  51.5897882  33.5425344  32.3879992  46.8674990  21.0249997
  32.9669992  47.0174990  21.7709997  32.8019992  47.3374990  20.3009997
  32.5233358  46.9515966  21.0293935  23.3289992  47.7014990  32.8009997
  23.3989992  48.3524990  33.4999997  22.4379992  47.8044990  32.4659997
  23.2181690  47.8044261  32.8513026  30.1139992  53.6034990  24.4599997
  30.5879992  53.8994990  25.2369997  29.5509992  54.3424990  24.2269997
  30.1027890  53.7438047  24.5348084  36.0859992  38.6174990  20.8369997
  35.1859992  38.7554990  21.1329997  36.3379992  39.4484990  20.4359997
  35.9967727  38.7488705  20.8232935  24.1519992  47.4044990  22.8109997
  23.8599992  48.1724990  22.3199997  23.4779992  46.7454990  22.6479997
  24.0208843  47.4204537  22.7217695  37.2759992  52.9834990  19.2139997
  37.3489992  53.9224990  19.3839997  38.1809992  52.6784990  19.1579997
  37.4084170  53.0708294  19.2297045  20.2449992  49.7674990  31.6259997
  19.7439992  49.7394990  30.8109997  20.2509992  48.8624990  31.9359997
  20.1771690  49.6412234  31.5562770  19.9959992  52.5484990  28.5099997
  20.9419992  52.4034990  28.4909997  19.8829992  53.3324990  29.0469997
  20.1103578  52.6346708  28.5800300  29.1719992  52.7884990  33.0689997
  29.2589992  53.6144990  33.5439997  28.3079992  52.4584990  33.3179997
  29.0671944  52.8569871  33.1676558  70.6009992  44.2454990  79.4059997
  71.4929992  44.1074990  79.7249997  70.6579992  45.0364990  78.8689997
  70.7307380  44.3334777  79.3770981  29.5859992  56.5604990  22.8749997
  29.5109992  56.4394990  21.9279997  29.6189992  57.5094990  22.9929997
  29.5802083  56.6722639  22.7614973  23.2399992  55.3494990  24.6559997
  23.3919992  55.0014990  25.5339997  22.3889992  54.9924990  24.3999997
  23.1458344  55.2535891  24.7416851  32.6879992  55.7144990  19.8769997
  33.0629992  54.9704990  19.4059997  32.6919992  55.4444990  20.7949997
  32.7398969  55.5760920  19.9366475  32.3569992  55.6404990  22.6259997
  31.4219992  55.7404990  22.8049997  32.6369992  54.9304990  23.2049997
  32.2669471  55.5582944  22.7286678  22.4939992  51.0914990  32.6689997
  22.7099992  50.7294990  33.5289997  21.6389992  50.7164990  32.4599997
  22.4079082  50.9913377  32.7582396  25.1129992  39.5614990  28.6649997
  24.2509992  39.4744990  28.2569997  25.0909992  40.4174990  29.0929997
  24.9920557  39.6653078  28.6670202  33.1019992  43.0384990  32.8929997
  32.5879992  42.9134990  33.6909997  32.9469992  43.9514990  32.6489997
  33.0107802  43.1447433  32.9691504  33.8649992  47.8994990  18.6539997
  33.9069992  47.6774990  17.7239997  34.7139992  48.2984990  18.8439997
  33.9855253  47.9230510  18.5523804  29.4379992  41.7754990  19.3249997
  29.1839992  41.7944990  20.2469997  29.1809992  40.9044990  19.0229997
  29.3684508  41.6603292  19.4104786  25.2039992  44.5264990  29.7599997
  24.5619992  44.4864990  30.4689997  25.2409992  45.4534990  29.5219997
  25.1211659  44.6462540  29.8248463  61.1099992  48.8594990  85.3149997
  61.8549992  48.8564990  84.7139997  61.1879992  48.0354990  85.7969997
  61.2224158  48.7477928  85.2979136  25.2009992  44.7474990  24.6719997
  24.3079992  44.4074990  24.6129997  25.6519992  44.3704990  23.9159997
  25.1397185  44.6500220  24.5617698  30.7369992  45.1634990  23.4889997
  30.3279992  45.9784990  23.1969997  31.4569992  45.0234990  22.8749997
  30.7784439  45.2560383  23.3660098  29.8389992  45.3394990  34.9769997
  29.2759992  44.6344990  35.2979997  30.6649992  45.2184990  35.4449997
  29.8736674  45.2267176  35.0841734  31.7409992  44.6094990  26.3029997
  31.5459992  45.2154990  25.5879997  31.9229992  43.7764990  25.8689997
  31.7389195  44.5797936  26.1464079  22.9539992  44.8474990  31.6269997
  22.9159992  45.2474990  32.4959997  22.4629992  44.0304990  31.7169997
  22.8824374  44.7918228  31.7580980  26.3199992  42.2214990  18.4259997
  25.8889992  41.7764990  19.1549997  25.6019992  42.5924990  17.9129997
  26.1639176  42.2107063  18.4564913  19.5619992  41.9634990  25.4779997
  20.1929992  41.9344990  26.1969997  20.0119992  41.5384990  24.7469997
  19.7091082  41.9021269  25.4776307  20.8359992  42.7094990  20.9019997
  21.3109992  43.3004990  20.3169997  20.1189992  43.2394990  21.2489997
  20.8040406  42.8621011  20.8688495  31.0049992  46.2474990  30.9739997
  31.3289992  45.6164990  30.3309997  30.5649992  45.7134990  31.6349997
  30.9898707  46.0888261  30.9753195  27.7829992  42.1754990  25.7579997
  26.8719992  42.2324990  26.0469997  28.2879992  42.1154990  26.5689997
  27.7266873  42.1751838  25.9071190  68.1109992  51.0224990  78.5709997
  67.8159992  51.8494990  78.9529997  67.4079992  50.4034990  78.7669997
  67.9755855  51.0519458  78.6497634  22.6109992  43.8044990  24.5849997
  21.7219992  43.9034990  24.2449997  22.9069992  42.9624990  24.2389997
  22.5294001  43.7042473  24.4917318  26.2639992  43.8044990  22.2419997
  27.1959992  43.9334990  22.4199997  26.0489992  44.4734990  21.5919997
  26.3624472  43.9125817  22.1784873  32.1879992  41.4104990  29.0219997
  31.5109992  41.5414990  29.6859997  31.7019992  41.2554990  28.2119997
  32.0297265  41.4074665  29.0033380  24.9379992  44.9984990  19.8079997
  24.3959992  44.6194990  19.1169997  25.7719992  45.1934990  19.3799997
  24.9764390  44.9729091  19.6554374  35.4749992  57.0814990  35.2989997
  35.6749992  57.5054990  34.4649997  36.1309992  57.4254990  35.9059997
  35.5909937  57.1859993  35.2668645  23.0729992  49.5554990  34.9069997
  23.8049992  49.8104990  35.4689997  22.2929992  49.7604990  35.4229997
  23.0676526  49.6180438  35.0535168  29.1029992  44.9624990  27.6449997
  29.6669992  44.4164990  27.0979997  28.9549992  44.4414990  28.4339997
  29.1603037  44.8171798  27.6767212  24.1049992  41.0994990  24.0639997
  23.7869992  40.1964990  24.0279997  24.8859992  41.1014990  23.5109997
  24.1671079  40.9762240  23.9842908  27.7289992  43.3514990  30.0589997
  26.8939992  43.8054990  30.1699997  28.2529992  43.6274990  30.8109997
  27.6856072  43.4508960  30.1758118  28.2729992  49.5644990  21.7439997
  27.5279992  49.0564990  21.4219997  28.1389992  49.6134990  22.6899997
  28.1529334  49.5016144  21.8278892  58.1179992  47.3194990  90.6299997
  58.3409992  46.9014990  91.4619997  57.5159992  46.7074990  90.2079997
  58.0670802  47.1795216  90.6867561  35.4229992  48.6974990  30.5309997
  36.0649992  49.1534990  29.9869997  34.5929992  48.8104990  30.0679997
  35.3986536  48.7751813  30.3939579  32.1709992  42.3784990  19.9429997
  31.2319992  42.4894990  19.7919997  32.4679992  43.2344990  20.2499997
  32.0826136  42.5094977  19.9638568  29.7929992  49.7484990  32.9809997
  29.4469992  49.3664990  33.7879997  29.5929992  50.6814990  33.0519997
  29.7185987  49.8224013  33.1010443  32.8889992  44.2454990  21.6039997
  33.7809992  44.1074990  21.9229997  32.9459992  45.0364990  21.0669997
  33.0187380  44.3334777  21.5750981  23.3979992  48.8594990  27.5139997
  24.1429992  48.8564990  26.9119997  23.4759992  48.0354990  27.9949997
  23.5103365  48.7477395  27.4967412  30.3989992  51.0224990  20.7689997
  30.1039992  51.8494990  21.1509997  29.6959992  50.4034990  20.9659997
  30.2636379  51.0519182  20.8478636  20.4059992  47.3194990  32.8289997
  20.6289992  46.9014990  33.6599997  19.8039992  46.7074990  32.4059997
  20.3551513  47.1794617  32.8856722  27.4229992  46.8364990  35.0419997
  27.1269992  46.6714990  34.1459997  28.3539992  46.6164990  35.0309997
  27.5084401  46.7841891  34.9180189  32.0429992  52.2104990  32.9309997
  31.1419992  52.3934990  32.6639997  32.0769992  52.4694990  33.8519997
  31.9243861  52.2705245  33.0189517  37.7739992  44.4544990  21.2989997
  37.2199992  44.0584990  20.6259997  37.8749992  45.3654990  21.0209997
  37.7118589  44.5233904  21.1693839  65.1349992  46.8364990  92.8429997
  64.8389992  46.6714990  91.9479997  66.0659992  46.6164990  92.8329997
  65.2203909  46.7841274  92.7190110  37.7369992  50.2554990  34.1359997
  36.8859992  50.4934990  33.7679997  38.3279992  50.2384990  33.3819997
  37.7003831  50.2857623  33.9838448  36.0689992  53.2404990  21.7639997
  35.6969992  52.4154990  22.0729997  36.3469992  53.0574990  20.8659997
  36.0555807  53.1027031  21.6850063  33.2299992  48.0484990  28.7849997
  32.3019992  47.8174990  28.7579997  33.6809992  47.2714990  28.4549997
  33.1638165  47.9117785  28.7366772  25.7729992  52.3774990  24.9179997
  26.2999992  53.1504990  24.7179997  24.8929992  52.6014990  24.6159997
  25.7262121  52.5137344  24.8497460  21.5279992  47.2394990  19.5049997
  22.1439992  47.8664990  19.8849997  20.6659992  47.5554990  19.7769997
  21.4957678  47.3679423  19.5937192  27.1999992  50.0404990  24.4939997
  26.9589992  50.9654990  24.5359997  26.4599992  49.5814990  24.8909997
  27.0669463  50.1050969  24.5534279  27.7149992  54.1894990  30.8089997
  28.0779992  55.0434990  30.5759997  28.2469992  53.8974990  31.5499997
  27.8365141  54.2668907  30.8772079  25.8829992  55.0614990  24.0399997
  24.9339992  55.1674990  24.0909997  26.2349992  55.8824990  24.3839997
  25.8005647  55.1870029  24.0934882  31.2589992  50.2884990  30.5099997
  30.8329992  50.0604990  31.3359997  31.8399992  49.5494990  30.3279997
  31.2792088  50.1574393  30.5984454  33.4619992  51.2174990  19.5839997
  33.8149992  50.8374990  20.3879997  32.5129992  51.1234990  19.6709997
  33.3820956  51.1527867  19.7058005  69.7549992  52.2104990  90.7329997
  68.8539992  52.3934990  90.4649997  69.7889992  52.4694990  91.6539997
  69.6363021  52.2705505  90.8208206  33.9179992  54.8404990  32.9789997
  33.3159992  54.2844990  32.4839997  34.1989992  55.5074990  32.3529997
  33.8735757  54.8545755  32.8265657  37.9649992  55.6964990  19.7849997
  38.7089992  56.2824990  19.6449997  37.2709992  56.2654990  20.1179997
  37.9729809  55.8535830  19.8108572  22.0399992  42.0734990  32.3869997
  21.1469992  42.4114990  32.3189997  21.9409992  41.2174990  32.8049997
  21.9044752  42.0040986  32.4341644  34.3279992  49.8894990  21.8109997
  34.0509992  49.1614990  22.3669997  35.2549992  50.0084990  22.0159997
  34.4154419  49.8059436  21.9148264  21.6909992  53.8774990  30.8219997
  21.9079992  52.9454990  30.7909997  21.9379992  54.1524990  31.7049997
  21.7540948  53.7870976  30.9371268  27.5529992  52.3294990  18.0309997
  27.7919992  51.5804990  17.4839997  27.2839992  51.9414990  18.8639997
  27.5493233  52.1746865  18.0687791  26.4899992  51.8994990  20.4869997
  26.6369992  51.3794990  21.2769997  26.4869992  52.8064990  20.7939997
  26.5097102  51.9508964  20.6365907  22.9429992  49.1514990  20.9979997
  22.2569992  49.5044990  21.5649997  23.4659992  49.9144990  20.7509997
  22.9198402  49.3028912  21.0421783  30.7739992  41.8144990  31.2769997
  31.4729992  41.8884990  31.9269997  30.3939992  40.9494990  31.4309997
  30.8182662  41.7077050  31.3867412  31.5589992  41.4664990  22.3739997
  31.7789992  41.9374990  21.5699997  32.1169992  41.8604990  23.0439997
  31.6646044  41.5842946  22.3545207  75.4859992  44.4544990  79.0999997
  74.9319992  44.0584990  78.4279997  75.5869992  45.3654990  78.8229997
  75.4237084  44.5233565  78.9704381  29.2279992  53.5964990  21.2369997
  28.4109992  54.0934990  21.2889997  29.7569992  54.0724990  20.5959997
  29.1878125  53.7287000  21.1575289  28.7589992  43.1944990  23.2089997
  29.5709992  43.6984990  23.2549997  28.5139992  43.0494990  24.1229997
  28.8371091  43.2439366  23.3388552  29.2949992  44.1804990  32.3929997
  29.4139992  44.7544990  33.1499997  29.9499992  43.4924990  32.5079997
  29.3998684  44.1660205  32.5121656  29.6429992  40.2754990  24.1469997
  29.2959992  40.8924990  24.7909997  30.3009992  40.7764990  23.6649997
  29.6844430  40.4276860  24.1700046  26.5659992  54.6404990  21.2179997
  26.7269992  55.4404990  20.7179997  26.3689992  54.9474990  22.1029997
  26.5613906  54.7913690  21.2692316  25.2999992  41.3384990  20.8339997
  25.2169992  42.2264990  21.1809997  26.1899992  41.0734990  21.0659997
  25.4089331  41.4241177  20.9128067  35.4989992  42.0874990  33.2279997
  34.5829992  42.3494990  33.1409997  35.8349992  42.0844990  32.3319997
  35.4188499  42.1230174  33.0948748  34.1009992  45.8374990  27.3239997
  33.3039992  45.4224990  26.9959997  34.5459992  45.1474990  27.8149997
  34.0520367  45.6873372  27.3454897  23.5589992  51.7654990  19.8939997
  24.1509992  52.4654990  20.1709997  24.0179992  51.3324990  19.1749997
  23.7021652  51.8027686  19.8346515  21.8749992  44.4304990  19.0099997
  21.8299992  45.3694990  19.1889997  20.9869992  44.1944990  18.7409997
  21.7488166  44.5271698  18.9981507  75.4489992  50.2554990  91.9369997
  74.5979992  50.4934990  91.5699997  76.0399992  50.2384990  91.1839997
  75.4122468  50.2858251  91.7848902  35.1879992  55.0934990  28.9459997
  35.0319992  55.7724990  28.2889997  36.1199992  55.1654990  29.1489997
  35.2927328  55.1961586  28.8835529  22.6829992  39.2114990  27.6829997
  22.4539992  39.2704990  26.7559997  22.2399992  38.4204990  27.9899997
  22.5917387  39.1126412  27.5975223  21.6129992  53.1524990  23.8439997
  20.7809992  53.6244990  23.8709997  22.1589992  53.6624990  23.2449997
  21.5728710  53.2860317  23.7667570  29.5909992  54.1924990  18.1689997
  28.9469992  53.5614990  18.4909997  30.3529992  53.6614990  17.9379997
  29.6058708  54.0343171  18.1818462  34.1949992  54.0094990  18.4029997
  34.4779992  53.2144990  18.8559997  34.9349992  54.2424990  17.8419997
  34.3337295  53.9322349  18.3891469  25.1499992  49.9184990  18.2609997
  25.2139992  49.1244990  18.7909997  25.8029992  49.8004990  17.5709997
  25.2470483  49.7937496  18.2403407  27.4639992  49.5444990  35.5609997
  27.1359992  49.8154990  34.7039997  27.6159992  48.6034990  35.4729997
  27.4396412  49.4544058  35.4317804  30.5019992  50.9654990  17.9969997
  30.2339992  51.1464990  18.8969997  30.2959992  50.0404990  17.8649997
  30.4373443  50.8651873  18.1026643  21.6409992  46.7754990  35.5479997
  22.0489992  45.9184990  35.4269997  21.3809992  46.7894990  36.4689997
  21.6617082  46.6600596  35.6559469  26.2989992  47.8914990  20.5669997
  25.8399992  47.4074990  21.2519997  26.5539992  47.2224990  19.9309997
  26.2705997  47.7348491  20.5748734  73.7809992  53.2404990  79.5649997
  73.4089992  52.4154990  79.8749997  74.0589992  53.0574990  78.6679997
  73.7675997  53.1026160  79.4861551  27.3699992  46.1344990  18.8289997
  27.1899992  45.9794990  17.9019997  28.3199992  46.2424990  18.8739997
  27.4737804  46.1278821  18.7081966  36.7599992  48.4884990  18.2749997
  36.4869992  48.0644990  17.4619997  36.7999992  49.4204990  18.0579997
  36.7280201  48.5563523  18.1343548  26.3399992  41.5084990  31.4979997
  26.8759992  41.9604990  30.8459997  25.4879992  41.4004990  31.0749997
  26.2981795  41.5557444  31.3516211  27.9219992  46.9484990  31.7369997
  28.6729992  46.7924990  31.1639997  27.5829992  47.8004990  31.4619997
  27.9789587  47.0423149  31.6214060  27.1459992  38.9654990  31.9289997
  27.0479992  39.9114990  31.8239997  26.4029992  38.5924990  31.4529997
  27.0322123  39.0446811  31.8503204  31.1259992  42.4144990  34.5679997
  30.1779992  42.4464990  34.6999997  31.4379992  41.7884990  35.2219997
  31.0385293  42.3342934  34.6744130  27.2679992  56.8244990  19.8299997
  28.2009992  56.9824990  19.9739997  27.0029992  57.5004990  19.2049997
  27.3599846  56.9374567  19.7652930  20.8359992  51.4614990  19.3129997
  21.7499992  51.5404990  19.5859997  20.8429992  50.7744990  18.6469997
  20.9620624  51.3794074  19.2603045  19.4849992  56.8544990  24.3899997
  18.8379992  56.3924990  23.8579997  19.8399992  56.1824990  24.9729997
  19.4443741  56.7004785  24.3959157  20.3549992  54.9344990  26.1949997
  20.0209992  54.0544990  26.3669997  20.5769992  55.2804990  27.0599997
  20.3392565  54.8607410  26.3354263  70.9419992  48.0484990  86.5869997
  70.0139992  47.8174990  86.5599997  71.3929992  47.2714990  86.2569997
  70.8758165  47.9117785  86.5386772  37.9039992  55.7444990  29.1759997
  37.8819992  55.9294990  30.1139997  38.5939992  56.3124990  28.8349997
  37.9943383  55.8467104  29.2584580  37.4669992  55.3114990  32.0969997
  36.9799992  54.5754990  31.7259997  38.0159992  54.9174990  32.7749997
  37.4746101  55.1576267  32.1379034  37.2189992  49.3574990  22.2499997
  38.0689992  49.7784990  22.3769997  37.2239992  48.6174990  22.8569997
  37.3361143  49.3151106  22.3494732  37.6129992  47.4114990  24.0729997
  36.8869992  46.9314990  24.4709997  38.1939992  47.6164990  24.8049997
  37.5922504  47.3735592  24.2264199  37.3719992  50.1964990  29.0209997
  38.2059992  49.8184990  28.7399997  37.4839992  51.1394990  28.9019997
  37.5011917  50.2722954  28.9664844  35.8579992  53.0744990  31.3279997
  35.2109992  53.3994990  31.9529997  35.3409992  52.6334990  30.6539997
  35.6994112  53.0594133  31.3225272  37.8809992  47.3124990  20.4639997
  37.3599992  47.6684990  19.7459997  37.8479992  47.9874990  21.1429997
  37.8050955  47.4525023  20.4572634  36.2299992  44.5514990  19.0149997
  36.3269992  45.2184990  18.3349997  36.0899992  43.7364990  18.5339997
  36.2243407  44.5325670  18.8568312  35.3999992  45.9324990  24.6359997
  35.2499992  44.9874990  24.6159997  35.0459992  46.2134990  25.4799997
  35.3316351  45.8411656  24.7473202  20.4349992  48.0104990  28.6469997
  20.6189992  47.9284990  27.7109997  21.2839992  47.8864990  29.0699997
  20.5750132  47.9825066  28.5761460  63.4849992  52.3774990  82.7199997
  64.0119992  53.1504990  82.5189997  62.6049992  52.6014990  82.4179997
  63.4381793  52.5136652  82.6516304  35.4779992  41.9594990  18.1329997
  36.0879992  41.5884990  18.7699997  34.6409992  41.5384990  18.3289997
  35.4483704  41.8517942  18.2467077  35.1099992  43.5144990  23.0989997
  35.3899992  42.6074990  23.2229997  35.8689992  43.9484990  22.7099997
  35.2509258  43.4490935  23.0633691  35.7219992  44.0964990  28.5349997
  36.6549992  44.3084990  28.4999997  35.4869992  44.1974990  29.4569997
  35.8179517  44.1391844  28.6549113  35.7509992  44.8334990  31.3109997
  34.9079992  45.1014990  31.6759997  36.1939992  45.6554990  31.0999997
  35.6954035  44.9813351  31.3324770  35.7239992  40.7774990  23.1469997
  35.9059992  40.3284990  23.9719997  35.1239992  40.1934990  22.6829997
  35.6678187  40.6370563  23.1972721  21.2539992  41.5934990  27.6789997
  21.6989992  40.8014990  27.9809997  21.7199992  42.3094990  28.1089997
  21.3779718  41.5819546  27.7785247  19.5579992  44.5924990  28.7479997
  20.0499992  44.3714990  27.9569997  19.9199992  45.4324990  29.0289997
  19.6742923  44.6758480  28.6777389  37.5539992  40.9224990  35.0129997
  36.6369992  41.1934990  34.9769997  37.6769992  40.3874990  34.2289997
  37.4450828  40.8872711  34.9020767  37.5899992  40.8454990  19.6749997
  38.0029992  40.1244990  19.1999997  38.2719992  41.5144990  19.7329997
  37.7386060  40.8373741  19.6179233  19.8709992  40.8504990  22.8019997
  18.9459992  41.0584990  22.6729997  20.3249992  41.3344990  22.1119997
  19.8056298  40.9444311  22.6910433  64.9119992  50.0404990  82.2959997
  64.6709992  50.9654990  82.3379997  64.1719992  49.5814990  82.6919997
  64.7788934  50.1050881  82.3553191  34.6419992  55.8344990  24.7479997
  35.2939992  55.4864990  24.1399997  35.1529992  56.3224990  25.3939997
  34.8002872  55.8528248  24.7520964  19.8349992  39.5884990  31.1459997
  19.1699992  39.3424990  31.7889997  19.3919992  40.2104990  30.5689997
  19.6841168  39.6389225  31.1559830  24.9809992  53.7374990  31.5489997
  24.5559992  54.5474990  31.2669997  25.8849992  53.8234990  31.2469997
  25.0450706  53.8599557  31.4695836  36.5549992  39.0124990  32.8319997
  35.7419992  39.3374990  32.4449997  36.7879992  38.2514990  32.2989997
  36.4751347  38.9541891  32.7069824  22.3829992  56.9944990  31.5969997
  21.6619992  57.4344990  31.1459997  22.0169992  56.7434990  32.4449997
  22.2349632  57.0207235  31.6499649  24.8499992  56.5944990  30.6259997
  23.9849992  56.6664990  31.0299997  24.7949992  57.1414990  29.8429997
  24.7242289  56.6783242  30.5753749  29.5609992  56.4824990  29.8019997
  29.1039992  57.0114990  29.1479997  29.7229992  57.0854990  30.5269997
  29.5203919  56.6363990  29.8105740  31.8879992  55.3604990  30.7469997
  30.9839992  55.5254990  30.4809997  32.3169992  56.2134990  30.6809997
  31.8222017  55.4984184  30.7016495  34.4919992  56.9304990  31.0419997
  34.3109992  57.8464990  30.8309997  34.6689992  56.5194990  30.1949997
  34.4911377  57.0003365  30.8987178  21.7979992  55.6174990  28.5069997
  21.7789992  55.1914990  29.3639997  22.6019992  55.2984990  28.0979997
  21.9041393  55.5160297  28.5690155  65.4269992  54.1894990  88.6109997
  65.7899992  55.0434990  88.3779997  65.9589992  53.8974990  89.3519997
  65.5485141  54.2668907  88.6792079  23.9389992  54.3274990  27.1619997
  23.7199992  53.4104990  27.3319997  24.7629992  54.4674990  27.6279997
  24.0204702  54.2210523  27.2482510  26.4759992  54.7974990  28.0109997
  26.6889992  53.9094990  27.7239997  26.5409992  54.7624990  28.9649997
  26.5139149  54.6713338  28.1007351  29.9849992  40.4614990  27.1549997
  29.3099992  39.8314990  27.4109997  30.5489992  39.9774990  26.5519997
  29.9689363  40.3098886  27.1084810  35.1269992  38.5684990  27.2679997
  35.7309992  39.1164990  26.7659997  34.2579992  38.8874990  27.0269997
  35.0920419  38.6865628  27.1667741  36.8539992  39.7074990  25.6009997
  37.4659992  39.1934990  25.0739997  37.2369992  40.5844990  25.6239997
  36.9893867  39.7557613  25.5320888  22.3109992  39.0954990  24.9769997
  21.5339992  38.8604990  24.4699997  22.8419992  38.2984990  24.9859997
  22.2763735  38.9556462  24.9088090  21.1479992  38.8934990  20.7809997
  21.5869992  39.5044990  20.1889997  20.5139992  39.4314990  21.2549997
  21.1223859  39.0499076  20.7640287  26.8909992  39.0214990  24.7899997
  27.7649992  39.4104990  24.7609997  26.7549992  38.8064990  25.7129997
  26.9921953  39.0456654  24.9107599  32.4469992  39.0514990  26.4399997
  32.5239992  39.1474990  25.4899997  32.1719992  38.1444990  26.5679997
  32.4203233  38.9419093  26.3273665  33.8009992  39.0774990  22.1319997
  33.0979992  39.6924990  21.9219997  33.3559992  38.2404990  22.2629997
  33.6446550  39.0484679  22.1209819  63.5949992  55.0614990  81.8409997
  63.0316729  55.3950792  81.2888759  63.9469992  55.8824990  82.1859997
  63.5545339  55.2104865  81.8013391  21.0489992  54.8414990  21.6779997
  20.3639992  54.8034990  21.0109997  21.0519992  55.7534990  21.9659997
  20.9556806  54.9596669  21.6256961  23.0089992  40.8094990  19.2229997
  23.4999992  40.1794990  18.6959997  23.6319992  41.1054990  19.8859997
  23.1605304  40.7632387  19.2404922  28.0349992  41.1024990  21.6799997
  28.2129992  40.4554990  22.3629997  27.9809992  41.9364990  22.1469997
  28.0520678  41.1266615  21.8366283  29.9129992  56.0504990  20.0759997
  30.7789992  56.4174990  19.8979997  29.6659992  55.6114990  19.2619997
  29.9981853  56.0414021  19.9415813  36.6219992  55.6134990  22.7549997
  36.4279992  54.8654990  22.1899997  36.5829992  56.3714990  22.1719997
  36.5901645  55.6135797  22.5988131  22.8669992  55.7614990  18.7029997
  22.5989992  56.0474990  19.5769997  23.6379992  55.2154990  18.8559997
  22.9345926  55.7267790  18.8431188  35.8399992  54.3644990  34.9049997
  35.0579992  54.1784990  34.3849997  35.7679992  55.2944990  35.1219997
  35.7232975  54.4646973  34.8631822  50.2459992  48.2514990  24.9359997
  50.3349992  49.1954990  24.8029997  49.6069992  47.9764990  24.2779997
  50.1718378  48.3433846  24.8289258  49.1789992  47.5064990  28.3549997
  49.1399992  46.8604990  29.0599997  48.8559992  47.0394990  27.5829997
  49.1300469  47.3550005  28.3472803  41.5469992  47.1204990  29.9479997
  41.5879992  46.4954990  30.6709997  42.2499992  47.7444990  30.1299997
  41.6476223  47.1192318  30.0716164  68.9709992  50.2884990  88.3119997
  68.5449992  50.0604990  89.1379997  69.5519992  49.5494990  88.1289997
  68.9911587  50.1574084  88.4004111  52.8849992  50.4454990  26.6559997
  52.4439992  49.7254990  27.1069997  52.8719992  51.1664990  27.2859997
  52.8229215  50.4444303  26.8028088  42.4709992  51.5704990  28.4829997
  42.1009992  50.7684990  28.1129997  43.4119992  51.4024990  28.5289997
  42.5475984  51.4379649  28.4385586  39.0809992  45.2304990  23.8749997
  38.6329992  46.0764990  23.8569997  38.5199992  44.6514990  23.3599997
  38.9438546  45.2679004  23.8028874  39.7909992  47.3924990  26.0009997
  40.0049992  46.6224990  26.5279997  40.5289992  47.4824990  25.3979997
  39.9200073  47.2993546  25.9915786  49.9959992  55.5494990  26.8679997
  50.6159992  54.8734990  26.5949997  49.7879992  55.3314990  27.7769997
  50.0527679  55.4275032  26.9534518  47.5679992  49.9384990  28.7609997
  47.8719992  49.2524990  28.1659997  48.2899992  50.0574990  29.3789997
  47.7071240  49.8607325  28.7630941  56.2309992  41.5404990  29.6209997
  56.2799992  42.1504990  30.3569997  56.6569992  42.0014990  28.8979997
  56.2952851  41.6863266  29.6240532  50.7089992  44.3324990  29.0879997
  50.8509992  43.3864990  29.1079997  50.6029992  44.5394990  28.1599997
  50.7141051  44.2309706  28.9652249  43.8639992  42.4344990  26.3609997
  43.9069992  43.2944990  25.9419997  43.4059992  41.8814990  25.7269997
  43.8080163  42.4774174  26.2180604  51.5859992  42.5654990  24.7609997
  52.2319992  42.2364990  25.3859997  52.0959992  43.0824990  24.1389997
  51.7434289  42.5904333  24.7623681  71.6299992  54.8404990  90.7809997
  71.0279992  54.2844990  90.2859997  71.9109992  55.5074990  90.1549997
  71.5855757  54.8545755  90.6285657  40.4839992  44.8314990  27.1229997
  41.1379992  44.2814990  27.5549997  40.5079992  44.5574990  26.2059997
  40.5767199  44.7192179  27.0581650  45.6399992  46.3814990  26.3379997
  46.2559992  45.8544990  26.8469997  45.0539992  45.7414990  25.9339997
  45.6450652  46.2228919  26.3530277  56.6229992  43.0184990  31.8569997
  55.9339992  43.6764990  31.7619997  56.6379992  42.8204990  32.7939997
  56.5307756  43.0817614  31.9705795  42.6739992  41.3524990  30.4349997
  42.4549992  41.8824990  29.6679997  42.0059992  41.5784990  31.0819997
  42.5536975  41.4555979  30.4175123  50.0429992  50.8524990  23.9789997
  49.7469992  50.5294990  23.1269997  49.7189992  51.7524990  24.0199997
  49.9587458  50.9299678  23.8680598  45.2429992  49.0274990  30.7219997
  44.5029992  49.6264990  30.8259997  45.9569992  49.5814990  30.4059997
  45.2383146  49.1842611  30.6935150  53.3499992  41.8564990  26.7419997
  53.1349992  41.0904990  27.2749997  54.0059992  42.3284990  27.2549997
  53.4092673  41.8155739  26.8841972  42.2679992  43.2444990  28.3869997
  42.8809992  43.8774990  28.7599997  42.7799992  42.7724990  27.7309997
  42.4211933  43.2673380  28.3493477  43.6499992  50.9924990  31.5089997
  43.6449992  51.8714990  31.1309997  42.7969992  50.9084990  31.9339997
  43.5339199  51.1015901  31.5146942  39.7719992  50.6634990  22.2909997
  39.4999992  50.8924990  21.4019997  39.8169992  51.5004990  22.7519997
  39.7408360  50.8081034  22.2316186  75.6769992  55.6964990  77.5869997
  76.4209992  56.2824990  77.4469997  74.9829992  56.2654990  77.9199997
  75.6849809  55.8535830  77.6128572  53.3969992  52.2844990  29.0039997
  52.4549992  52.3434990  29.1659997  53.6729992  53.1904990  28.8669997
  53.3055865  52.4150299  29.0076174  53.6969992  40.5714990  30.4209997
  52.9609992  41.1814990  30.3839997  54.3809992  40.9864990  29.8949997
  53.6885367  40.7112562  30.3448156  46.6999992  38.6574990  27.8869997
  46.5829992  37.7094990  27.8329997  45.8449992  38.9904990  28.1599997
  46.5683691  38.5725842  27.9165072  51.6489992  54.0654990  25.6289997
  52.0739992  53.3584990  25.1439997  51.9659992  54.8674990  25.2119997
  51.7500266  54.0770201  25.5062461  52.8079992  51.9664990  24.1379997
  52.5509992  51.2764990  23.5259997  52.8789992  51.5234990  24.9829997
  52.7824322  51.8121568  24.1685372  54.4939992  50.5334990  32.6149997
  54.6339992  49.9414990  31.8759997  54.6619992  51.4064990  32.2589997
  54.5358734  50.5704041  32.4656937  48.9669992  47.4954990  22.3879997
  48.2549992  48.0304990  22.0359997  49.6579992  47.5504990  21.7279997
  48.9629704  47.5761663  22.2505797  49.0209992  45.9524990  19.4259997
  49.7219992  45.9754990  20.0779997  49.3229992  45.3244990  18.7699997
  49.1578202  45.8707223  19.4265591  56.3359992  46.8734990  30.6809997
  55.6839992  47.5674990  30.7699997  56.8009992  47.0834990  29.8709997
  56.3095357  46.9969544  30.5837056  52.3729992  47.7044990  23.3389997
  51.6409992  47.9334990  23.9119997  52.8199992  46.9914990  23.7939997
  52.3332753  47.6393984  23.4789698  59.7519992  42.0734990  90.1879997
  58.8589992  42.4114990  90.1209997  59.6529992  41.2174990  90.6059997
  59.6165241  42.0040941  90.2352982  52.2699992  45.8794990  32.4069997
  52.3499992  46.6424990  32.9789997  51.6689992  46.1584990  31.7169997
  52.1996547  46.0217468  32.3920029  44.0179992  48.3354990  25.2219997
  43.6879992  47.9644990  24.4039997  44.6059992  47.6644990  25.5689997
  44.0523182  48.1940648  25.1569898  45.3849992  51.7634990  27.9029997
  45.2899992  51.1844990  27.1469997  46.1139992  51.3924990  28.3989997
  45.4706011  51.6340572  27.8666011  44.3849992  47.1034990  28.8549997
  44.9499992  47.2254990  28.0929997  44.7029992  47.7414990  29.4939997
  44.5053619  47.2064388  28.8370019  50.6939992  52.6074990  29.5889997
  50.4529992  53.2694990  30.2369997  50.4959992  51.7724990  30.0139997
  50.6342662  52.5852704  29.7351008  45.2649992  51.5034990  33.5729997
  44.9529992  52.2854990  34.0279997  44.6149992  51.3504990  32.8869997
  45.1344858  51.5897882  33.5425344  51.2439992  46.8674990  21.0249997
  51.8229992  47.0174990  21.7709997  51.6579992  47.3374990  20.3009997
  51.3793358  46.9515966  21.0293935  42.1849992  47.7014990  32.8009997
  42.2549992  48.3524990  33.4999997  41.2939992  47.8044990  32.4659997
  42.0741690  47.8044261  32.8513026  48.9699992  53.6034990  24.4599997
  49.4439992  53.8994990  25.2369997  48.4069992  54.3424990  24.2269997
  48.9587890  53.7438047  24.5348084  54.9419992  38.6174990  20.8369997
  54.0419992  38.7554990  21.1329997  55.1939992  39.4484990  20.4359997
  54.8527727  38.7488705  20.8232935  72.0399992  49.8894990  79.6119997
  71.7629992  49.1614990  80.1679997  72.9669992  50.0084990  79.8179997
  72.1274181  49.8060068  79.7158972  43.0079992  47.4044990  22.8109997
  42.7159992  48.1724990  22.3199997  42.3339992  46.7454990  22.6479997
  42.8768843  47.4204537  22.7217695  56.1319992  52.9834990  19.2139997
  56.2049992  53.9224990  19.3839997  57.0369992  52.6784990  19.1579997
  56.2644170  53.0708294  19.2297045  39.1009992  49.7674990  31.6259997
  38.5999992  49.7394990  30.8109997  39.1069992  48.8624990  31.9359997
  39.0331690  49.6412234  31.5562770  38.8519992  52.5484990  28.5099997
  39.7979992  52.4034990  28.4909997  38.7389992  53.3324990  29.0469997
  38.9663578  52.6346708  28.5800300  57.0489992  53.2144990  34.1929997
  56.9999992  52.2584990  34.1549997  56.2229992  53.4814990  34.5939997
  56.9305096  53.1198416  34.2420698  48.0279992  52.7884990  33.0689997
  48.1149992  53.6144990  33.5439997  47.1639992  52.4584990  33.3179997
  47.9231944  52.8569871  33.1676558  48.4419992  56.5604990  22.8749997
  48.3669992  56.4394990  21.9279997  48.4749992  57.5094990  22.9929997
  48.4362083  56.6722639  22.7614973  42.0959992  55.3494990  24.6559997
  42.2479992  55.0014990  25.5339997  41.2449992  54.9924990  24.3999997
  42.0018344  55.2535891  24.7416851  51.5439992  55.7144990  19.8769997
  51.9189992  54.9704990  19.4059997  51.5479992  55.4444990  20.7949997
  51.5958969  55.5760920  19.9366475  51.2129992  55.6404990  22.6259997
  50.2779992  55.7404990  22.8049997  51.4929992  54.9304990  23.2049997
  51.1229471  55.5582944  22.7286678  59.4029992  53.8774990  88.6229997
  59.6199992  52.9454990  88.5919997  59.6499992  54.1524990  89.5069997
  59.4660543  53.7870877  88.7381412  43.9689992  39.5614990  28.6649997
  43.1069992  39.4744990  28.2569997  43.9469992  40.4174990  29.0929997
  43.8480557  39.6653078  28.6670202  48.6319992  39.2834990  32.0399997
  49.0519992  38.8684990  32.7929997  47.6989992  39.1044990  32.1569997
  48.5633736  39.2024921  32.1588950  52.7209992  47.8994990  18.6539997
  52.7629992  47.6774990  17.7239997  53.5699992  48.2984990  18.8439997
  52.8415253  47.9230510  18.5523804  48.2939992  41.7754990  19.3249997
  48.0399992  41.7944990  20.2469997  48.0369992  40.9044990  19.0229997
  48.2244508  41.6603292  19.4104786  44.0599992  44.5264990  29.7599997
  43.4179992  44.4864990  30.4689997  44.0969992  45.4534990  29.5219997
  43.9771659  44.6462540  29.8248463  44.0569992  44.7474990  24.6719997
  43.1639992  44.4074990  24.6129997  44.5079992  44.3704990  23.9159997
  43.9957185  44.6500220  24.5617698  49.5929992  45.1634990  23.4889997
  49.1839992  45.9784990  23.1969997  50.3129992  45.0234990  22.8749997
  49.6344439  45.2560383  23.3660098  50.5969992  44.6094990  26.3029997
  50.4019992  45.2154990  25.5879997  50.7789992  43.7764990  25.8689997
  50.5949195  44.5797936  26.1464079  41.8099992  44.8474990  31.6269997
  41.7719992  45.2474990  32.4959997  41.3189992  44.0304990  31.7169997
  41.7384374  44.7918228  31.7580980  45.1759992  42.2214990  18.4259997
  44.7449992  41.7764990  19.1549997  44.4579992  42.5924990  17.9129997
  45.0199176  42.2107063  18.4564913  64.2019992  51.8994990  78.2889997
  64.3489992  51.3794990  79.0789997  64.1989992  52.8064990  78.5949997
  64.2217300  51.9508975  78.4385877  38.4179992  41.9634990  25.4779997
  39.0489992  41.9344990  26.1969997  38.8679992  41.5384990  24.7469997
  38.5651082  41.9021269  25.4776307  39.6919992  42.7094990  20.9019997
  40.1669992  43.3004990  20.3169997  38.9749992  43.2394990  21.2489997
  39.6600406  42.8621011  20.8688495  49.8609992  46.2474990  30.9739997
  50.1849992  45.6164990  30.3309997  49.4209992  45.7134990  31.6349997
  49.8458707  46.0888261  30.9753195  46.6389992  42.1754990  25.7579997
  45.7279992  42.2324990  26.0469997  47.1439992  42.1154990  26.5689997
  46.5826873  42.1751838  25.9071190  41.4669992  43.8044990  24.5849997
  40.5779992  43.9034990  24.2449997  41.7629992  42.9624990  24.2389997
  41.3854001  43.7042473  24.4917318  45.1199992  43.8044990  22.2419997
  46.0519992  43.9334990  22.4199997  44.9049992  44.4734990  21.5919997
  45.2184472  43.9125817  22.1784873  51.0439992  41.4104990  29.0219997
  50.3669992  41.5414990  29.6859997  50.5579992  41.2554990  28.2119997
  50.8857265  41.4074665  29.0033380  43.7939992  44.9984990  19.8079997
  43.2519992  44.6194990  19.1169997  44.6279992  45.1934990  19.3799997
  43.8324390  44.9729091  19.6554374  47.9589992  44.9624990  27.6449997
  48.5229992  44.4164990  27.0979997  47.8109992  44.4414990  28.4339997
  48.0163037  44.8171798  27.6767212  42.9609992  41.0994990  24.0639997
  42.6429992  40.1964990  24.0279997  43.7419992  41.1014990  23.5109997
  43.0231079  40.9762240  23.9842908  68.4859992  41.8144990  89.0779997
  69.1849992  41.8884990  89.7279997  68.1059992  40.9494990  89.2329997
  68.5302095  41.7077402  89.1877982  46.5849992  43.3514990  30.0589997
  45.7499992  43.8054990  30.1699997  47.1089992  43.6274990  30.8109997
  46.5416072  43.4508960  30.1758118  47.1289992  49.5644990  21.7439997
  46.3839992  49.0564990  21.4219997  46.9949992  49.6134990  22.6899997
  47.0089334  49.5016144  21.8278892  54.2789992  48.6974990  30.5309997
  54.9209992  49.1534990  29.9869997  53.4489992  48.8104990  30.0679997
  54.2546536  48.7751813  30.3939579  51.0269992  42.3784990  19.9429997
  50.0879992  42.4894990  19.7919997  51.3239992  43.2344990  20.2499997
  50.9386136  42.5094977  19.9638568  48.6489992  49.7484990  32.9809997
  48.3029992  49.3664990  33.7879997  48.4489992  50.6814990  33.0519997
  48.5745987  49.8224013  33.1010443  51.7449992  44.2454990  21.6039997
  52.6369992  44.1074990  21.9229997  51.8019992  45.0364990  21.0669997
  51.8747380  44.3334777  21.5750981  42.2539992  48.8594990  27.5139997
  42.9989992  48.8564990  26.9119997  42.3319992  48.0354990  27.9949997
  42.3663366  48.7477395  27.4967412  49.2549992  51.0224990  20.7689997
  48.9599992  51.8494990  21.1509997  48.5519992  50.4034990  20.9659997
  49.1196379  51.0519182  20.8478636  50.8989992  52.2104990  32.9309997
  49.9979992  52.3934990  32.6639997  50.9329992  52.4694990  33.8519997
  50.7803861  52.2705245  33.0189517  56.6299992  44.4544990  21.2989997
  56.0759992  44.0584990  20.6259997  56.7309992  45.3654990  21.0209997
  56.5678589  44.5233904  21.1693839  69.2709992  41.4664990  80.1749997
  69.4909992  41.9374990  79.3719997  69.8289992  41.8604990  80.8459997
  69.3765851  41.5843272  80.1556134  56.5929992  50.2554990  34.1359997
  55.7419992  50.4934990  33.7679997  57.1839992  50.2384990  33.3819997
  56.5563831  50.2857623  33.9838448  54.9249992  53.2404990  21.7639997
  54.5529992  52.4154990  22.0729997  55.2029992  53.0574990  20.8659997
  54.9115807  53.1027031  21.6850063  52.0859992  48.0484990  28.7849997
  51.1579992  47.8174990  28.7579997  52.5369992  47.2714990  28.4549997
  52.0198165  47.9117785  28.7366772  44.6289992  52.3774990  24.9179997
  45.1559992  53.1504990  24.7179997  43.7489992  52.6014990  24.6159997
  44.5822121  52.5137344  24.8497460  40.3839992  47.2394990  19.5049997
  40.9999992  47.8664990  19.8849997  39.5219992  47.5554990  19.7769997
  40.3517678  47.3679423  19.5937192  46.0559992  50.0404990  24.4939997
  45.8149992  50.9654990  24.5359997  45.3159992  49.5814990  24.8909997
  45.9229463  50.1050969  24.5534279  46.5709992  54.1894990  30.8089997
  46.9339992  55.0434990  30.5759997  47.1029992  53.8974990  31.5499997
  46.6925141  54.2668907  30.8772079  44.7389992  55.0614990  24.0399997
  43.7899992  55.1674990  24.0909997  45.0909992  55.8824990  24.3839997
  44.6565647  55.1870029  24.0934882  50.1149992  50.2884990  30.5099997
  49.6889992  50.0604990  31.3359997  50.6959992  49.5494990  30.3279997
  50.1352088  50.1574393  30.5984454  52.3179992  51.2174990  19.5839997
  52.6709992  50.8374990  20.3879997  51.3689992  51.1234990  19.6709997
  52.2380956  51.1527867  19.7058005  66.9399992  53.5964990  79.0379997
  66.1229992  54.0934990  79.0909997  67.4689992  54.0724990  78.3979997
  66.8997898  53.7288123  78.9587274  52.7739992  54.8404990  32.9789997
  52.1719992  54.2844990  32.4839997  53.0549992  55.5074990  32.3529997
  52.7295757  54.8545755  32.8265657  56.8209992  55.6964990  19.7849997
  57.5649992  56.2824990  19.6449997  56.1269992  56.2654990  20.1179997
  56.8289809  55.8535830  19.8108572  40.8959992  42.0734990  32.3869997
  40.0029992  42.4114990  32.3189997  40.7969992  41.2174990  32.8049997
  40.7604752  42.0040986  32.4341644  53.1839992  49.8894990  21.8109997
  52.9069992  49.1614990  22.3669997  54.1109992  50.0084990  22.0159997
  53.2714419  49.8059436  21.9148264  40.5469992  53.8774990  30.8219997
  40.7639992  52.9454990  30.7909997  40.7939992  54.1524990  31.7049997
  40.6100948  53.7870976  30.9371268  46.4089992  52.3294990  18.0309997
  46.6479992  51.5804990  17.4839997  46.1399992  51.9414990  18.8639997
  46.4053233  52.1746865  18.0687791  45.3459992  51.8994990  20.4869997
  45.4929992  51.3794990  21.2769997  45.3429992  52.8064990  20.7939997
  45.3657102  51.9508964  20.6365907  41.7989992  49.1514990  20.9979997
  41.1129992  49.5044990  21.5649997  42.3219992  49.9144990  20.7509997
  41.7758402  49.3028912  21.0421784  49.6299992  41.8144990  31.2769997
  50.3289992  41.8884990  31.9269997  49.2499992  40.9494990  31.4309997
  49.6742662  41.7077050  31.3867412  50.4149992  41.4664990  22.3739997
  50.6349992  41.9374990  21.5699997  50.9729992  41.8604990  23.0439997
  50.5206044  41.5842946  22.3545207  66.4709992  43.1944990  81.0099997
  67.2829992  43.6984990  81.0559997  66.2259992  43.0494990  81.9239997
  66.5491091  43.2439366  81.1398552  48.0839992  53.5964990  21.2369997
  47.2669992  54.0934990  21.2889997  48.6129992  54.0724990  20.5959997
  48.0438125  53.7287000  21.1575289  47.6149992  43.1944990  23.2089997
  48.4269992  43.6984990  23.2549997  47.3699992  43.0494990  24.1229997
  47.6931091  43.2439366  23.3388552  48.1509992  44.1804990  32.3929997
  48.2699992  44.7544990  33.1499997  48.8059992  43.4924990  32.5079997
  48.2558684  44.1660205  32.5121656  48.4989992  40.2754990  24.1469997
  48.1519992  40.8924990  24.7909997  49.1569992  40.7764990  23.6649997
  48.5404430  40.4276860  24.1700046  45.4219992  54.6404990  21.2179997
  45.5829992  55.4404990  20.7179997  45.2249992  54.9474990  22.1029997
  45.4173906  54.7913690  21.2692316  44.1559992  41.3384990  20.8339997
  44.0729992  42.2264990  21.1809997  45.0459992  41.0734990  21.0659997
  44.2649331  41.4241177  20.9128067  52.9569992  45.8374990  27.3239997
  52.1599992  45.4224990  26.9959997  53.4019992  45.1474990  27.8149997
  52.9080367  45.6873372  27.3454897  42.4149992  51.7654990  19.8939997
  43.0069992  52.4654990  20.1709997  42.8739992  51.3324990  19.1749997
  42.5581652  51.8027686  19.8346515  40.7309992  44.4304990  19.0099997
  40.6859992  45.3694990  19.1889997  39.8429992  44.1944990  18.7409997
  40.6048166  44.5271698  18.9981507  54.0439992  55.0934990  28.9459997
  53.8879992  55.7724990  28.2889997  54.9759992  55.1654990  29.1489997
  54.1487328  55.1961586  28.8835529  67.0069992  44.1804990  90.1949997
  67.1259992  44.7544990  90.9519997  67.6619992  43.4924990  90.3099997
  67.1118684  44.1660205  90.3141656  41.5389992  39.2114990  27.6829997
  41.3099992  39.2704990  26.7559997  41.0959992  38.4204990  27.9899997
  41.4477387  39.1126412  27.5975223  40.4689992  53.1524990  23.8439997
  39.6369992  53.6244990  23.8709997  41.0149992  53.6624990  23.2449997
  40.4288710  53.2860317  23.7667570  48.4469992  54.1924990  18.1689997
  47.8029992  53.5614990  18.4909997  49.2089992  53.6614990  17.9379997
  48.4618708  54.0343171  18.1818462  50.9319992  53.0644990  35.5229997
  50.5809992  52.2074990  35.7659997  51.6579992  53.2064990  36.1299997
  50.9821590  52.9665189  35.6382889  53.0509992  54.0094990  18.4029997
  53.3339992  53.2144990  18.8559997  53.7909992  54.2424990  17.8419997
  53.1897295  53.9322349  18.3891469  44.0059992  49.9184990  18.2609997
  44.0699992  49.1244990  18.7909997  44.6589992  49.8004990  17.5709997
  44.1030483  49.7937496  18.2403407  49.3579992  50.9654990  17.9969997
  49.0899992  51.1464990  18.8969997  49.1519992  50.0404990  17.8649997
  49.2933443  50.8651873  18.1026643  45.1549992  47.8914990  20.5669997
  44.6959992  47.4074990  21.2519997  45.4099992  47.2224990  19.9309997
  45.1265997  47.7348491  20.5748734  44.4439992  45.7844990  32.9229997
  43.8259992  46.4584990  33.2029997  44.7879992  46.1054990  32.0889997
  44.4058078  45.9202298  32.8486609  46.2259992  46.1344990  18.8289997
  46.0459992  45.9794990  17.9019997  47.1759992  46.2424990  18.8739997
  46.3297804  46.1278821  18.7081966  67.3549992  40.2754990  81.9479997
  67.0079992  40.8924990  82.5929997  68.0129992  40.7764990  81.4669997
  67.3965290  40.4276384  81.9711635  55.6159992  48.4884990  18.2749997
  55.3429992  48.0644990  17.4619997  55.6559992  49.4204990  18.0579997
  55.5840201  48.5563523  18.1343548  44.7839992  43.1394990  34.0049997
  44.9339992  42.4104990  33.4029997  44.7859992  43.9164990  33.4459997
  44.8047967  43.1447720  33.8470523  45.1959992  41.5084990  31.4979997
  45.7319992  41.9604990  30.8459997  44.3439992  41.4004990  31.0749997
  45.1541795  41.5557444  31.3516211  46.7779992  46.9484990  31.7369997
  47.5289992  46.7924990  31.1639997  46.4389992  47.8004990  31.4619997
  46.8349587  47.0423149  31.6214060  46.0019992  38.9654990  31.9289997
  45.9039992  39.9114990  31.8239997  45.2589992  38.5924990  31.4529997
  45.8882123  39.0446811  31.8503204  46.1239992  56.8244990  19.8299997
  47.0569992  56.9824990  19.9739997  45.8589992  57.5004990  19.2049997
  46.2159846  56.9374567  19.7652930  39.6919992  51.4614990  19.3129997
  40.6059992  51.5404990  19.5859997  39.6989992  50.7744990  18.6469997
  39.8180624  51.3794074  19.2603045  38.3409992  56.8544990  24.3899997
  37.6939992  56.3924990  23.8579997  38.6959992  56.1824990  24.9729997
  38.3003741  56.7004785  24.3959157  39.2109992  54.9344990  26.1949997
  38.8769992  54.0544990  26.3669997  39.4329992  55.2804990  27.0599997
  39.1952565  54.8607410  26.3354263  56.7599992  55.7444990  29.1759997
  56.7379992  55.9294990  30.1139997  57.4499992  56.3124990  28.8349997
  56.8503383  55.8467104  29.2584580  64.2779992  54.6404990  79.0199997
  64.4389992  55.4404990  78.5189997  64.0809992  54.9474990  79.9049997
  64.2733919  54.7914140  79.0710988  56.3229992  55.3114990  32.0969997
  55.8359992  54.5754990  31.7259997  56.8719992  54.9174990  32.7749997
  56.3306101  55.1576267  32.1379034  56.0749992  49.3574990  22.2499997
  56.9249992  49.7784990  22.3769997  56.0799992  48.6174990  22.8569997
  56.1921143  49.3151106  22.3494732  56.4689992  47.4114990  24.0729997
  55.7429992  46.9314990  24.4709997  57.0499992  47.6164990  24.8049997
  56.4482504  47.3735592  24.2264199  56.2279992  50.1964990  29.0209997
  57.0619992  49.8184990  28.7399997  56.3399992  51.1394990  28.9019997
  56.3571917  50.2722954  28.9664844  54.7139992  53.0744990  31.3279997
  54.0669992  53.3994990  31.9529997  54.1969992  52.6334990  30.6539997
  54.5554112  53.0594133  31.3225272  56.7369992  47.3124990  20.4639997
  56.2159992  47.6684990  19.7459997  56.7039992  47.9874990  21.1429997
  56.6610955  47.4525023  20.4572634  55.0859992  44.5514990  19.0149997
  55.1829992  45.2184990  18.3349997  54.9459992  43.7364990  18.5339997
  55.0803407  44.5325670  18.8568312  54.2559992  45.9324990  24.6359997
  54.1059992  44.9874990  24.6159997  53.9019992  46.2134990  25.4799997
  54.1876351  45.8411656  24.7473202  39.2909992  48.0104990  28.6469997
  39.4749992  47.9284990  27.7109997  40.1399992  47.8864990  29.0699997
  39.4310132  47.9825066  28.5761460  55.1119992  47.9024990  34.2749997
  55.6949992  47.1674990  34.4669997  55.6759992  48.6744990  34.3219997
  55.2679781  47.9063156  34.3076146  73.2109992  42.0874990  91.0299997
  72.2949992  42.3494990  90.9419997  73.5469992  42.0844990  90.1329997
  73.1309789  42.1229637  90.8967829  54.3339992  41.9594990  18.1329997
  54.9439992  41.5884990  18.7699997  53.4969992  41.5384990  18.3289997
  54.3043704  41.8517942  18.2467077  53.9659992  43.5144990  23.0989997
  54.2459992  42.6074990  23.2229997  54.7249992  43.9484990  22.7099997
  54.1069258  43.4490935  23.0633691  54.5779992  44.0964990  28.5349997
  55.5109992  44.3084990  28.4999997  54.3429992  44.1974990  29.4569997
  54.6739517  44.1391844  28.6549113  54.6069992  44.8334990  31.3109997
  53.7639992  45.1014990  31.6759997  55.0499992  45.6554990  31.0999997
  54.5514035  44.9813351  31.3324770  54.5799992  40.7774990  23.1469997
  54.7619992  40.3284990  23.9719997  53.9799992  40.1934990  22.6829997
  54.5238187  40.6370563  23.1972721  40.1099992  41.5934990  27.6789997
  40.5549992  40.8014990  27.9809997  40.5759992  42.3094990  28.1089997
  40.2339718  41.5819546  27.7785247  38.4139992  44.5924990  28.7479997
  38.9059992  44.3714990  27.9569997  38.7759992  45.4324990  29.0289997
  38.5302923  44.6758480  28.6777389  56.4459992  40.8454990  19.6749997
  56.8589992  40.1244990  19.1999997  57.1279992  41.5144990  19.7329997
  56.5946060  40.8373741  19.6179233  38.7269992  40.8504990  22.8019997
  37.8019992  41.0584990  22.6729997  39.1809992  41.3344990  22.1119997
  38.6616298  40.9444311  22.6910433  53.4979992  55.8344990  24.7479997
  54.1499992  55.4864990  24.1399997  54.0089992  56.3224990  25.3939997
  53.6562872  55.8528248  24.7520964  71.8129992  45.8374990  85.1259997
  71.0159992  45.4224990  84.7969997  72.2579992  45.1474990  85.6169997
  71.7640317  45.6873197  85.1473557  38.6909992  39.5884990  31.1459997
  38.0259992  39.3424990  31.7889997  38.2479992  40.2104990  30.5689997
  38.5401168  39.6389225  31.1559830  43.8369992  53.7374990  31.5489997
  43.4119992  54.5474990  31.2669997  44.7409992  53.8234990  31.2469997
  43.9010706  53.8599557  31.4695836  48.1479992  55.1364990  34.5089997
  48.3329992  54.8034990  35.3869997  48.9949992  55.4464990  34.1869997
  48.2877291  55.1328214  34.5856140  50.4929992  56.4224990  33.7529997
  51.1699992  55.7894990  33.5129997  50.8149992  56.8234990  34.5599997
  50.6291618  56.3901147  33.8292802  55.4109992  39.0124990  32.8319997
  54.5979992  39.3374990  32.4449997  55.6439992  38.2514990  32.2989997
  55.3311347  38.9541891  32.7069824  41.2389992  56.9944990  31.5969997
  40.5179992  57.4344990  31.1459997  40.8729992  56.7434990  32.4449997
  41.0909632  57.0207235  31.6499649  43.7059992  56.5944990  30.6259997
  42.8409992  56.6664990  31.0299997  43.6509992  57.1414990  29.8429997
  43.5802289  56.6783242  30.5753749  48.4169992  56.4824990  29.8019997
  47.9599992  57.0114990  29.1479997  48.5789992  57.0854990  30.5269997
  48.3763919  56.6363990  29.8105740  50.7439992  55.3604990  30.7469997
  49.8399992  55.5254990  30.4809997  51.1729992  56.2134990  30.6809997
  50.6782017  55.4984184  30.7016495  53.3479992  56.9304990  31.0419997
  53.1669992  57.8464990  30.8309997  53.5249992  56.5194990  30.1949997
  53.3471377  57.0003365  30.8987178  72.8999992  55.0934990  86.7479997
  72.7439992  55.7724990  86.0909997  73.8319992  55.1654990  86.9509997
  73.0047328  55.1961586  86.6855529  40.6539992  55.6174990  28.5069997
  40.6349992  55.1914990  29.3639997  41.4579992  55.2984990  28.0979997
  40.7601393  55.5160297  28.5690155  42.7949992  54.3274990  27.1619997
  42.5759992  53.4104990  27.3319997  43.6189992  54.4674990  27.6279997
  42.8764702  54.2210523  27.2482510  45.3319992  54.7974990  28.0109997
  45.5449992  53.9094990  27.7239997  45.3969992  54.7624990  28.9649997
  45.3699149  54.6713338  28.1007351  48.8409992  40.4614990  27.1549997
  48.1659992  39.8314990  27.4109997  49.4049992  39.9774990  26.5519997
  48.8249363  40.3098886  27.1084810  53.9829992  38.5684990  27.2679997
  54.5869992  39.1164990  26.7659997  53.1139992  38.8874990  27.0269997
  53.9480419  38.6865628  27.1667741  55.7099992  39.7074990  25.6009997
  56.3219992  39.1934990  25.0739997  56.0929992  40.5844990  25.6239997
  55.8453867  39.7557613  25.5320888  41.1669992  39.0954990  24.9769997
  40.3899992  38.8604990  24.4699997  41.6979992  38.2984990  24.9859997
  41.1323735  38.9556462  24.9088090  40.0039992  38.8934990  20.7809997
  40.4429992  39.5044990  20.1889997  39.3699992  39.4314990  21.2549997
  39.9783859  39.0499076  20.7640287  45.7469992  39.0214990  24.7899997
  46.6209992  39.4104990  24.7609997  45.6109992  38.8064990  25.7129997
  45.8481953  39.0456654  24.9107599  51.3029992  39.0514990  26.4399997
  51.3799992  39.1474990  25.4899997  51.0279992  38.1444990  26.5679997
  51.2763233  38.9419093  26.3273665  58.6139992  55.7644990  92.9759997
  59.1539992  55.5484990  93.7349997  58.1319992  54.9594990  92.7859997
  58.6229101  55.6260216  93.0544364  52.6569992  39.0774990  22.1319997
  51.9539992  39.6924990  21.9219997  52.2119992  38.2404990  22.2629997
  52.5006550  39.0484679  22.1209819  39.9049992  54.8414990  21.6779997
  39.2199992  54.8034990  21.0109997  39.9079992  55.7534990  21.9659997
  39.8116806  54.9596669  21.6256961  41.8649992  40.8094990  19.2229997
  42.3559992  40.1794990  18.6959997  42.4879992  41.1054990  19.8859997
  42.0165304  40.7632387  19.2404922  46.8909992  41.1024990  21.6799997
  47.0689992  40.4554990  22.3629997  46.8369992  41.9364990  22.1469997
  46.9080678  41.1266615  21.8366283  48.7689992  56.0504990  20.0759997
  49.6349992  56.4174990  19.8979997  48.5219992  55.6114990  19.2619997
  48.8541853  56.0414021  19.9415813  55.4779992  55.6134990  22.7549997
  55.2839992  54.8654990  22.1899997  55.4389992  56.3714990  22.1719997
  55.4461645  55.6135797  22.5988131  41.1249992  39.6094990  34.4949997
  40.7589992  38.8434990  34.9369997  42.0379992  39.6384990  34.7809997
  41.1983172  39.5085335  34.5941872  41.7229992  55.7614990  18.7029997
  41.4549992  56.0474990  19.5769997  42.4939992  55.2154990  18.8559997
  41.7905926  55.7267790  18.8431188  54.6959992  54.3644990  34.9049997
  53.9139992  54.1784990  34.3849997  54.6239992  55.2944990  35.1219997
  54.5792975  54.4646973  34.8631822  69.1019992  48.2514990  24.9359997
  69.1909992  49.1954990  24.8029997  68.4629992  47.9764990  24.2779997
  69.0278378  48.3433846  24.8289258  63.2109992  54.6844990  94.5959997
  63.9789992  54.2254990  94.9369997  63.1899992  54.4584990  93.6659997
  63.3132135  54.5911680  94.5169473  68.0349992  47.5064990  28.3549997
  67.9959992  46.8604990  29.0599997  67.7119992  47.0394990  27.5829997
  67.9860469  47.3550005  28.3472803  60.4029992  47.1204990  29.9479997
  60.4439992  46.4954990  30.6709997  61.1059992  47.7444990  30.1299997
  60.5036223  47.1192318  30.0716164  71.7409992  50.4454990  26.6559997
  71.2999992  49.7254990  27.1069997  71.7279992  51.1664990  27.2859997
  71.6789215  50.4444303  26.8028088  61.3269992  51.5704990  28.4829997
  60.9569992  50.7684990  28.1129997  62.2679992  51.4024990  28.5289997
  61.4035984  51.4379649  28.4385586  57.9369992  45.2304990  23.8749997
  57.4889992  46.0764990  23.8569997  57.3759992  44.6514990  23.3599997
  57.7998546  45.2679004  23.8028874  58.6469992  47.3924990  26.0009997
  58.8609992  46.6224990  26.5279997  59.3849992  47.4824990  25.3979997
  58.7760073  47.2993546  25.9915786  68.8519992  55.5494990  26.8679997
  69.4719992  54.8734990  26.5949997  68.6439992  55.3314990  27.7769997
  68.9087679  55.4275032  26.9534518  66.4239992  49.9384990  28.7609997
  66.7279992  49.2524990  28.1659997  67.1459992  50.0574990  29.3789997
  66.5631240  49.8607325  28.7630941  75.0869992  41.5404990  29.6209997
  75.1359992  42.1504990  30.3569997  75.5129992  42.0014990  28.8979997
  75.1512851  41.6863266  29.6240532  69.5649992  44.3324990  29.0879997
  69.7069992  43.3864990  29.1079997  69.4589992  44.5394990  28.1599997
  69.5701051  44.2309706  28.9652249  69.7879992  53.0644990  93.3249997
  69.4369992  52.2074990  93.5679997  70.5139992  53.2064990  93.9319997
  69.8381590  52.9665189  93.4402889  62.7199992  42.4344990  26.3609997
  62.7629992  43.2944990  25.9419997  62.2619992  41.8814990  25.7269997
  62.6640163  42.4774174  26.2180604  70.4419992  42.5654990  24.7609997
  71.0879992  42.2364990  25.3859997  70.9519992  43.0824990  24.1389997
  70.5994289  42.5904333  24.7623681  59.3399992  44.8314990  27.1229997
  59.9939992  44.2814990  27.5549997  59.3639992  44.5574990  26.2059997
  59.4327199  44.7192178  27.0581650  64.4959992  46.3814990  26.3379997
  65.1119992  45.8544990  26.8469997  63.9099992  45.7414990  25.9339997
  64.5010652  46.2228919  26.3530277  75.4789992  43.0184990  31.8569997
  74.7899992  43.6764990  31.7619997  75.4939992  42.8204990  32.7939997
  75.3867756  43.0817614  31.9705795  61.5299992  41.3524990  30.4349997
  61.3109992  41.8824990  29.6679997  60.8619992  41.5784990  31.0819997
  61.4096975  41.4555979  30.4175123  68.8989992  50.8524990  23.9789997
  68.6029992  50.5294990  23.1269997  68.5749992  51.7524990  24.0199997
  68.8147458  50.9299678  23.8680598  64.0989992  49.0274990  30.7219997
  63.3589992  49.6264990  30.8259997  64.8129992  49.5814990  30.4059997
  64.0943146  49.1842611  30.6935150  72.2059992  41.8564990  26.7419997
  71.9909992  41.0904990  27.2749997  72.8619992  42.3284990  27.2549997
  72.2652673  41.8155739  26.8841972  61.1239992  43.2444990  28.3869997
  61.7369992  43.8774990  28.7599997  61.6359992  42.7724990  27.7309997
  61.2771933  43.2673380  28.3493477  58.5209992  49.5754990  93.9299997
  58.6649992  48.6734990  93.6439997  57.7479992  49.8614990  93.4419997
  58.4362854  49.4906876  93.8249363  62.5059992  50.9924990  31.5089997
  62.5009992  51.8714990  31.1309997  61.6529992  50.9084990  31.9339997
  62.3899199  51.1015901  31.5146942  58.6279992  50.6634990  22.2909997
  58.3559992  50.8924990  21.4019997  58.6729992  51.5004990  22.7519997
  58.5968360  50.8081034  22.2316186  72.2529992  52.2844990  29.0039997
  71.3109992  52.3434990  29.1659997  72.5289992  53.1904990  28.8669997
  72.1615865  52.4150299  29.0076174  72.5529992  40.5714990  30.4209997
  71.8169992  41.1814990  30.3839997  73.2369992  40.9864990  29.8949997
  72.5445367  40.7112562  30.3448156  65.5559992  38.6574990  27.8869997
  65.4389992  37.7094990  27.8329997  64.7009992  38.9904990  28.1599997
  65.4243691  38.5725842  27.9165072  70.5049992  54.0654990  25.6289997
  70.9299992  53.3584990  25.1439997  70.8219992  54.8674990  25.2119997
  70.6060266  54.0770201  25.5062461  71.6639992  51.9664990  24.1379997
  71.4069992  51.2764990  23.5259997  71.7349992  51.5234990  24.9829997
  71.6384322  51.8121568  24.1685372  73.3499992  50.5334990  32.6149997
  73.4899992  49.9414990  31.8759997  73.5179992  51.4064990  32.2589997
  73.3918734  50.5704041  32.4656937  67.8229992  47.4954990  22.3879997
  67.1109992  48.0304990  22.0359997  68.5139992  47.5504990  21.7279997
  67.8189704  47.5761663  22.2505797  67.8769992  45.9524990  19.4259997
  68.5779992  45.9754990  20.0779997  68.1789992  45.3244990  18.7699997
  68.0138202  45.8707223  19.4265591  65.1759992  49.5444990  93.3629997
  64.8479992  49.8154990  92.5049997  65.3279992  48.6034990  93.2749997
  65.1516970  49.4543694  93.2337953  75.1919992  46.8734990  30.6809997
  74.5399992  47.5674990  30.7699997  75.6569992  47.0834990  29.8709997
  75.1655357  46.9969544  30.5837056  71.2289992  47.7044990  23.3389997
  70.4969992  47.9334990  23.9119997  71.6759992  46.9914990  23.7939997
  71.1892753  47.6393984  23.4789698  71.1259992  45.8794990  32.4069997
  71.2059992  46.6424990  32.9789997  70.5249992  46.1584990  31.7169997
  71.0556547  46.0217468  32.3920029  62.8739992  48.3354990  25.2219997
  62.5439992  47.9644990  24.4039997  63.4619992  47.6644990  25.5689997
  62.9083182  48.1940648  25.1569898  64.2409992  51.7634990  27.9029997
  64.1459992  51.1844990  27.1469997  64.9699992  51.3924990  28.3989997
  64.3266011  51.6340572  27.8666011  63.2409992  47.1034990  28.8549997
  63.8059992  47.2254990  28.0929997  63.5589992  47.7414990  29.4939997
  63.3613619  47.2064388  28.8370019  69.5499992  52.6074990  29.5889997
  69.3089992  53.2694990  30.2369997  69.3519992  51.7724990  30.0139997
  69.4902662  52.5852704  29.7351008  64.1209992  51.5034990  33.5729997
  63.8089992  52.2854990  34.0279997  63.4709992  51.3504990  32.8869997
  63.9904858  51.5897882  33.5425344  70.0999992  46.8674990  21.0249997
  70.6789992  47.0174990  21.7709997  70.5139992  47.3374990  20.3009997
  70.2353358  46.9515966  21.0293935  61.0409992  47.7014990  32.8009997
  61.1109992  48.3524990  33.4999997  60.1499992  47.8044990  32.4659997
  60.9301690  47.8044261  32.8513026  70.9109992  49.4604990  90.7459997
  71.6559992  50.0494990  90.6259997  70.1529992  50.0424990  90.8089997
  70.9105185  49.6197000  90.7380940  67.8259992  53.6034990  24.4599997
  68.2999992  53.8994990  25.2369997  67.2629992  54.3424990  24.2269997
  67.8147890  53.7438047  24.5348084  62.3599992  53.5744990  34.3359997
  62.3679992  53.4384990  33.3889997  61.4439992  53.4574990  34.5879997
  62.2372528  53.5400475  34.2403226  73.7979992  38.6174990  20.8369997
  72.8979992  38.7554990  21.1329997  74.0499992  39.4484990  20.4359997
  73.7087727  38.7488705  20.8232935  61.8639992  47.4044990  22.8109997
  61.5719992  48.1724990  22.3199997  61.1899992  46.7454990  22.6479997
  61.7328843  47.4204537  22.7217695  74.9879992  52.9834990  19.2139997
  75.0609992  53.9224990  19.3839997  75.8929992  52.6784990  19.1579997
  75.1204170  53.0708294  19.2297045  57.9569992  49.7674990  31.6259997
  57.4559992  49.7394990  30.8109997  57.9629992  48.8624990  31.9359997
  57.8891690  49.6412234  31.5562770  57.7079992  52.5484990  28.5099997
  58.6539992  52.4034990  28.4909997  57.5949992  53.3324990  29.0469997
  57.8223578  52.6346708  28.5800300  66.8839992  52.7884990  33.0689997
  66.9709992  53.6144990  33.5439997  66.0199992  52.4584990  33.3179997
  66.7791944  52.8569871  33.1676558  67.2979992  56.5604990  22.8749997
  67.2229992  56.4394990  21.9279997  67.3309992  57.5094990  22.9929997
  67.2922083  56.6722639  22.7614973  60.9519992  55.3494990  24.6559997
  61.1039992  55.0014990  25.5339997  60.1009992  54.9924990  24.3999997
  60.8578344  55.2535891  24.7416851  59.3529992  46.7754990  93.3499997
  59.7609992  45.9184990  93.2289997  59.0929992  46.7894990  94.2709997
  59.3737082  46.6600596  93.4579469  70.3999992  55.7144990  19.8769997
  70.7749992  54.9704990  19.4059997  70.4039992  55.4444990  20.7949997
  70.4518969  55.5760920  19.9366475  70.0689992  55.6404990  22.6259997
  69.1339992  55.7404990  22.8049997  70.3489992  54.9304990  23.2049997
  69.9789471  55.5582944  22.7286678  73.0569992  44.7074990  34.6729997
  72.6499992  45.1874990  33.9519997  73.0979992  43.8014990  34.3649997
  73.0068403  44.6507989  34.5327253  60.2059992  51.0914990  32.6689997
  60.4219992  50.7294990  33.5289997  59.3509992  50.7164990  32.4599997
  60.1199082  50.9913377  32.7582396  62.8249992  39.5614990  28.6649997
  61.9629992  39.4744990  28.2569997  62.8029992  40.4174990  29.0929997
  62.7040557  39.6653078  28.6670202  67.4879992  39.2834990  32.0399997
  67.9079992  38.8684990  32.7929997  66.5549992  39.1044990  32.1569997
  67.4193736  39.2024921  32.1588950  71.5769992  47.8994990  18.6539997
  71.6189992  47.6774990  17.7239997  72.4259992  48.2984990  18.8439997
  71.6975253  47.9230510  18.5523804  67.1499992  41.7754990  19.3249997
  66.8959992  41.7944990  20.2469997  66.8929992  40.9044990  19.0229997
  67.0804508  41.6603292  19.4104786  62.9159992  44.5264990  29.7599997
  62.2739992  44.4864990  30.4689997  62.9529992  45.4534990  29.5219997
  62.8331659  44.6462540  29.8248463  62.9129992  44.7474990  24.6719997
  62.0199992  44.4074990  24.6129997  63.3639992  44.3704990  23.9159997
  62.8517185  44.6500220  24.5617698  63.2999992  45.7844990  90.7239997
  62.6819992  46.4584990  91.0049997  63.6439992  46.1054990  89.8909997
  63.2618181  45.9203233  90.6498266  68.4489992  45.1634990  23.4889997
  68.0399992  45.9784990  23.1969997  69.1689992  45.0234990  22.8749997
  68.4904439  45.2560383  23.3660098  67.5509992  45.3394990  34.9769997
  66.9879992  44.6344990  35.2979997  68.3769992  45.2184990  35.4449997
  67.5856674  45.2267176  35.0841734  69.4529992  44.6094990  26.3029997
  69.2579992  45.2154990  25.5879997  69.6349992  43.7764990  25.8689997
  69.4509195  44.5797936  26.1464079  60.6659992  44.8474990  31.6269997
  60.6279992  45.2474990  32.4959997  60.1749992  44.0304990  31.7169997
  60.5944374  44.7918228  31.7580980  64.0319992  42.2214990  18.4259997
  63.6009992  41.7764990  19.1549997  63.3139992  42.5924990  17.9129997
  63.8759176  42.2107063  18.4564913  57.2739992  41.9634990  25.4779997
  57.9049992  41.9344990  26.1969997  57.7239992  41.5384990  24.7469997
  57.4211082  41.9021269  25.4776307  58.5479992  42.7094990  20.9019997
  59.0229992  43.3004990  20.3169997  57.8309992  43.2394990  21.2489997
  58.5160406  42.8621011  20.8688495  68.7169992  46.2474990  30.9739997
  69.0409992  45.6164990  30.3309997  68.2769992  45.7134990  31.6349997
  68.7018707  46.0888261  30.9753195  65.4949992  42.1754990  25.7579997
  64.5839992  42.2324990  26.0469997  65.9999992  42.1154990  26.5689997
  65.4386873  42.1751838  25.9071190  60.3229992  43.8044990  24.5849997
  59.4339992  43.9034990  24.2449997  60.6189992  42.9624990  24.2389997
  60.2414001  43.7042473  24.4917318  65.0819992  46.1344990  76.6309997
  64.9019992  45.9794990  75.7029997  66.0319992  46.2424990  76.6749997
  65.1858016  46.1279264  76.5102123  63.9759992  43.8044990  22.2419997
  64.9079992  43.9334990  22.4199997  63.7609992  44.4734990  21.5919997
  64.0744472  43.9125817  22.1784873  69.8999992  41.4104990  29.0219997
  69.2229992  41.5414990  29.6859997  69.4139992  41.2554990  28.2119997
  69.7417265  41.4074665  29.0033380  62.6499992  44.9984990  19.8079997
  62.1079992  44.6194990  19.1169997  63.4839992  45.1934990  19.3799997
  62.6884390  44.9729091  19.6554374  66.8149992  44.9624990  27.6449997
  67.3789992  44.4164990  27.0979997  66.6669992  44.4414990  28.4339997
  66.8723037  44.8171798  27.6767212  61.8169992  41.0994990  24.0639997
  61.4989992  40.1964990  24.0279997  62.5979992  41.1014990  23.5109997
  61.8791079  40.9762240  23.9842908  65.4409992  43.3514990  30.0589997
  64.6059992  43.8054990  30.1699997  65.9649992  43.6274990  30.8109997
  65.3976072  43.4508960  30.1758118  65.9849992  49.5644990  21.7439997
  65.2399992  49.0564990  21.4219997  65.8509992  49.6134990  22.6899997
  65.8649334  49.5016144  21.8278892  73.1349992  48.6974990  30.5309997
  73.7769992  49.1534990  29.9869997  72.3049992  48.8104990  30.0679997
  73.1106536  48.7751813  30.3939579  69.8829992  42.3784990  19.9429997
  68.9439992  42.4894990  19.7919997  70.1799992  43.2344990  20.2499997
  69.7946136  42.5094977  19.9638568  67.5049992  49.7484990  32.9809997
  67.1589992  49.3664990  33.7879997  67.3049992  50.6814990  33.0519997
  67.4305987  49.8224013  33.1010443  68.3199992  48.2554990  94.0019997
  69.2729992  48.3394990  93.9739997  68.1599992  47.5434990  94.6209997
  68.4288161  48.1707198  94.0818689  70.6009992  44.2454990  21.6039997
  71.4929992  44.1074990  21.9229997  70.6579992  45.0364990  21.0669997
  70.7307380  44.3334777  21.5750981  61.1099992  48.8594990  27.5139997
  61.8549992  48.8564990  26.9119997  61.1879992  48.0354990  27.9949997
  61.2223365  48.7477395  27.4967412  68.1109992  51.0224990  20.7689997
  67.8159992  51.8494990  21.1509997  67.4079992  50.4034990  20.9659997
  67.9756379  51.0519182  20.8478636  58.1179992  47.3194990  32.8289997
  58.3409992  46.9014990  33.6599997  57.5159992  46.7074990  32.4059997
  58.0671513  47.1794617  32.8856722  69.7549992  52.2104990  32.9309997
  68.8539992  52.3934990  32.6639997  69.7889992  52.4694990  33.8519997
  69.6363861  52.2705245  33.0189517  75.4859992  44.4544990  21.2989997
  74.9319992  44.0584990  20.6259997  75.5869992  45.3654990  21.0209997
  75.4238589  44.5233904  21.1693839  75.4489992  50.2554990  34.1359997
  74.5979992  50.4934990  33.7679997  76.0399992  50.2384990  33.3819997
  75.4123831  50.2857623  33.9838448  73.7809992  53.2404990  21.7639997
  73.4089992  52.4154990  22.0729997  74.0589992  53.0574990  20.8659997
  73.7675807  53.1027031  21.6850063  70.9419992  48.0484990  28.7849997
  70.0139992  47.8174990  28.7579997  71.3929992  47.2714990  28.4549997
  70.8758165  47.9117785  28.7366772  63.4849992  52.3774990  24.9179997
  64.0119992  53.1504990  24.7179997  62.6049992  52.6014990  24.6159997
  63.4382121  52.5137344  24.8497460  63.6399992  43.1394990  91.8069997
  63.7899992  42.4104990  91.2039997  63.6419992  43.9164990  91.2479997
  63.6607664  43.1448971  91.6490525  59.2399992  47.2394990  19.5049997
  59.8559992  47.8664990  19.8849997  58.3779992  47.5554990  19.7769997
  59.2077678  47.3679423  19.5937192  64.9119992  50.0404990  24.4939997
  64.6709992  50.9654990  24.5359997  64.1719992  49.5814990  24.8909997
  64.7789463  50.1050969  24.5534279  65.4269992  54.1894990  30.8089997
  65.7899992  55.0434990  30.5759997  65.9589992  53.8974990  31.5499997
  65.5485141  54.2668907  30.8772079  63.5949992  55.0614990  24.0399997
  62.6459992  55.1674990  24.0909997  63.9469992  55.8824990  24.3839997
  63.5125647  55.1870029  24.0934882  68.9709992  50.2884990  30.5099997
  68.5449992  50.0604990  31.3359997  69.5519992  49.5494990  30.3279997
  68.9912088  50.1574393  30.5984454  71.1739992  51.2174990  19.5839997
  71.5269992  50.8374990  20.3879997  70.2249992  51.1234990  19.6709997
  71.0940956  51.1527867  19.7058005  75.6769992  55.6964990  19.7849997
  76.4209992  56.2824990  19.6449997  74.9829992  56.2654990  20.1179997
  75.6849809  55.8535830  19.8108572  59.7519992  42.0734990  32.3869997
  58.8589992  42.4114990  32.3189997  59.6529992  41.2174990  32.8049997
  59.6164752  42.0040986  32.4341644  72.0399992  49.8894990  21.8109997
  71.7629992  49.1614990  22.3669997  72.9669992  50.0084990  22.0159997
  72.1274419  49.8059436  21.9148264  59.4029992  53.8774990  30.8219997
  59.6199992  52.9454990  30.7909997  59.6499992  54.1524990  31.7049997
  59.4660948  53.7870976  30.9371268  64.0519992  41.5084990  89.2989997
  64.5879992  41.9604990  88.6469997  63.1999992  41.4004990  88.8769997
  64.0101648  41.5557883  89.1526395  65.2649992  52.3294990  18.0309997
  65.5039992  51.5804990  17.4839997  64.9959992  51.9414990  18.8639997
  65.2613233  52.1746865  18.0687791  64.2019992  51.8994990  20.4869997
  64.3489992  51.3794990  21.2769997  64.1989992  52.8064990  20.7939997
  64.2217102  51.9508964  20.6365907  60.6549992  49.1514990  20.9979997
  59.9689992  49.5044990  21.5649997  61.1779992  49.9144990  20.7509997
  60.6318402  49.3028912  21.0421784  68.4859992  41.8144990  31.2769997
  69.1849992  41.8884990  31.9269997  68.1059992  40.9494990  31.4309997
  68.5302662  41.7077050  31.3867412  69.2709992  41.4664990  22.3739997
  69.4909992  41.9374990  21.5699997  69.8289992  41.8604990  23.0439997
  69.3766044  41.5842946  22.3545207  66.9399992  53.5964990  21.2369997
  66.1229992  54.0934990  21.2889997  67.4689992  54.0724990  20.5959997
  66.8998125  53.7287000  21.1575289  66.4709992  43.1944990  23.2089997
  67.2829992  43.6984990  23.2549997  66.2259992  43.0494990  24.1229997
  66.5491091  43.2439366  23.3388552  67.0069992  44.1804990  32.3929997
  67.1259992  44.7544990  33.1499997  67.6619992  43.4924990  32.5079997
  67.1118684  44.1660205  32.5121656  67.3549992  40.2754990  24.1469997
  67.0079992  40.8924990  24.7909997  68.0129992  40.7764990  23.6649997
  67.3964430  40.4276860  24.1700046  64.2779992  54.6404990  21.2179997
  64.4389992  55.4404990  20.7179997  64.0809992  54.9474990  22.1029997
  64.2733906  54.7913690  21.2692316  65.6339992  46.9484990  89.5389997
  66.3849992  46.7924990  88.9659997  65.2949992  47.8004990  89.2629997
  65.6909052  47.0422745  89.4233469  63.0119992  41.3384990  20.8339997
  62.9289992  42.2264990  21.1809997  63.9019992  41.0734990  21.0659997
  63.1209331  41.4241177  20.9128067  71.8129992  45.8374990  27.3239997
  71.0159992  45.4224990  26.9959997  72.2579992  45.1474990  27.8149997
  71.7640367  45.6873372  27.3454897  61.2709992  51.7654990  19.8939997
  61.8629992  52.4654990  20.1709997  61.7299992  51.3324990  19.1749997
  61.4141652  51.8027686  19.8346515  59.5869992  44.4304990  19.0099997
  59.5419992  45.3694990  19.1889997  58.6989992  44.1944990  18.7409997
  59.4608166  44.5271698  18.9981507  72.8999992  55.0934990  28.9459997
  72.7439992  55.7724990  28.2889997  73.8319992  55.1654990  29.1489997
  73.0047328  55.1961586  28.8835529  60.3949992  39.2114990  27.6829997
  60.1659992  39.2704990  26.7559997  59.9519992  38.4204990  27.9899997
  60.3037387  39.1126412  27.5975223  59.3249992  53.1524990  23.8439997
  58.4929992  53.6244990  23.8709997  59.8709992  53.6624990  23.2449997
  59.2848710  53.2860317  23.7667570  58.6139992  55.7644990  35.1739997
  59.1539992  55.5484990  35.9339997  58.1319992  54.9594990  34.9839997
  58.6228485  55.6260463  35.2524870  67.3029992  54.1924990  18.1689997
  66.6589992  53.5614990  18.4909997  68.0649992  53.6614990  17.9379997
  67.3178708  54.0343171  18.1818461  71.9069992  54.0094990  18.4029997
  72.1899992  53.2144990  18.8559997  72.6469992  54.2424990  17.8419997
  72.0457295  53.9322349  18.3891469  70.0499992  44.7634990  94.5669997
  70.2419992  43.8324990  94.4559997  70.9069992  45.1884990  94.5569997
  70.1922320  44.6934743  94.5504433  62.8619992  49.9184990  18.2609997
  62.9259992  49.1244990  18.7909997  63.5149992  49.8004990  17.5709997
  62.9590483  49.7937496  18.2403407  68.2139992  50.9654990  17.9969997
  67.9459992  51.1464990  18.8969997  68.0079992  50.0404990  17.8649997
  68.1493443  50.8651873  18.1026643  70.9109992  49.4604990  32.9439997
  71.6559992  50.0494990  32.8249997  70.1529992  50.0424990  33.0069997
  70.9105289  49.6197067  32.9362292  64.0109992  47.8914990  20.5669997
  63.5519992  47.4074990  21.2519997  64.2659992  47.2224990  19.9309997
  63.9825997  47.7348491  20.5748734  63.2999992  45.7844990  32.9229997
  62.6819992  46.4584990  33.2029997  63.6439992  46.1054990  32.0889997
  63.2618078  45.9202298  32.8486609  65.0819992  46.1344990  18.8289997
  64.9019992  45.9794990  17.9019997  66.0319992  46.2424990  18.8739997
  65.1857804  46.1278821  18.7081966  74.4719992  48.4884990  18.2749997
  74.1989992  48.0644990  17.4619997  74.5119992  49.4204990  18.0579997
  74.4400201  48.5563523  18.1343548  63.6399992  43.1394990  34.0049997
  63.7899992  42.4104990  33.4029997  63.6419992  43.9164990  33.4459997
  63.6607967  43.1447720  33.8470523  64.0519992  41.5084990  31.4979997
  64.5879992  41.9604990  30.8459997  63.1999992  41.4004990  31.0749997
  64.0101795  41.5557444  31.3516211  65.6339992  46.9484990  31.7369997
  66.3849992  46.7924990  31.1639997  65.2949992  47.8004990  31.4619997
  65.6909587  47.0423149  31.6214060  71.3659992  47.5524990  92.6449997
  71.0849992  48.2614990  92.0669997  72.3089992  47.4794990  92.4939997
  71.4549272  47.6396704  92.5454976  71.3659992  47.5524990  34.8429997
  71.0849992  48.2614990  34.2649997  72.3089992  47.4794990  34.6919997
  71.4549272  47.6396704  34.7434976  64.8579992  38.9654990  31.9289997
  64.7599992  39.9114990  31.8239997  64.1149992  38.5924990  31.4529997
  64.7442123  39.0446811  31.8503204  66.1219992  43.2864990  35.4929997
  65.8859992  43.0674990  36.3939997  65.3389992  43.0794990  34.9829997
  65.9838382  43.2285340  35.5473991  60.2989992  42.2574990  35.6209997
  60.5099992  41.5514990  35.0109997  60.1869992  41.8204990  36.4649997
  60.3127668  42.1016619  35.6515445  64.9799992  56.8244990  19.8299997
  65.9129992  56.9824990  19.9739997  64.7149992  57.5004990  19.2049997
  65.0719846  56.9374567  19.7652930  58.5479992  51.4614990  19.3129997
  59.4619992  51.5404990  19.5859997  58.5549992  50.7744990  18.6469997
  58.6740624  51.3794074  19.2603045  57.1969992  56.8544990  24.3899997
  56.5499992  56.3924990  23.8579997  57.5519992  56.1824990  24.9729997
  57.1563741  56.7004785  24.3959157  58.0669992  54.9344990  26.1949997
  57.7329992  54.0544990  26.3669997  58.2889992  55.2804990  27.0599997
  58.0512565  54.8607410  26.3354263  75.6159992  55.7444990  29.1759997
  75.5939992  55.9294990  30.1139997  76.3059992  56.3124990  28.8349997
  75.7063383  55.8467104  29.2584580  75.1789992  55.3114990  32.0969997
  74.6919992  54.5754990  31.7259997  75.7279992  54.9174990  32.7749997
  75.1866101  55.1576267  32.1379034  62.1179992  44.3374990  93.7179997
  61.3509992  43.8044990  93.5079997  62.7969992  44.0274990  93.1189997
  62.1048292  44.2226360  93.6082693  74.9309992  49.3574990  22.2499997
  75.7809992  49.7784990  22.3769997  74.9359992  48.6174990  22.8569997
  75.0481143  49.3151106  22.3494732  75.3249992  47.4114990  24.0729997
  74.5989992  46.9314990  24.4709997  75.9059992  47.6164990  24.8049997
  75.3042504  47.3735592  24.2264199  75.0839992  50.1964990  29.0209997
  75.9179992  49.8184990  28.7399997  75.1959992  51.1394990  28.9019997
  75.2131917  50.2722954  28.9664844  73.5699992  53.0744990  31.3279997
  72.9229992  53.3994990  31.9529997  73.0529992  52.6334990  30.6539997
  73.4114112  53.0594133  31.3225272  75.5929992  47.3124990  20.4639997
  75.0719992  47.6684990  19.7459997  75.5599992  47.9874990  21.1429997
  75.5170955  47.4525023  20.4572634  73.9419992  44.5514990  19.0149997
  74.0389992  45.2184990  18.3349997  73.8019992  43.7364990  18.5339997
  73.9363407  44.5325670  18.8568312  73.1119992  45.9324990  24.6359997
  72.9619992  44.9874990  24.6159997  72.7579992  46.2134990  25.4799997
  73.0436351  45.8411656  24.7473202  58.1469992  48.0104990  28.6469997
  58.3309992  47.9284990  27.7109997  58.9959992  47.8864990  29.0699997
  58.2870132  47.9825066  28.5761460  73.9679992  47.9024990  34.2749997
  74.5509992  47.1674990  34.4669997  74.5319992  48.6744990  34.3219997
  74.1239781  47.9063156  34.3076146  73.1899992  41.9594990  18.1329997
  73.7999992  41.5884990  18.7699997  72.3529992  41.5384990  18.3289997
  73.1603704  41.8517942  18.2467077  64.8579992  38.9654990  89.7309997
  64.7599992  39.9114990  89.6249997  64.1149992  38.5924990  89.2549997
  64.7442363  39.0445987  89.6522029  72.8219992  43.5144990  23.0989997
  73.1019992  42.6074990  23.2229997  73.5809992  43.9484990  22.7099997
  72.9629258  43.4490935  23.0633691  73.4339992  44.0964990  28.5349997
  74.3669992  44.3084990  28.4999997  73.1989992  44.1974990  29.4569997
  73.5299517  44.1391844  28.6549113  73.4629992  44.8334990  31.3109997
  72.6199992  45.1014990  31.6759997  73.9059992  45.6554990  31.0999997
  73.4074035  44.9813351  31.3324770  57.7439992  43.2804990  34.7869997
  58.6639992  43.1584990  35.0239997  57.2949992  42.5304990  35.1769997
  57.8090500  43.1624576  34.8721016  73.4359992  40.7774990  23.1469997
  73.6179992  40.3284990  23.9719997  72.8359992  40.1934990  22.6829997
  73.3798187  40.6370563  23.1972721  58.9659992  41.5934990  27.6789997
  59.4109992  40.8014990  27.9809997  59.4319992  42.3094990  28.1089997
  59.0899718  41.5819546  27.7785247  57.2699992  44.5924990  28.7479997
  57.7619992  44.3714990  27.9569997  57.6319992  45.4324990  29.0289997
  57.3862923  44.6758480  28.6777389  75.2659992  40.9224990  35.0129997
  74.3489992  41.1934990  34.9769997  75.3889992  40.3874990  34.2289997
  75.1570828  40.8872711  34.9020767  75.3019992  40.8454990  19.6749997
  75.7149992  40.1244990  19.1999997  75.9839992  41.5144990  19.7329997
  75.4506060  40.8373741  19.6179233  57.5829992  40.8504990  22.8019997
  56.6579992  41.0584990  22.6729997  58.0369992  41.3344990  22.1119997
  57.5176298  40.9444311  22.6910433  66.1219992  43.2864990  93.2939997
  65.8859992  43.0674990  94.1959997  65.3389992  43.0794990  92.7849997
  65.9838444  43.2285688  93.3484518  72.3539992  55.8344990  24.7479997
  73.0059992  55.4864990  24.1399997  72.8649992  56.3224990  25.3939997
  72.5122872  55.8528248  24.7520964  57.5469992  39.5884990  31.1459997
  56.8819992  39.3424990  31.7889997  57.1039992  40.2104990  30.5689997
  57.3961168  39.6389225  31.1559830  59.7389992  52.7634990  35.2909997
  58.9179992  52.9384990  34.8299997  59.4869992  52.6904990  36.2109997
  59.5925594  52.7775728  35.3523593  62.6929992  53.7374990  31.5489997
  62.2679992  54.5474990  31.2669997  63.5969992  53.8234990  31.2469997
  62.7570706  53.8599557  31.4695836  67.0039992  55.1364990  34.5089997
  67.1889992  54.8034990  35.3869997  67.8509992  55.4464990  34.1869997
  67.1437291  55.1328214  34.5856140  69.3489992  56.4224990  33.7529997
  70.0259992  55.7894990  33.5129997  69.6709992  56.8234990  34.5599997
  69.4851618  56.3901147  33.8292802  74.2669992  39.0124990  32.8319997
  73.4539992  39.3374990  32.4449997  74.4999992  38.2514990  32.2989997
  74.1871347  38.9541891  32.7069824  67.2729992  56.4824990  29.8019997
  66.8159992  57.0114990  29.1479997  67.4349992  57.0854990  30.5269997
  67.2323919  56.6363990  29.8105740  69.5999992  55.3604990  30.7469997
  68.6959992  55.5254990  30.4809997  70.0289992  56.2134990  30.6809997
  69.5342017  55.4984184  30.7016495  72.2039992  56.9304990  31.0419997
  72.0229992  57.8464990  30.8309997  72.3809992  56.5194990  30.1949997
  72.2031377  57.0003365  30.8987178  68.8379992  42.4144990  92.3699997
  67.8899992  42.4464990  92.5019997  69.1499992  41.7884990  93.0239997
  68.7505293  42.3342934  92.4764130  67.6969992  40.4614990  27.1549997
  67.0219992  39.8314990  27.4109997  68.2609992  39.9774990  26.5519997
  67.6809363  40.3098886  27.1084810  72.8389992  38.5684990  27.2679997
  73.4429992  39.1164990  26.7659997  71.9699992  38.8874990  27.0269997
  72.8040419  38.6865628  27.1667741  74.5659992  39.7074990  25.6009997
  75.1779992  39.1934990  25.0739997  74.9489992  40.5844990  25.6239997
  74.7013867  39.7557613  25.5320888  60.0229992  39.0954990  24.9769997
  59.2459992  38.8604990  24.4699997  60.5539992  38.2984990  24.9859997
  59.9883735  38.9556462  24.9088090  58.8599992  38.8934990  20.7809997
  59.2989992  39.5044990  20.1889997  58.2259992  39.4314990  21.2549997
  58.8343859  39.0499076  20.7640287  64.6029992  39.0214990  24.7899997
  65.4769992  39.4104990  24.7609997  64.4669992  38.8064990  25.7129997
  64.7041953  39.0456654  24.9107599  70.1589992  39.0514990  26.4399997
  70.2359992  39.1474990  25.4899997  69.8839992  38.1444990  26.5679997
  70.1323233  38.9419093  26.3273665  71.5129992  39.0774990  22.1319997
  70.8099992  39.6924990  21.9219997  71.0679992  38.2404990  22.2629997
  71.3566550  39.0484679  22.1209819  58.7609992  54.8414990  21.6779997
  58.0759992  54.8034990  21.0109997  58.7639992  55.7534990  21.9659997
  58.6676806  54.9596669  21.6256961  60.7209992  40.8094990  19.2229997
  61.2119992  40.1794990  18.6959997  61.3439992  41.1054990  19.8859997
  60.8725304  40.7632387  19.2404922  70.4719992  41.0484990  94.3749997
  70.3749992  40.0964990  94.3689997  70.1499992  41.3164990  95.2359997
  70.4152229  40.9544706  94.4905108  65.7469992  41.1024990  21.6799997
  65.9249992  40.4554990  22.3629997  65.6929992  41.9364990  22.1469997
  65.7640678  41.1266615  21.8366283  67.6249992  56.0504990  20.0759997
  68.4909992  56.4174990  19.8979997  67.3779992  55.6114990  19.2619997
  67.7101853  56.0414021  19.9415813  74.3339992  55.6134990  22.7549997
  74.1399992  54.8654990  22.1899997  74.2949992  56.3714990  22.1719997
  74.3021645  55.6135797  22.5988131  60.5789992  55.7614990  18.7029997
  60.3109992  56.0474990  19.5769997  61.3499992  55.2154990  18.8559997
  60.6465926  55.7267790  18.8431188  87.9579992  48.2514990  24.9359997
  88.0469992  49.1954990  24.8029997  87.3189992  47.9764990  24.2779997
  87.8838378  48.3433846  24.8289258  79.2589992  47.1204990  29.9479997
  79.2999992  46.4954990  30.6709997  79.9619992  47.7444990  30.1299997
  79.3596223  47.1192318  30.0716164  90.5969992  50.4454990  26.6559997
  90.1559992  49.7254990  27.1069997  90.5839992  51.1664990  27.2859997
  90.5349215  50.4444303  26.8028088  80.1829992  51.5704990  28.4829997
  79.8129992  50.7684990  28.1129997  81.1239992  51.4024990  28.5289997
  80.2595984  51.4379649  28.4385586  76.7929992  45.2304990  23.8749997
  76.3449992  46.0764990  23.8569997  76.2319992  44.6514990  23.3599997
  76.6558546  45.2679004  23.8028874  77.5029992  47.3924990  26.0009997
  77.7169992  46.6224990  26.5279997  78.2409992  47.4824990  25.3979997
  77.6320073  47.2993546  25.9915786  60.2989992  42.2574990  93.4229997
  60.5099992  41.5514990  92.8119997  60.1869992  41.8204990  94.2669997
  60.3127674  42.1016376  93.4534199  87.7079992  55.5494990  26.8679997
  88.3279992  54.8734990  26.5949997  87.4999992  55.3314990  27.7769997
  87.7647679  55.4275032  26.9534518  93.9429992  41.5404990  29.6209997
  93.9919992  42.1504990  30.3569997  94.3689992  42.0014990  28.8979997
  94.0072851  41.6863266  29.6240532  88.4209992  44.3324990  29.0879997
  88.5629992  43.3864990  29.1079997  88.3149992  44.5394990  28.1599997
  88.4261051  44.2309706  28.9652249  81.5759992  42.4344990  26.3609997
  81.6189992  43.2944990  25.9419997  81.1179992  41.8814990  25.7269997
  81.5200163  42.4774174  26.2180604  89.2979992  42.5654990  24.7609997
  89.9439992  42.2364990  25.3859997  89.8079992  43.0824990  24.1389997
  89.4554289  42.5904333  24.7623681  78.1959992  44.8314990  27.1229997
  78.8499992  44.2814990  27.5549997  78.2199992  44.5574990  26.2059997
  78.2887199  44.7192178  27.0581650  94.3349992  43.0184990  31.8569997
  93.6459992  43.6764990  31.7619997  94.3499992  42.8204990  32.7939997
  94.2427756  43.0817614  31.9705795  80.3859992  41.3524990  30.4349997
  80.1669992  41.8824990  29.6679997  79.7179992  41.5784990  31.0819997
  80.2656975  41.4555979  30.4175123  87.7549992  50.8524990  23.9789997
  87.4589992  50.5294990  23.1269997  87.4309992  51.7524990  24.0199997
  87.6707458  50.9299678  23.8680598  91.0619992  41.8564990  26.7419997
  90.8469992  41.0904990  27.2749997  91.7179992  42.3284990  27.2549997
  91.1212673  41.8155739  26.8841972  65.0799992  38.2594990  92.4019997
  65.7909992  37.6194990  92.3879997  64.9789992  38.5254990  91.4879997
  65.1636732  38.2078452  92.2765475  79.9799992  43.2444990  28.3869997
  80.5929992  43.8774990  28.7599997  80.4919992  42.7724990  27.7309997
  80.1331933  43.2673380  28.3493477  77.4839992  50.6634990  22.2909997
  77.2119992  50.8924990  21.4019997  77.5289992  51.5004990  22.7519997
  77.4528360  50.8081034  22.2316186  91.1089992  52.2844990  29.0039997
  90.1669992  52.3434990  29.1659997  91.3849992  53.1904990  28.8669997
  91.0175865  52.4150299  29.0076174  91.4089992  40.5714990  30.4209997
  90.6729992  41.1814990  30.3839997  92.0929992  40.9864990  29.8949997
  91.4005367  40.7112562  30.3448156  84.4119992  38.6574990  27.8869997
  84.2949992  37.7094990  27.8329997  83.5569992  38.9904990  28.1599997
  84.2803691  38.5725842  27.9165072  89.3609992  54.0654990  25.6289997
  89.7859992  53.3584990  25.1439997  89.6779992  54.8674990  25.2119997
  89.4620266  54.0770201  25.5062461  90.5199992  51.9664990  24.1379997
  90.2629992  51.2764990  23.5259997  90.5909992  51.5234990  24.9829997
  90.4944322  51.8121568  24.1685372  92.2059992  50.5334990  32.6149997
  92.3459992  49.9414990  31.8759997  92.3739992  51.4064990  32.2589997
  92.2478734  50.5704041  32.4656937  86.6789992  47.4954990  22.3879997
  85.9669992  48.0304990  22.0359997  87.3699992  47.5504990  21.7279997
  86.6749704  47.5761663  22.2505797  86.7329992  45.9524990  19.4259997
  87.4339992  45.9754990  20.0779997  87.0349992  45.3244990  18.7699997
  86.8698202  45.8707223  19.4265591  65.4329992  39.9414990  94.4559997
  65.3019992  39.4664990  93.6349997  64.8339992  40.6864990  94.3999997
  65.3341524  39.9771968  94.3361553  94.0479992  46.8734990  30.6809997
  93.3959992  47.5674990  30.7699997  94.5129992  47.0834990  29.8709997
  94.0215357  46.9969544  30.5837056  90.0849992  47.7044990  23.3389997
  89.3529992  47.9334990  23.9119997  90.5319992  46.9914990  23.7939997
  90.0452753  47.6393984  23.4789698  89.9819992  45.8794990  32.4069997
  90.0619992  46.6424990  32.9789997  89.3809992  46.1584990  31.7169997
  89.9116547  46.0217468  32.3920029  81.7299992  48.3354990  25.2219997
  81.3999992  47.9644990  24.4039997  82.3179992  47.6644990  25.5689997
  81.7643182  48.1940648  25.1569898  83.0969992  51.7634990  27.9029997
  83.0019992  51.1844990  27.1469997  83.8259992  51.3924990  28.3989997
  83.1826011  51.6340572  27.8666011  88.4059992  52.6074990  29.5889997
  88.1649992  53.2694990  30.2369997  88.2079992  51.7724990  30.0139997
  88.3462662  52.5852704  29.7351008  88.9559992  46.8674990  21.0249997
  89.5349992  47.0174990  21.7709997  89.3699992  47.3374990  20.3009997
  89.0913358  46.9515966  21.0293935  86.6819992  53.6034990  24.4599997
  87.1559992  53.8994990  25.2369997  86.1189992  54.3424990  24.2269997
  86.6707890  53.7438047  24.5348084  92.6539992  38.6174990  20.8369997
  91.7539992  38.7554990  21.1329997  92.9059992  39.4484990  20.4359997
  92.5647727  38.7488705  20.8232935  80.7199992  47.4044990  22.8109997
  80.4279992  48.1724990  22.3199997  80.0459992  46.7454990  22.6479997
  80.5888843  47.4204537  22.7217695  75.6159992  55.7444990  86.9769997
  75.5939992  55.9294990  87.9159997  76.3059992  56.3124990  86.6359997
  75.7063439  55.8466898  87.0594774  93.8439992  52.9834990  19.2139997
  93.9169992  53.9224990  19.3839997  94.7489992  52.6784990  19.1579997
  93.9764170  53.0708294  19.2297045  76.8129992  49.7674990  31.6259997
  76.3119992  49.7394990  30.8109997  76.8189992  48.8624990  31.9359997
  76.7451690  49.6412234  31.5562770  76.5639992  52.5484990  28.5099997
  77.5099992  52.4034990  28.4909997  76.4509992  53.3324990  29.0469997
  76.6783578  52.6346708  28.5800300  86.1539992  56.5604990  22.8749997
  86.0789992  56.4394990  21.9279997  86.1869992  57.5094990  22.9929997
  86.1482083  56.6722639  22.7614973  79.8079992  55.3494990  24.6559997
  79.9599992  55.0014990  25.5339997  78.9569992  54.9924990  24.3999997
  79.7138344  55.2535891  24.7416851  89.2559992  55.7144990  19.8769997
  89.6309992  54.9704990  19.4059997  89.2599992  55.4444990  20.7949997
  89.3078969  55.5760920  19.9366475  88.9249992  55.6404990  22.6259997
  87.9899992  55.7404990  22.8049997  89.2049992  54.9304990  23.2049997
  88.8349471  55.5582944  22.7286678  91.9129992  44.7074990  34.6729997
  91.5059992  45.1874990  33.9519997  91.9539992  43.8014990  34.3649997
  91.8628403  44.6507989  34.5327253  81.6809992  39.5614990  28.6649997
  80.8189992  39.4744990  28.2569997  81.6589992  40.4174990  29.0929997
  81.5600557  39.6653078  28.6670202  89.6699992  43.0384990  32.8929997
  89.1559992  42.9134990  33.6909997  89.5149992  43.9514990  32.6489997
  89.5787802  43.1447433  32.9691504  75.1789992  55.3114990  89.8989997
  74.6919992  54.5754990  89.5279997  75.7279992  54.9174990  90.5769997
  75.1866101  55.1576267  89.9399034  90.4329992  47.8994990  18.6539997
  90.4749992  47.6774990  17.7239997  91.2819992  48.2984990  18.8439997
  90.5535253  47.9230510  18.5523804  86.0059992  41.7754990  19.3249997
  85.7519992  41.7944990  20.2469997  85.7489992  40.9044990  19.0229997
  85.9364508  41.6603292  19.4104786  81.7719992  44.5264990  29.7599997
  81.1299992  44.4864990  30.4689997  81.8089992  45.4534990  29.5219997
  81.6891659  44.6462540  29.8248463  81.7689992  44.7474990  24.6719997
  80.8759992  44.4074990  24.6129997  82.2199992  44.3704990  23.9159997
  81.7077185  44.6500220  24.5617698  87.3049992  45.1634990  23.4889997
  86.8959992  45.9784990  23.1969997  88.0249992  45.0234990  22.8749997
  87.3464439  45.2560383  23.3660098  88.3089992  44.6094990  26.3029997
  88.1139992  45.2154990  25.5879997  88.4909992  43.7764990  25.8689997
  88.3069195  44.5797936  26.1464079  79.5219992  44.8474990  31.6269997
  79.4839992  45.2474990  32.4959997  79.0309992  44.0304990  31.7169997
  79.4504374  44.7918228  31.7580980  82.8879992  42.2214990  18.4259997
  82.4569992  41.7764990  19.1549997  82.1699992  42.5924990  17.9129997
  82.7319176  42.2107063  18.4564913  76.1299992  41.9634990  25.4779997
  76.7609992  41.9344990  26.1969997  76.5799992  41.5384990  24.7469997
  76.2771082  41.9021269  25.4776307  77.4039992  42.7094990  20.9019997
  77.8789992  43.3004990  20.3169997  76.6869992  43.2394990  21.2489997
  77.3720406  42.8621011  20.8688495  73.6299992  51.1014990  94.5369997
  72.7639992  50.9964990  94.9309997  74.0059992  51.8594990  94.9839997
  73.5623768  51.1896151  94.6513258  87.5729992  46.2474990  30.9739997
  87.8969992  45.6164990  30.3309997  87.1329992  45.7134990  31.6349997
  87.5578707  46.0888261  30.9753195  84.3509992  42.1754990  25.7579997
  83.4399992  42.2324990  26.0469997  84.8559992  42.1154990  26.5689997
  84.2946873  42.1751838  25.9071190  79.1789992  43.8044990  24.5849997
  78.2899992  43.9034990  24.2449997  79.4749992  42.9624990  24.2389997
  79.0974001  43.7042473  24.4917318  82.8319992  43.8044990  22.2419997
  83.7639992  43.9334990  22.4199997  82.6169992  44.4734990  21.5919997
  82.9304472  43.9125817  22.1784873  88.7559992  41.4104990  29.0219997
  88.0789992  41.5414990  29.6859997  88.2699992  41.2554990  28.2119997
  88.5977265  41.4074665  29.0033380  81.5059992  44.9984990  19.8079997
  80.9639992  44.6194990  19.1169997  82.3399992  45.1934990  19.3799997
  81.5444390  44.9729091  19.6554374  85.6709992  44.9624990  27.6449997
  86.2349992  44.4164990  27.0979997  85.5229992  44.4414990  28.4339997
  85.7283037  44.8171798  27.6767212  80.6729992  41.0994990  24.0639997
  80.3549992  40.1964990  24.0279997  81.4539992  41.1014990  23.5109997
  80.7351079  40.9762240  23.9842908  84.2969992  43.3514990  30.0589997
  83.4619992  43.8054990  30.1699997  84.8209992  43.6274990  30.8109997
  84.2536072  43.4508960  30.1758118  84.8409992  49.5644990  21.7439997
  84.0959992  49.0564990  21.4219997  84.7069992  49.6134990  22.6899997
  84.7209334  49.5016144  21.8278892  74.9309992  49.3574990  80.0509997
  75.7809992  49.7784990  80.1789997  74.9359992  48.6174990  80.6589997
  75.0479745  49.3151347  80.1506479  91.9909992  48.6974990  30.5309997
  92.6329992  49.1534990  29.9869997  91.1609992  48.8104990  30.0679997
  91.9666536  48.7751813  30.3939579  88.7389992  42.3784990  19.9429997
  87.7999992  42.4894990  19.7919997  89.0359992  43.2344990  20.2499997
  88.6506136  42.5094977  19.9638568  86.3609992  49.7484990  32.9809997
  86.0149992  49.3664990  33.7879997  86.1609992  50.6814990  33.0519997
  86.2865987  49.8224013  33.1010443  89.4569992  44.2454990  21.6039997
  90.3489992  44.1074990  21.9229997  89.5139992  45.0364990  21.0669997
  89.5867380  44.3334777  21.5750981  79.9659992  48.8594990  27.5139997
  80.7109992  48.8564990  26.9119997  80.0439992  48.0354990  27.9949997
  80.0783365  48.7477395  27.4967412  86.9669992  51.0224990  20.7689997
  86.6719992  51.8494990  21.1509997  86.2639992  50.4034990  20.9659997
  86.8316379  51.0519182  20.8478636  76.9739992  47.3194990  32.8289997
  77.1969992  46.9014990  33.6599997  76.3719992  46.7074990  32.4059997
  76.9231513  47.1794617  32.8856722  88.6109992  52.2104990  32.9309997
  87.7099992  52.3934990  32.6639997  88.6449992  52.4694990  33.8519997
  88.4923861  52.2705245  33.0189517  94.3419992  44.4544990  21.2989997
  93.7879992  44.0584990  20.6259997  94.4429992  45.3654990  21.0209997
  94.2798589  44.5233904  21.1693839  92.6369992  53.2404990  21.7639997
  92.2649992  52.4154990  22.0729997  92.9149992  53.0574990  20.8659997
  92.6235807  53.1027031  21.6850063  75.3249992  47.4114990  81.8749997
  74.5989992  46.9314990  82.2729997  75.9059992  47.6164990  82.6069997
  75.3042504  47.3735592  82.0284199  89.7979992  48.0484990  28.7849997
  88.8699992  47.8174990  28.7579997  90.2489992  47.2714990  28.4549997
  89.7318165  47.9117785  28.7366772  82.3409992  52.3774990  24.9179997
  82.8679992  53.1504990  24.7179997  81.4609992  52.6014990  24.6159997
  82.2942121  52.5137344  24.8497460  78.0959992  47.2394990  19.5049997
  78.7119992  47.8664990  19.8849997  77.2339992  47.5554990  19.7769997
  78.0637678  47.3679423  19.5937192  83.7679992  50.0404990  24.4939997
  83.5269992  50.9654990  24.5359997  83.0279992  49.5814990  24.8909997
  83.6349463  50.1050969  24.5534279  82.4509992  55.0614990  24.0399997
  81.5019992  55.1674990  24.0909997  82.8029992  55.8824990  24.3839997
  82.3685647  55.1870029  24.0934882  87.8269992  50.2884990  30.5099997
  87.4009992  50.0604990  31.3359997  88.4079992  49.5494990  30.3279997
  87.8472088  50.1574393  30.5984454  90.0299992  51.2174990  19.5839997
  90.3829992  50.8374990  20.3879997  89.0809992  51.1234990  19.6709997
  89.9500956  51.1527867  19.7058005  90.4859992  54.8404990  32.9789997
  89.8839992  54.2844990  32.4839997  90.7669992  55.5074990  32.3529997
  90.4415757  54.8545755  32.8265657  94.5329992  55.6964990  19.7849997
  95.2769992  56.2824990  19.6449997  93.8389992  56.2654990  20.1179997
  94.5409809  55.8535830  19.8108572  78.6079992  42.0734990  32.3869997
  77.7149992  42.4114990  32.3189997  78.5089992  41.2174990  32.8049997
  78.4724752  42.0040986  32.4341644  75.0839992  50.1964990  86.8229997
  75.9179992  49.8184990  86.5419997  75.1959992  51.1394990  86.7039997
  75.2131917  50.2722954  86.7684844  90.8959992  49.8894990  21.8109997
  90.6189992  49.1614990  22.3669997  91.8229992  50.0084990  22.0159997
  90.9834419  49.8059436  21.9148264  84.1209992  52.3294990  18.0309997
  84.3599992  51.5804990  17.4839997  83.8519992  51.9414990  18.8639997
  84.1173233  52.1746865  18.0687791  83.0579992  51.8994990  20.4869997
  83.2049992  51.3794990  21.2769997  83.0549992  52.8064990  20.7939997
  83.0777102  51.9508964  20.6365907  79.5109992  49.1514990  20.9979997
  78.8249992  49.5044990  21.5649997  80.0339992  49.9144990  20.7509997
  79.4878402  49.3028912  21.0421784  87.3419992  41.8144990  31.2769997
  88.0409992  41.8884990  31.9269997  86.9619992  40.9494990  31.4309997
  87.3862662  41.7077050  31.3867412  88.1269992  41.4664990  22.3739997
  88.3469992  41.9374990  21.5699997  88.6849992  41.8604990  23.0439997
  88.2326044  41.5842946  22.3545207  85.7959992  53.5964990  21.2369997
  84.9789992  54.0934990  21.2889997  86.3249992  54.0724990  20.5959997
  85.7558125  53.7287000  21.1575289  85.3269992  43.1944990  23.2089997
  86.1389992  43.6984990  23.2549997  85.0819992  43.0494990  24.1229997
  85.4051091  43.2439366  23.3388552  85.8629992  44.1804990  32.3929997
  85.9819992  44.7544990  33.1499997  86.5179992  43.4924990  32.5079997
  85.9678684  44.1660205  32.5121656  86.2109992  40.2754990  24.1469997
  85.8639992  40.8924990  24.7909997  86.8689992  40.7764990  23.6649997
  86.2524430  40.4276860  24.1700046  73.5699992  53.0744990  89.1299997
  72.9229992  53.3994990  89.7549997  73.0529992  52.6334990  88.4549997
  73.4114068  53.0594726  89.1244918  83.1339992  54.6404990  21.2179997
  83.2949992  55.4404990  20.7179997  82.9369992  54.9474990  22.1029997
  83.1293906  54.7913690  21.2692316  81.8679992  41.3384990  20.8339997
  81.7849992  42.2264990  21.1809997  82.7579992  41.0734990  21.0659997
  81.9769331  41.4241177  20.9128067  92.0669992  42.0874990  33.2279997
  91.1509992  42.3494990  33.1409997  92.4029992  42.0844990  32.3319997
  91.9868499  42.1230174  33.0948748  90.6689992  45.8374990  27.3239997
  89.8719992  45.4224990  26.9959997  91.1139992  45.1474990  27.8149997
  90.6200367  45.6873372  27.3454897  80.1269992  51.7654990  19.8939997
  80.7189992  52.4654990  20.1709997  80.5859992  51.3324990  19.1749997
  80.2701652  51.8027686  19.8346515  78.4429992  44.4304990  19.0099997
  78.3979992  45.3694990  19.1889997  77.5549992  44.1944990  18.7409997
  78.3168166  44.5271698  18.9981507  79.2509992  39.2114990  27.6829997
  79.0219992  39.2704990  26.7559997  78.8079992  38.4204990  27.9899997
  79.1597387  39.1126412  27.5975223  78.1809992  53.1524990  23.8439997
  77.3489992  53.6244990  23.8709997  78.7269992  53.6624990  23.2449997
  78.1408710  53.2860317  23.7667570  86.1589992  54.1924990  18.1689997
  85.5149992  53.5614990  18.4909997  86.9209992  53.6614990  17.9379997
  86.1738708  54.0343171  18.1818461  88.6439992  53.0644990  35.5229997
  88.2929992  52.2074990  35.7659997  89.3699992  53.2064990  36.1299997
  88.6941590  52.9665189  35.6382889  75.5929992  47.3124990  78.2659997
  75.0719992  47.6684990  77.5469997  75.5599992  47.9874990  78.9439997
  75.5171525  47.4525273  78.2591408  90.7629992  54.0094990  18.4029997
  91.0459992  53.2144990  18.8559997  91.5029992  54.2424990  17.8419997
  90.9017295  53.9322349  18.3891469  81.7179992  49.9184990  18.2609997
  81.7819992  49.1244990  18.7909997  82.3709992  49.8004990  17.5709997
  81.8150482  49.7937496  18.2403407  87.0699992  50.9654990  17.9969997
  86.8019992  51.1464990  18.8969997  86.8639992  50.0404990  17.8649997
  87.0053443  50.8651873  18.1026643  89.7669992  49.4604990  32.9439997
  90.5119992  50.0494990  32.8249997  89.0089992  50.0424990  33.0069997
  89.7665289  49.6197067  32.9362292  82.8669992  47.8914990  20.5669997
  82.4079992  47.4074990  21.2519997  83.1219992  47.2224990  19.9309997
  82.8385997  47.7348491  20.5748734  82.1559992  45.7844990  32.9229997
  81.5379992  46.4584990  33.2029997  82.4999992  46.1054990  32.0889997
  82.1178078  45.9202298  32.8486609  83.9379992  46.1344990  18.8289997
  83.7579992  45.9794990  17.9019997  84.8879992  46.2424990  18.8739997
  84.0417804  46.1278821  18.7081966  93.3279992  48.4884990  18.2749997
  93.0549992  48.0644990  17.4619997  93.3679992  49.4204990  18.0579997
  93.2960201  48.5563523  18.1343548  82.4959992  43.1394990  34.0049997
  82.6459992  42.4104990  33.4029997  82.4979992  43.9164990  33.4459997
  82.5167967  43.1447720  33.8470523  82.9079992  41.5084990  31.4979997
  83.4439992  41.9604990  30.8459997  82.0559992  41.4004990  31.0749997
  82.8661795  41.5557444  31.3516211  73.9419992  44.5514990  76.8169997
  74.0389992  45.2184990  76.1369997  73.8019992  43.7364990  76.3349997
  73.9363428  44.5325667  76.6588311  90.2219992  47.5524990  34.8429997
  89.9409992  48.2614990  34.2649997  91.1649992  47.4794990  34.6919997
  90.3109272  47.6396704  34.7434976  83.7139992  38.9654990  31.9289997
  83.6159992  39.9114990  31.8239997  82.9709992  38.5924990  31.4529997
  83.6002123  39.0446811  31.8503204  84.9779992  43.2864990  35.4929997
  84.7419992  43.0674990  36.3939997  84.1949992  43.0794990  34.9829997
  84.8398382  43.2285340  35.5473991  79.1549992  42.2574990  35.6209997
  79.3659992  41.5514990  35.0109997  79.0429992  41.8204990  36.4649997
  79.1687668  42.1016619  35.6515445  83.8359992  56.8244990  19.8299997
  84.7689992  56.9824990  19.9739997  83.5709992  57.5004990  19.2049997
  83.9279846  56.9374567  19.7652930  77.4039992  51.4614990  19.3129997
  78.3179992  51.5404990  19.5859997  77.4109992  50.7744990  18.6469997
  77.5300624  51.3794074  19.2603045  76.0529992  56.8544990  24.3899997
  75.4059992  56.3924990  23.8579997  76.4079992  56.1824990  24.9729997
  76.0123741  56.7004785  24.3959157  76.9229992  54.9344990  26.1949997
  76.5889992  54.0544990  26.3669997  77.1449992  55.2804990  27.0599997
  76.9072565  54.8607410  26.3354263  93.7869992  49.3574990  22.2499997
  94.6369992  49.7784990  22.3769997  93.7919992  48.6174990  22.8569997
  93.9041143  49.3151106  22.3494732  94.1809992  47.4114990  24.0729997
  93.4549992  46.9314990  24.4709997  94.7619992  47.6164990  24.8049997
  94.1602504  47.3735592  24.2264199  73.1119992  45.9324990  82.4379997
  72.9619992  44.9874990  82.4179997  72.7579992  46.2134990  83.2819997
  73.0436351  45.8411656  82.5493202  93.9399992  50.1964990  29.0209997
  94.7739992  49.8184990  28.7399997  94.0519992  51.1394990  28.9019997
  94.0691917  50.2722954  28.9664844  92.4259992  53.0744990  31.3279997
  91.7789992  53.3994990  31.9529997  91.9089992  52.6334990  30.6539997
  92.2674112  53.0594133  31.3225272  94.4489992  47.3124990  20.4639997
  93.9279992  47.6684990  19.7459997  94.4159992  47.9874990  21.1429997
  94.3730955  47.4525023  20.4572634  92.7979992  44.5514990  19.0149997
  92.8949992  45.2184990  18.3349997  92.6579992  43.7364990  18.5339997
  92.7923407  44.5325670  18.8568312  91.9679992  45.9324990  24.6359997
  91.8179992  44.9874990  24.6159997  91.6139992  46.2134990  25.4799997
  91.8996351  45.8411656  24.7473202  77.0029992  48.0104990  28.6469997
  77.1869992  47.9284990  27.7109997  77.8519992  47.8864990  29.0699997
  77.1430132  47.9825066  28.5761460  92.8239992  47.9024990  34.2749997
  93.4069992  47.1674990  34.4669997  93.3879992  48.6744990  34.3219997
  92.9799781  47.9063156  34.3076146  92.0459992  41.9594990  18.1329997
  92.6559992  41.5884990  18.7699997  91.2089992  41.5384990  18.3289997
  92.0163704  41.8517942  18.2467077  91.6779992  43.5144990  23.0989997
  91.9579992  42.6074990  23.2229997  92.4369992  43.9484990  22.7099997
  91.8189258  43.4490935  23.0633691  92.2899992  44.0964990  28.5349997
  93.2229992  44.3084990  28.4999997  92.0549992  44.1974990  29.4569997
  92.3859517  44.1391844  28.6549113  58.1469992  48.0104990  86.4479997
  58.3309992  47.9284990  85.5129997  58.9959992  47.8864990  86.8719997
  58.2870259  47.9824915  86.3771771  92.3189992  44.8334990  31.3109997
  91.4759992  45.1014990  31.6759997  92.7619992  45.6554990  31.0999997
  92.2634035  44.9813351  31.3324770  92.2919992  40.7774990  23.1469997
  92.4739992  40.3284990  23.9719997  91.6919992  40.1934990  22.6829997
  92.2358187  40.6370563  23.1972721  77.8219992  41.5934990  27.6789997
  78.2669992  40.8014990  27.9809997  78.2879992  42.3094990  28.1089997
  77.9459718  41.5819546  27.7785247  76.1259992  44.5924990  28.7479997
  76.6179992  44.3714990  27.9569997  76.4879992  45.4324990  29.0289997
  76.2422923  44.6758480  28.6777389  94.1579992  40.8454990  19.6749997
  94.5709992  40.1244990  19.1999997  94.8399992  41.5144990  19.7329997
  94.3066060  40.8373741  19.6179233  76.4389992  40.8504990  22.8019997
  75.5139992  41.0584990  22.6729997  76.8929992  41.3344990  22.1119997
  76.3736298  40.9444311  22.6910433  91.2099992  55.8344990  24.7479997
  91.8619992  55.4864990  24.1399997  91.7209992  56.3224990  25.3939997
  91.3682872  55.8528248  24.7520964  76.4029992  39.5884990  31.1459997
  75.7379992  39.3424990  31.7889997  75.9599992  40.2104990  30.5689997
  76.2521168  39.6389225  31.1559830  93.1229992  39.0124990  32.8319997
  92.3099992  39.3374990  32.4449997  93.3559992  38.2514990  32.2989997
  93.0431347  38.9541891  32.7069824  81.4179992  56.5944990  30.6259997
  80.5529992  56.6664990  31.0299997  81.3629992  57.1414990  29.8429997
  81.2922289  56.6783242  30.5753749  73.9679992  47.9024990  92.0769997
  74.5509992  47.1674990  92.2679997  74.5319992  48.6744990  92.1229997
  74.1240326  47.9062746  92.1093579  86.1289992  56.4824990  29.8019997
  85.6719992  57.0114990  29.1479997  86.2909992  57.0854990  30.5269997
  86.0883919  56.6363990  29.8105740  88.4559992  55.3604990  30.7469997
  87.5519992  55.5254990  30.4809997  88.8849992  56.2134990  30.6809997
  88.3902017  55.4984184  30.7016495  78.3659992  55.6174990  28.5069997
  78.3469992  55.1914990  29.3639997  79.1699992  55.2984990  28.0979997
  78.4721393  55.5160297  28.5690155  80.5069992  54.3274990  27.1619997
  80.2879992  53.4104990  27.3319997  81.3309992  54.4674990  27.6279997
  80.5884702  54.2210523  27.2482510  83.0439992  54.7974990  28.0109997
  83.2569992  53.9094990  27.7239997  83.1089992  54.7624990  28.9649997
  83.0819149  54.6713338  28.1007351  86.5529992  40.4614990  27.1549997
  85.8779992  39.8314990  27.4109997  87.1169992  39.9774990  26.5519997
  86.5369363  40.3098886  27.1084810  91.6949992  38.5684990  27.2679997
  92.2989992  39.1164990  26.7659997  90.8259992  38.8874990  27.0269997
  91.6600419  38.6865628  27.1667741  93.4219992  39.7074990  25.6009997
  94.0339992  39.1934990  25.0739997  93.8049992  40.5844990  25.6239997
  93.5573867  39.7557613  25.5320888  78.8789992  39.0954990  24.9769997
  78.1019992  38.8604990  24.4699997  79.4099992  38.2984990  24.9859997
  78.8443735  38.9556462  24.9088090  77.7159992  38.8934990  20.7809997
  78.1549992  39.5044990  20.1889997  77.0819992  39.4314990  21.2549997
  77.6903859  39.0499076  20.7640287  75.4649992  45.8054990  92.7609997
  74.6009992  45.4264990  92.5959997  76.0689992  45.0664990  92.6869997
  75.4284912  45.6537937  92.7284360  83.4589992  39.0214990  24.7899997
  84.3329992  39.4104990  24.7609997  83.3229992  38.8064990  25.7129997
  83.5601953  39.0456654  24.9107599  89.0149992  39.0514990  26.4399997
  89.0919992  39.1474990  25.4899997  88.7399992  38.1444990  26.5679997
  88.9883233  38.9419093  26.3273665  90.3689992  39.0774990  22.1319997
  89.6659992  39.6924990  21.9219997  89.9239992  38.2404990  22.2629997
  90.2126550  39.0484679  22.1209819  77.6169992  54.8414990  21.6779997
  76.9319992  54.8034990  21.0109997  77.6199992  55.7534990  21.9659997
  77.5236806  54.9596669  21.6256961  79.5769992  40.8094990  19.2229997
  80.0679992  40.1794990  18.6959997  80.1999992  41.1054990  19.8859997
  79.7285304  40.7632387  19.2404922  84.6029992  41.1024990  21.6799997
  84.7809992  40.4554990  22.3629997  84.5489992  41.9364990  22.1469997
  84.6200678  41.1266615  21.8366283  86.4809992  56.0504990  20.0759997
  87.3469992  56.4174990  19.8979997  86.2339992  55.6114990  19.2619997
  86.5661853  56.0414021  19.9415813  93.1899992  55.6134990  22.7549997
  92.9959992  54.8654990  22.1899997  93.1509992  56.3714990  22.1719997
  93.1581645  55.6135797  22.5988131  79.4349992  55.7614990  18.7029997
  79.1669992  56.0474990  19.5769997  80.2059992  55.2154990  18.8559997
  79.5025926  55.7267790  18.8431188 106.8139992  48.2514990  24.9359997
 106.9029992  49.1954990  24.8029997 106.1749992  47.9764990  24.2779997
 106.7398378  48.3433846  24.8289258  73.1899992  41.9594990  75.9339997
  73.7999992  41.5884990  76.5709997  72.3529992  41.5384990  76.1299997
  73.1603704  41.8517942  76.0477077 105.7469992  47.5064990  28.3549997
 105.7079992  46.8604990  29.0599997 105.4239992  47.0394990  27.5829997
 105.6980469  47.3550005  28.3472803  98.1149992  47.1204990  29.9479997
  98.1559992  46.4954990  30.6709997  98.8179992  47.7444990  30.1299997
  98.2156223  47.1192318  30.0716164 109.4529992  50.4454990  26.6559997
 109.0119992  49.7254990  27.1069997 109.4399992  51.1664990  27.2859997
 109.3909215  50.4444303  26.8028088  99.0389992  51.5704990  28.4829997
  98.6689992  50.7684990  28.1129997  99.9799992  51.4024990  28.5289997
  99.1155984  51.4379649  28.4385586  95.6489992  45.2304990  23.8749997
  95.2009992  46.0764990  23.8569997  95.0879992  44.6514990  23.3599997
  95.5118546  45.2679004  23.8028874  96.3589992  47.3924990  26.0009997
  96.5729992  46.6224990  26.5279997  97.0969992  47.4824990  25.3979997
  96.4880073  47.2993546  25.9915786 106.5639992  55.5494990  26.8679997
 107.1839992  54.8734990  26.5949997 106.3559992  55.3314990  27.7769997
 106.6207679  55.4275032  26.9534518 104.1359992  49.9384990  28.7609997
 104.4399992  49.2524990  28.1659997 104.8579992  50.0574990  29.3789997
 104.2751240  49.8607325  28.7630941 112.7989992  41.5404990  29.6209997
 112.8479992  42.1504990  30.3569997 113.2249992  42.0014990  28.8979997
 112.8632851  41.6863266  29.6240532 107.2769992  44.3324990  29.0879997
 107.4189992  43.3864990  29.1079997 107.1709992  44.5394990  28.1599997
 107.2821051  44.2309706  28.9652249  72.8219992  43.5144990  80.8999997
  73.1019992  42.6074990  81.0249997  73.5809992  43.9484990  80.5109997
  72.9629471  43.4490654  80.8645052 100.4319992  42.4344990  26.3609997
 100.4749992  43.2944990  25.9419997  99.9739992  41.8814990  25.7269997
 100.3760163  42.4774174  26.2180604 108.1539992  42.5654990  24.7609997
 108.7999992  42.2364990  25.3859997 108.6639992  43.0824990  24.1389997
 108.3114289  42.5904333  24.7623681  97.0519992  44.8314990  27.1229997
  97.7059992  44.2814990  27.5549997  97.0759992  44.5574990  26.2059997
  97.1447199  44.7192178  27.0581650 102.2079992  46.3814990  26.3379997
 102.8239992  45.8544990  26.8469997 101.6219992  45.7414990  25.9339997
 102.2130652  46.2228919  26.3530277 113.1909992  43.0184990  31.8569997
 112.5019992  43.6764990  31.7619997 113.2059992  42.8204990  32.7939997
 113.0987756  43.0817614  31.9705795  99.2419992  41.3524990  30.4349997
  99.0229992  41.8824990  29.6679997  98.5739992  41.5784990  31.0819997
  99.1216975  41.4555979  30.4175123 106.6109992  50.8524990  23.9789997
 106.3149992  50.5294990  23.1269997 106.2869992  51.7524990  24.0199997
 106.5267458  50.9299678  23.8680598 101.8109992  49.0274990  30.7219997
 101.0709992  49.6264990  30.8259997 102.5249992  49.5814990  30.4059997
 101.8063146  49.1842611  30.6935150 109.9179992  41.8564990  26.7419997
 109.7029992  41.0904990  27.2749997 110.5739992  42.3284990  27.2549997
 109.9772673  41.8155739  26.8841972  98.8359992  43.2444990  28.3869997
  99.4489992  43.8774990  28.7599997  99.3479992  42.7724990  27.7309997
  98.9891933  43.2673380  28.3493477  73.4339992  44.0964990  86.3359997
  74.3669992  44.3084990  86.3019997  73.1989992  44.1974990  87.2589997
  73.5298357  44.1391303  86.4560232 100.2179992  50.9924990  31.5089997
 100.2129992  51.8714990  31.1309997  99.3649992  50.9084990  31.9339997
 100.1019199  51.1015901  31.5146942  96.3399992  50.6634990  22.2909997
  96.0679992  50.8924990  21.4019997  96.3849992  51.5004990  22.7519997
  96.3088360  50.8081034  22.2316186 109.9649992  52.2844990  29.0039997
 109.0229992  52.3434990  29.1659997 110.2409992  53.1904990  28.8669997
 109.8735865  52.4150299  29.0076174 110.2649992  40.5714990  30.4209997
 109.5289992  41.1814990  30.3839997 110.9489992  40.9864990  29.8949997
 110.2565367  40.7112562  30.3448156 103.2679992  38.6574990  27.8869997
 103.1509992  37.7094990  27.8329997 102.4129992  38.9904990  28.1599997
 103.1363691  38.5725842  27.9165072 108.2169992  54.0654990  25.6289997
 108.6419992  53.3584990  25.1439997 108.5339992  54.8674990  25.2119997
 108.3180266  54.0770201  25.5062461 109.3759992  51.9664990  24.1379997
 109.1189992  51.2764990  23.5259997 109.4469992  51.5234990  24.9829997
 109.3504322  51.8121568  24.1685372 111.0619992  50.5334990  32.6149997
 111.2019992  49.9414990  31.8759997 111.2299992  51.4064990  32.2589997
 111.1038734  50.5704041  32.4656937 105.5349992  47.4954990  22.3879997
 104.8229992  48.0304990  22.0359997 106.2259992  47.5504990  21.7279997
 105.5309704  47.5761663  22.2505797 105.5889992  45.9524990  19.4259997
 106.2899992  45.9754990  20.0779997 105.8909992  45.3244990  18.7699997
 105.7258202  45.8707223  19.4265591  73.4629992  44.8334990  89.1119997
  72.6199992  45.1014990  89.4779997  73.9059992  45.6554990  88.9009997
  73.4074358  44.9813294  89.1335999 112.9039992  46.8734990  30.6809997
 112.2519992  47.5674990  30.7699997 113.3689992  47.0834990  29.8709997
 112.8775357  46.9969544  30.5837056 108.9409992  47.7044990  23.3389997
 108.2089992  47.9334990  23.9119997 109.3879992  46.9914990  23.7939997
 108.9012753  47.6393984  23.4789698 108.8379992  45.8794990  32.4069997
 108.9179992  46.6424990  32.9789997 108.2369992  46.1584990  31.7169997
 108.7676547  46.0217468  32.3920029 100.5859992  48.3354990  25.2219997
 100.2559992  47.9644990  24.4039997 101.1739992  47.6644990  25.5689997
 100.6203182  48.1940648  25.1569898 101.9529992  51.7634990  27.9029997
 101.8579992  51.1844990  27.1469997 102.6819992  51.3924990  28.3989997
 102.0386011  51.6340572  27.8666011 100.9529992  47.1034990  28.8549997
 101.5179992  47.2254990  28.0929997 101.2709992  47.7414990  29.4939997
 101.0733619  47.2064388  28.8370019 107.2619992  52.6074990  29.5889997
 107.0209992  53.2694990  30.2369997 107.0639992  51.7724990  30.0139997
 107.2022662  52.5852704  29.7351008 107.8119992  46.8674990  21.0249997
 108.3909992  47.0174990  21.7709997 108.2259992  47.3374990  20.3009997
 107.9473358  46.9515966  21.0293935  98.7529992  47.7014990  32.8009997
  98.8229992  48.3524990  33.4999997  97.8619992  47.8044990  32.4659997
  98.6421690  47.8044261  32.8513026 105.5379992  53.6034990  24.4599997
 106.0119992  53.8994990  25.2369997 104.9749992  54.3424990  24.2269997
 105.5267890  53.7438047  24.5348084  57.7439992  43.2804990  92.5889997
  58.6639992  43.1584990  92.8249997  57.2949992  42.5304990  92.9779997
  57.8091561  43.1623720  92.6739015 100.0719992  53.5744990  34.3359997
 100.0799992  53.4384990  33.3889997  99.1559992  53.4574990  34.5879997
  99.9492528  53.5400475  34.2403226 111.5099992  38.6174990  20.8369997
 110.6099992  38.7554990  21.1329997 111.7619992  39.4484990  20.4359997
 111.4207727  38.7488705  20.8232935  99.5759992  47.4044990  22.8109997
  99.2839992  48.1724990  22.3199997  98.9019992  46.7454990  22.6479997
  99.4448843  47.4204537  22.7217695 112.6999992  52.9834990  19.2139997
 112.7729992  53.9224990  19.3839997 113.6049992  52.6784990  19.1579997
 112.8324170  53.0708294  19.2297045  95.6689992  49.7674990  31.6259997
  95.1679992  49.7394990  30.8109997  95.6749992  48.8624990  31.9359997
  95.6011690  49.6412234  31.5562770  95.4199992  52.5484990  28.5099997
  96.3659992  52.4034990  28.4909997  95.3069992  53.3324990  29.0469997
  95.5343578  52.6346708  28.5800300 113.6169992  53.2144990  34.1929997
 113.5679992  52.2584990  34.1549997 112.7909992  53.4814990  34.5939997
 113.4985096  53.1198416  34.2420698 105.0099992  56.5604990  22.8749997
 104.9349992  56.4394990  21.9279997 105.0429992  57.5094990  22.9929997
 105.0042083  56.6722639  22.7614973  98.6639992  55.3494990  24.6559997
  98.8159992  55.0014990  25.5339997  97.8129992  54.9924990  24.3999997
  98.5698344  55.2535891  24.7416851 108.1119992  55.7144990  19.8769997
 108.4869992  54.9704990  19.4059997 108.1159992  55.4444990  20.7949997
 108.1638969  55.5760920  19.9366475  75.7459992  38.8134990  94.4659997
  76.0959992  38.1594990  93.8599997  75.8929992  39.6504990  94.0259997
  75.8137192  38.8372545  94.3236712 107.7809992  55.6404990  22.6259997
 106.8459992  55.7404990  22.8049997 108.0609992  54.9304990  23.2049997
 107.6909471  55.5582944  22.7286678  97.9179992  51.0914990  32.6689997
  98.1339992  50.7294990  33.5289997  97.0629992  50.7164990  32.4599997
  97.8319082  50.9913377  32.7582396 100.5369992  39.5614990  28.6649997
  99.6749992  39.4744990  28.2569997 100.5149992  40.4174990  29.0929997
 100.4160557  39.6653078  28.6670202 109.2889992  47.8994990  18.6539997
 109.3309992  47.6774990  17.7239997 110.1379992  48.2984990  18.8439997
 109.4095253  47.9230510  18.5523804 104.8619992  41.7754990  19.3249997
 104.6079992  41.7944990  20.2469997 104.6049992  40.9044990  19.0229997
 104.7924508  41.6603292  19.4104786 100.6279992  44.5264990  29.7599997
  99.9859992  44.4864990  30.4689997 100.6649992  45.4534990  29.5219997
 100.5451659  44.6462540  29.8248463 100.6249992  44.7474990  24.6719997
  99.7319992  44.4074990  24.6129997 101.0759992  44.3704990  23.9159997
 100.5637185  44.6500220  24.5617698 106.1609992  45.1634990  23.4889997
 105.7519992  45.9784990  23.1969997 106.8809992  45.0234990  22.8749997
 106.2024439  45.2560383  23.3660098 107.1649992  44.6094990  26.3029997
 106.9699992  45.2154990  25.5879997 107.3469992  43.7764990  25.8689997
 107.1629195  44.5797936  26.1464079  98.3779992  44.8474990  31.6269997
  98.3399992  45.2474990  32.4959997  97.8869992  44.0304990  31.7169997
  98.3064374  44.7918228  31.7580980  73.4359992  40.7774990  80.9489997
  73.6179992  40.3284990  81.7739997  72.8359992  40.1934990  80.4849997
  73.3798187  40.6370563  80.9992721 101.7439992  42.2214990  18.4259997
 101.3129992  41.7764990  19.1549997 101.0259992  42.5924990  17.9129997
 101.5879176  42.2107063  18.4564913  94.9859992  41.9634990  25.4779997
  95.6169992  41.9344990  26.1969997  95.4359992  41.5384990  24.7469997
  95.1331082  41.9021269  25.4776307  96.2599992  42.7094990  20.9019997
  96.7349992  43.3004990  20.3169997  95.5429992  43.2394990  21.2489997
  96.2280406  42.8621011  20.8688495 106.4289992  46.2474990  30.9739997
 106.7529992  45.6164990  30.3309997 105.9889992  45.7134990  31.6349997
 106.4138707  46.0888261  30.9753195 103.2069992  42.1754990  25.7579997
 102.2959992  42.2324990  26.0469997 103.7119992  42.1154990  26.5689997
 103.1506873  42.1751838  25.9071190  98.0349992  43.8044990  24.5849997
  97.1459992  43.9034990  24.2449997  98.3309992  42.9624990  24.2389997
  97.9534001  43.7042473  24.4917318 101.6879992  43.8044990  22.2419997
 102.6199992  43.9334990  22.4199997 101.4729992  44.4734990  21.5919997
 101.7864472  43.9125817  22.1784873 107.6119992  41.4104990  29.0219997
 106.9349992  41.5414990  29.6859997 107.1259992  41.2554990  28.2119997
 107.4537265  41.4074665  29.0033380 100.3619992  44.9984990  19.8079997
  99.8199992  44.6194990  19.1169997 101.1959992  45.1934990  19.3799997
 100.4004390  44.9729091  19.6554374  98.4969992  49.5554990  34.9069997
  99.2289992  49.8104990  35.4689997  97.7169992  49.7604990  35.4229997
  98.4916526  49.6180438  35.0535168  57.2699992  44.5924990  86.5489997
  57.7619992  44.3714990  85.7589997  57.6319992  45.4324990  86.8299997
  57.3863429  44.6758220  86.4787918 104.5269992  44.9624990  27.6449997
 105.0909992  44.4164990  27.0979997 104.3789992  44.4414990  28.4339997
 104.5843037  44.8171798  27.6767212  99.5289992  41.0994990  24.0639997
  99.2109992  40.1964990  24.0279997 100.3099992  41.1014990  23.5109997
  99.5911079  40.9762240  23.9842908 103.1529992  43.3514990  30.0589997
 102.3179992  43.8054990  30.1699997 103.6769992  43.6274990  30.8109997
 103.1096072  43.4508960  30.1758118 103.6969992  49.5644990  21.7439997
 102.9519992  49.0564990  21.4219997 103.5629992  49.6134990  22.6899997
 103.5769334  49.5016144  21.8278892 110.8469992  48.6974990  30.5309997
 111.4889992  49.1534990  29.9869997 110.0169992  48.8104990  30.0679997
 110.8226536  48.7751813  30.3939579 107.5949992  42.3784990  19.9429997
 106.6559992  42.4894990  19.7919997 107.8919992  43.2344990  20.2499997
 107.5066136  42.5094977  19.9638568 105.2169992  49.7484990  32.9809997
 104.8709992  49.3664990  33.7879997 105.0169992  50.6814990  33.0519997
 105.1425987  49.8224013  33.1010443 108.3129992  44.2454990  21.6039997
 109.2049992  44.1074990  21.9229997 108.3699992  45.0364990  21.0669997
 108.4427380  44.3334777  21.5750981  98.8219992  48.8594990  27.5139997
  99.5669992  48.8564990  26.9119997  98.8999992  48.0354990  27.9949997
  98.9343365  48.7477395  27.4967412 105.8229992  51.0224990  20.7689997
 105.5279992  51.8494990  21.1509997 105.1199992  50.4034990  20.9659997
 105.6876379  51.0519182  20.8478636  75.2659992  40.9224990  92.8149997
  74.3489992  41.1934990  92.7789997  75.3889992  40.3874990  92.0309997
  75.1570828  40.8872711  92.7040767  95.8299992  47.3194990  32.8289997
  96.0529992  46.9014990  33.6599997  95.2279992  46.7074990  32.4059997
  95.7791513  47.1794617  32.8856722 113.1979992  44.4544990  21.2989997
 112.6439992  44.0584990  20.6259997 113.2989992  45.3654990  21.0209997
 113.1358589  44.5233904  21.1693839 111.4929992  53.2404990  21.7639997
 111.1209992  52.4154990  22.0729997 111.7709992  53.0574990  20.8659997
 111.4795807  53.1027031  21.6850063 108.6539992  48.0484990  28.7849997
 107.7259992  47.8174990  28.7579997 109.1049992  47.2714990  28.4549997
 108.5878165  47.9117785  28.7366772 101.1969992  52.3774990  24.9179997
 101.7239992  53.1504990  24.7179997 100.3169992  52.6014990  24.6159997
 101.1502121  52.5137344  24.8497460  96.9519992  47.2394990  19.5049997
  97.5679992  47.8664990  19.8849997  96.0899992  47.5554990  19.7769997
  96.9197678  47.3679423  19.5937192 102.6239992  50.0404990  24.4939997
 102.3829992  50.9654990  24.5359997 101.8839992  49.5814990  24.8909997
 102.4909463  50.1050969  24.5534279 103.1389992  54.1894990  30.8089997
 103.5019992  55.0434990  30.5759997 103.6709992  53.8974990  31.5499997
 103.2605141  54.2668907  30.8772079 101.3069992  55.0614990  24.0399997
 100.3579992  55.1674990  24.0909997 101.6589992  55.8824990  24.3839997
 101.2245647  55.1870029  24.0934882 106.6829992  50.2884990  30.5099997
 106.2569992  50.0604990  31.3359997 107.2639992  49.5494990  30.3279997
 106.7032088  50.1574393  30.5984454  72.3539992  55.8344990  82.5489997
  73.0059992  55.4864990  81.9409997  72.8649992  56.3224990  83.1949997
  72.5122872  55.8528248  82.5530964 108.8859992  51.2174990  19.5839997
 109.2389992  50.8374990  20.3879997 107.9369992  51.1234990  19.6709997
 108.8060956  51.1527867  19.7058005 109.3419992  54.8404990  32.9789997
 108.7399992  54.2844990  32.4839997 109.6229992  55.5074990  32.3529997
 109.2975757  54.8545755  32.8265657 113.3889992  55.6964990  19.7849997
 114.1329992  56.2824990  19.6449997 112.6949992  56.2654990  20.1179997
 113.3969809  55.8535830  19.8108572  97.4639992  42.0734990  32.3869997
  96.5709992  42.4114990  32.3189997  97.3649992  41.2174990  32.8049997
  97.3284752  42.0040986  32.4341644 109.7519992  49.8894990  21.8109997
 109.4749992  49.1614990  22.3669997 110.6789992  50.0084990  22.0159997
 109.8394419  49.8059436  21.9148264  97.1149992  53.8774990  30.8219997
  97.3319992  52.9454990  30.7909997  97.3619992  54.1524990  31.7049997
  97.1780948  53.7870976  30.9371268 102.9769992  52.3294990  18.0309997
 103.2159992  51.5804990  17.4839997 102.7079992  51.9414990  18.8639997
 102.9733233  52.1746865  18.0687791 101.9139992  51.8994990  20.4869997
 102.0609992  51.3794990  21.2769997 101.9109992  52.8064990  20.7939997
 101.9337102  51.9508964  20.6365907  98.3669992  49.1514990  20.9979997
  97.6809992  49.5044990  21.5649997  98.8899992  49.9144990  20.7509997
  98.3438402  49.3028912  21.0421784 106.1979992  41.8144990  31.2769997
 106.8969992  41.8884990  31.9269997 105.8179992  40.9494990  31.4309997
 106.2422662  41.7077050  31.3867412  57.5469992  39.5884990  88.9479997
  56.8819992  39.3424990  89.5909997  57.1039992  40.2104990  88.3709997
  57.3961168  39.6389225  88.9579830 106.9829992  41.4664990  22.3739997
 107.2029992  41.9374990  21.5699997 107.5409992  41.8604990  23.0439997
 107.0886044  41.5842946  22.3545207 104.6519992  53.5964990  21.2369997
 103.8349992  54.0934990  21.2889997 105.1809992  54.0724990  20.5959997
 104.6118125  53.7287000  21.1575289 104.1829992  43.1944990  23.2089997
 104.9949992  43.6984990  23.2549997 103.9379992  43.0494990  24.1229997
 104.2611091  43.2439366  23.3388552 104.7189992  44.1804990  32.3929997
 104.8379992  44.7544990  33.1499997 105.3739992  43.4924990  32.5079997
 104.8238684  44.1660205  32.5121656 105.0669992  40.2754990  24.1469997
 104.7199992  40.8924990  24.7909997 105.7249992  40.7764990  23.6649997
 105.1084430  40.4276860  24.1700046 101.9899992  54.6404990  21.2179997
 102.1509992  55.4404990  20.7179997 101.7929992  54.9474990  22.1029997
 101.9853906  54.7913690  21.2692316 100.7239992  41.3384990  20.8339997
 100.6409992  42.2264990  21.1809997 101.6139992  41.0734990  21.0659997
 100.8329331  41.4241177  20.9128067 109.5249992  45.8374990  27.3239997
 108.7279992  45.4224990  26.9959997 109.9699992  45.1474990  27.8149997
 109.4760367  45.6873372  27.3454897  98.9829992  51.7654990  19.8939997
  99.5749992  52.4654990  20.1709997  99.4419992  51.3324990  19.1749997
  99.1261652  51.8027686  19.8346515  97.2989992  44.4304990  19.0099997
  97.2539992  45.3694990  19.1889997  96.4109992  44.1944990  18.7409997
  97.1728166  44.5271698  18.9981507  59.7389992  52.7634990  93.0919997
  58.9179992  52.9384990  92.6319997  59.4869992  52.6904990  94.0129997
  59.5926173  52.7775806  93.1534954 110.6119992  55.0934990  28.9459997
 110.4559992  55.7724990  28.2889997 111.5439992  55.1654990  29.1489997
 110.7167328  55.1961586  28.8835529  98.1069992  39.2114990  27.6829997
  97.8779992  39.2704990  26.7559997  97.6639992  38.4204990  27.9899997
  98.0157387  39.1126412  27.5975223  97.0369992  53.1524990  23.8439997
  96.2049992  53.6244990  23.8709997  97.5829992  53.6624990  23.2449997
  96.9968710  53.2860317  23.7667570 105.0149992  54.1924990  18.1689997
 104.3709992  53.5614990  18.4909997 105.7769992  53.6614990  17.9379997
 105.0298708  54.0343171  18.1818461 109.6189992  54.0094990  18.4029997
 109.9019992  53.2144990  18.8559997 110.3589992  54.2424990  17.8419997
 109.7577295  53.9322349  18.3891469 100.5739992  49.9184990  18.2609997
 100.6379992  49.1244990  18.7909997 101.2269992  49.8004990  17.5709997
 100.6710483  49.7937496  18.2403407 105.9259992  50.9654990  17.9969997
 105.6579992  51.1464990  18.8969997 105.7199992  50.0404990  17.8649997
 105.8613443  50.8651873  18.1026643 108.6229992  49.4604990  32.9439997
 109.3679992  50.0494990  32.8249997 107.8649992  50.0424990  33.0069997
 108.6225289  49.6197067  32.9362292 101.7229992  47.8914990  20.5669997
 101.2639992  47.4074990  21.2519997 101.9779992  47.2224990  19.9309997
 101.6945997  47.7348491  20.5748734 101.0119992  45.7844990  32.9229997
 100.3939992  46.4584990  33.2029997 101.3559992  46.1054990  32.0889997
 100.9738078  45.9202298  32.8486609  62.6929992  53.7374990  89.3509997
  62.2679992  54.5474990  89.0679997  63.5969992  53.8234990  89.0489997
  62.7571002  53.8598728  89.2714798 102.7939992  46.1344990  18.8289997
 102.6139992  45.9794990  17.9019997 103.7439992  46.2424990  18.8739997
 102.8977804  46.1278821  18.7081966 112.1839992  48.4884990  18.2749997
 111.9109992  48.0644990  17.4619997 112.2239992  49.4204990  18.0579997
 112.1520201  48.5563523  18.1343548 101.3519992  43.1394990  34.0049997
 101.5019992  42.4104990  33.4029997 101.3539992  43.9164990  33.4459997
 101.3727967  43.1447720  33.8470523 101.7639992  41.5084990  31.4979997
 102.2999992  41.9604990  30.8459997 100.9119992  41.4004990  31.0749997
 101.7221795  41.5557444  31.3516211 103.3459992  46.9484990  31.7369997
 104.0969992  46.7924990  31.1639997 103.0069992  47.8004990  31.4619997
 103.4029587  47.0423149  31.6214060 109.0779992  47.5524990  34.8429997
 108.7969992  48.2614990  34.2649997 110.0209992  47.4794990  34.6919997
 109.1669272  47.6396704  34.7434976 102.6919992  56.8244990  19.8299997
 103.6249992  56.9824990  19.9739997 102.4269992  57.5004990  19.2049997
 102.7839846  56.9374567  19.7652930  96.2599992  51.4614990  19.3129997
  97.1739992  51.5404990  19.5859997  96.2669992  50.7744990  18.6469997
  96.3860624  51.3794074  19.2603045  94.9089992  56.8544990  24.3899997
  94.2619992  56.3924990  23.8579997  95.2639992  56.1824990  24.9729997
  94.8683741  56.7004785  24.3959157  95.7789992  54.9344990  26.1949997
  95.4449992  54.0544990  26.3669997  96.0009992  55.2804990  27.0599997
  95.7632565  54.8607410  26.3354263  67.0039992  55.1364990  92.3099997
  67.1889992  54.8034990  93.1879997  67.8509992  55.4464990  91.9879997
  67.1437291  55.1328214  92.3866140 113.3279992  55.7444990  29.1759997
 113.3059992  55.9294990  30.1139997 114.0179992  56.3124990  28.8349997
 113.4183383  55.8467104  29.2584580 112.8909992  55.3114990  32.0969997
 112.4039992  54.5754990  31.7259997 113.4399992  54.9174990  32.7749997
 112.8986101  55.1576267  32.1379034 112.6429992  49.3574990  22.2499997
 113.4929992  49.7784990  22.3769997 112.6479992  48.6174990  22.8569997
 112.7601143  49.3151106  22.3494732 113.0369992  47.4114990  24.0729997
 112.3109992  46.9314990  24.4709997 113.6179992  47.6164990  24.8049997
 113.0162504  47.3735592  24.2264199 112.7959992  50.1964990  29.0209997
 113.6299992  49.8184990  28.7399997 112.9079992  51.1394990  28.9019997
 112.9251917  50.2722954  28.9664844 111.2819992  53.0744990  31.3279997
 110.6349992  53.3994990  31.9529997 110.7649992  52.6334990  30.6539997
 111.1234112  53.0594133  31.3225272 113.3049992  47.3124990  20.4639997
 112.7839992  47.6684990  19.7459997 113.2719992  47.9874990  21.1429997
 113.2290955  47.4525023  20.4572634 111.6539992  44.5514990  19.0149997
 111.7509992  45.2184990  18.3349997 111.5139992  43.7364990  18.5339997
 111.6483407  44.5325670  18.8568312 110.8239992  45.9324990  24.6359997
 110.6739992  44.9874990  24.6159997 110.4699992  46.2134990  25.4799997
 110.7556351  45.8411656  24.7473202  95.8589992  48.0104990  28.6469997
  96.0429992  47.9284990  27.7109997  96.7079992  47.8864990  29.0699997
  95.9990132  47.9825066  28.5761460  69.3489992  56.4224990  91.5539997
  70.0259992  55.7894990  91.3139997  69.6709992  56.8234990  92.3619997
  69.4851280  56.3900638  91.6303190 111.6799992  47.9024990  34.2749997
 112.2629992  47.1674990  34.4669997 112.2439992  48.6744990  34.3219997
 111.8359781  47.9063156  34.3076146 113.1769992  45.8054990  34.9599997
 112.3129992  45.4264990  34.7939997 113.7809992  45.0664990  34.8849997
 113.1405394  45.6538378  34.9271778 110.9019992  41.9594990  18.1329997
 111.5119992  41.5884990  18.7699997 110.0649992  41.5384990  18.3289997
 110.8723704  41.8517942  18.2467077 110.5339992  43.5144990  23.0989997
 110.8139992  42.6074990  23.2229997 111.2929992  43.9484990  22.7099997
 110.6749258  43.4490935  23.0633691 111.1459992  44.0964990  28.5349997
 112.0789992  44.3084990  28.4999997 110.9109992  44.1974990  29.4569997
 111.2419517  44.1391844  28.6549113 111.1749992  44.8334990  31.3109997
 110.3319992  45.1014990  31.6759997 111.6179992  45.6554990  31.0999997
 111.1194035  44.9813351  31.3324770 111.1479992  40.7774990  23.1469997
 111.3299992  40.3284990  23.9719997 110.5479992  40.1934990  22.6829997
 111.0918187  40.6370563  23.1972721  96.6779992  41.5934990  27.6789997
  97.1229992  40.8014990  27.9809997  97.1439992  42.3094990  28.1089997
  96.8019718  41.5819546  27.7785247  94.9819992  44.5924990  28.7479997
  95.4739992  44.3714990  27.9569997  95.3439992  45.4324990  29.0289997
  95.0982923  44.6758480  28.6777389 113.0139992  40.8454990  19.6749997
 113.4269992  40.1244990  19.1999997 113.6959992  41.5144990  19.7329997
 113.1626060  40.8373741  19.6179233  74.2669992  39.0124990  90.6339997
  73.4539992  39.3374990  90.2459997  74.4999992  38.2514990  90.1009997
  74.1872566  38.9541570  90.5089196  95.2949992  40.8504990  22.8019997
  94.3699992  41.0584990  22.6729997  95.7489992  41.3344990  22.1119997
  95.2296298  40.9444311  22.6910433 110.0659992  55.8344990  24.7479997
 110.7179992  55.4864990  24.1399997 110.5769992  56.3224990  25.3939997
 110.2242872  55.8528248  24.7520964  95.2589992  39.5884990  31.1459997
  94.5939992  39.3424990  31.7889997  94.8159992  40.2104990  30.5689997
  95.1081168  39.6389225  31.1559830 100.4049992  53.7374990  31.5489997
  99.9799992  54.5474990  31.2669997 101.3089992  53.8234990  31.2469997
 100.4690706  53.8599557  31.4695836 111.9789992  39.0124990  32.8319997
 111.1659992  39.3374990  32.4449997 112.2119992  38.2514990  32.2989997
 111.8991347  38.9541891  32.7069824 104.9849992  56.4824990  29.8019997
 104.5279992  57.0114990  29.1479997 105.1469992  57.0854990  30.5269997
 104.9443919  56.6363990  29.8105740 107.3119992  55.3604990  30.7469997
 106.4079992  55.5254990  30.4809997 107.7409992  56.2134990  30.6809997
 107.2462017  55.4984184  30.7016495 109.9159992  56.9304990  31.0419997
 109.7349992  57.8464990  30.8309997 110.0929992  56.5194990  30.1949997
 109.9151377  57.0003365  30.8987178  97.2219992  55.6174990  28.5069997
  97.2029992  55.1914990  29.3639997  98.0259992  55.2984990  28.0979997
  97.3281393  55.5160297  28.5690155  99.3629992  54.3274990  27.1619997
  99.1439992  53.4104990  27.3319997 100.1869992  54.4674990  27.6279997
  99.4444702  54.2210523  27.2482510  60.0949992  56.9944990  89.3979997
  59.3739992  57.4344990  88.9469997  59.7289992  56.7434990  90.2469997
  59.9469785  57.0207691  89.4509849 101.8999992  54.7974990  28.0109997
 102.1129992  53.9094990  27.7239997 101.9649992  54.7624990  28.9649997
 101.9379149  54.6713338  28.1007351 105.4089992  40.4614990  27.1549997
 104.7339992  39.8314990  27.4109997 105.9729992  39.9774990  26.5519997
 105.3929363  40.3098886  27.1084810 110.5509992  38.5684990  27.2679997
 111.1549992  39.1164990  26.7659997 109.6819992  38.8874990  27.0269997
 110.5160419  38.6865628  27.1667741 112.2779992  39.7074990  25.6009997
 112.8899992  39.1934990  25.0739997 112.6609992  40.5844990  25.6239997
 112.4133867  39.7557613  25.5320888  97.7349992  39.0954990  24.9769997
  96.9579992  38.8604990  24.4699997  98.2659992  38.2984990  24.9859997
  97.7003735  38.9556462  24.9088090  96.5719992  38.8934990  20.7809997
  97.0109992  39.5044990  20.1889997  95.9379992  39.4314990  21.2549997
  96.5463859  39.0499076  20.7640287 102.3149992  39.0214990  24.7899997
 103.1889992  39.4104990  24.7609997 102.1789992  38.8064990  25.7129997
 102.4161953  39.0456654  24.9107599 107.8709992  39.0514990  26.4399997
 107.9479992  39.1474990  25.4899997 107.5959992  38.1444990  26.5679997
 107.8443233  38.9419093  26.3273665 109.2249992  39.0774990  22.1319997
 108.5219992  39.6924990  21.9219997 108.7799992  38.2404990  22.2629997
 109.0686550  39.0484679  22.1209819  96.4729992  54.8414990  21.6779997
  95.7879992  54.8034990  21.0109997  96.4759992  55.7534990  21.9659997
  96.3796806  54.9596669  21.6256961  62.5619992  56.5944990  88.4279997
  61.6969992  56.6664990  88.8319997  62.5069992  57.1414990  87.6439997
  62.4362066  56.6782678  88.3773371  98.4329992  40.8094990  19.2229997
  98.9239992  40.1794990  18.6959997  99.0559992  41.1054990  19.8859997
  98.5845304  40.7632387  19.2404922 103.4589992  41.1024990  21.6799997
 103.6369992  40.4554990  22.3629997 103.4049992  41.9364990  22.1469997
 103.4760678  41.1266615  21.8366283 105.3369992  56.0504990  20.0759997
 106.2029992  56.4174990  19.8979997 105.0899992  55.6114990  19.2619997
 105.4221853  56.0414021  19.9415813 112.0459992  55.6134990  22.7549997
 111.8519992  54.8654990  22.1899997 112.0069992  56.3714990  22.1719997
 112.0141645  55.6135797  22.5988131  98.2909992  55.7614990  18.7029997
  98.0229992  56.0474990  19.5769997  99.0619992  55.2154990  18.8559997
  98.3585926  55.7267790  18.8431188 125.6699992  48.2514990  24.9359997
 125.7589992  49.1954990  24.8029997 125.0309992  47.9764990  24.2779997
 125.5958378  48.3433846  24.8289258 124.6029992  47.5064990  28.3549997
 124.5639992  46.8604990  29.0599997 124.2799992  47.0394990  27.5829997
 124.5540469  47.3550005  28.3472803 116.9709992  47.1204990  29.9479997
 117.0119992  46.4954990  30.6709997 117.6739992  47.7444990  30.1299997
 117.0716223  47.1192318  30.0716164 128.3089992  50.4454990  26.6559997
 127.8679992  49.7254990  27.1069997 128.2959992  51.1664990  27.2859997
 128.2469215  50.4444303  26.8028088 117.8949992  51.5704990  28.4829997
 117.5249992  50.7684990  28.1129997 118.8359992  51.4024990  28.5289997
 117.9715984  51.4379649  28.4385586  67.2729992  56.4824990  87.6039997
  66.8159992  57.0114990  86.9499997  67.4349992  57.0854990  88.3289997
  67.2323919  56.6363990  87.6125740 114.5049992  45.2304990  23.8749997
 114.0569992  46.0764990  23.8569997 113.9439992  44.6514990  23.3599997
 114.3678546  45.2679004  23.8028874 115.2149992  47.3924990  26.0009997
 115.4289992  46.6224990  26.5279997 115.9529992  47.4824990  25.3979997
 115.3440073  47.2993546  25.9915786 125.4199992  55.5494990  26.8679997
 126.0399992  54.8734990  26.5949997 125.2119992  55.3314990  27.7769997
 125.4767679  55.4275032  26.9534518 122.9919992  49.9384990  28.7609997
 123.2959992  49.2524990  28.1659997 123.7139992  50.0574990  29.3789997
 123.1311240  49.8607325  28.7630941 131.6549992  41.5404990  29.6209997
 131.7039992  42.1504990  30.3569997 132.0809992  42.0014990  28.8979997
 131.7192851  41.6863266  29.6240532 126.1329992  44.3324990  29.0879997
 126.2749992  43.3864990  29.1079997 126.0269992  44.5394990  28.1599997
 126.1381051  44.2309706  28.9652249 119.2879992  42.4344990  26.3609997
 119.3309992  43.2944990  25.9419997 118.8299992  41.8814990  25.7269997
 119.2320163  42.4774174  26.2180604 127.0099992  42.5654990  24.7609997
 127.6559992  42.2364990  25.3859997 127.5199992  43.0824990  24.1389997
 127.1674289  42.5904333  24.7623681 115.9079992  44.8314990  27.1229997
 116.5619992  44.2814990  27.5549997 115.9319992  44.5574990  26.2059997
 116.0007199  44.7192178  27.0581650 121.0639992  46.3814990  26.3379997
 121.6799992  45.8544990  26.8469997 120.4779992  45.7414990  25.9339997
 121.0690652  46.2228919  26.3530277  69.5999992  55.3604990  88.5489997
  68.6959992  55.5254990  88.2829997  70.0289992  56.2134990  88.4829997
  69.5342017  55.4984184  88.5036495 132.0469992  43.0184990  31.8569997
 131.3579992  43.6764990  31.7619997 132.0619992  42.8204990  32.7939997
 131.9547756  43.0817614  31.9705795 118.0979992  41.3524990  30.4349997
 117.8789992  41.8824990  29.6679997 117.4299992  41.5784990  31.0819997
 117.9776975  41.4555979  30.4175123 125.4669992  50.8524990  23.9789997
 125.1709992  50.5294990  23.1269997 125.1429992  51.7524990  24.0199997
 125.3827458  50.9299678  23.8680598 120.6669992  49.0274990  30.7219997
 119.9269992  49.6264990  30.8259997 121.3809992  49.5814990  30.4059997
 120.6623146  49.1842611  30.6935150 128.7739992  41.8564990  26.7419997
 128.5589992  41.0904990  27.2749997 129.4299992  42.3284990  27.2549997
 128.8332673  41.8155739  26.8841972 117.6919992  43.2444990  28.3869997
 118.3049992  43.8774990  28.7599997 118.2039992  42.7724990  27.7309997
 117.8451933  43.2673380  28.3493477 119.0739992  50.9924990  31.5089997
 119.0689992  51.8714990  31.1309997 118.2209992  50.9084990  31.9339997
 118.9579199  51.1015901  31.5146942 115.1959992  50.6634990  22.2909997
 114.9239992  50.8924990  21.4019997 115.2409992  51.5004990  22.7519997
 115.1648360  50.8081034  22.2316186 128.8209992  52.2844990  29.0039997
 127.8789992  52.3434990  29.1659997 129.0969992  53.1904990  28.8669997
 128.7295865  52.4150299  29.0076174 129.1209992  40.5714990  30.4209997
 128.3849992  41.1814990  30.3839997 129.8049992  40.9864990  29.8949997
 129.1125367  40.7112562  30.3448156  72.2039992  56.9304990  88.8439997
  72.0229992  57.8464990  88.6329997  72.3809992  56.5194990  87.9969997
  72.2031377  57.0003365  88.7007178 122.1239992  38.6574990  27.8869997
 122.0069992  37.7094990  27.8329997 121.2689992  38.9904990  28.1599997
 121.9923691  38.5725842  27.9165072 127.0729992  54.0654990  25.6289997
 127.4979992  53.3584990  25.1439997 127.3899992  54.8674990  25.2119997
 127.1740266  54.0770201  25.5062461 128.2319992  51.9664990  24.1379997
 127.9749992  51.2764990  23.5259997 128.3029992  51.5234990  24.9829997
 128.2064322  51.8121568  24.1685372 129.9179992  50.5334990  32.6149997
 130.0579992  49.9414990  31.8759997 130.0859992  51.4064990  32.2589997
 129.9598734  50.5704041  32.4656937 124.3909992  47.4954990  22.3879997
 123.6789992  48.0304990  22.0359997 125.0819992  47.5504990  21.7279997
 124.3869704  47.5761663  22.2505797 124.4449992  45.9524990  19.4259997
 125.1459992  45.9754990  20.0779997 124.7469992  45.3244990  18.7699997
 124.5818202  45.8707223  19.4265591 131.7599992  46.8734990  30.6809997
 131.1079992  47.5674990  30.7699997 132.2249992  47.0834990  29.8709997
 131.7335357  46.9969544  30.5837056 127.7969992  47.7044990  23.3389997
 127.0649992  47.9334990  23.9119997 128.2439992  46.9914990  23.7939997
 127.7572753  47.6393984  23.4789698 127.6939992  45.8794990  32.4069997
 127.7739992  46.6424990  32.9789997 127.0929992  46.1584990  31.7169997
 127.6236547  46.0217468  32.3920029 119.4419992  48.3354990  25.2219997
 119.1119992  47.9644990  24.4039997 120.0299992  47.6644990  25.5689997
 119.4763182  48.1940648  25.1569898  60.3634322  55.1914990  87.1659997
  59.4909992  55.1914990  87.1659997  60.5685782  56.0394700  87.1659997
  60.2648592  55.3167630  87.1659997 120.8089992  51.7634990  27.9029997
 120.7139992  51.1844990  27.1469997 121.5379992  51.3924990  28.3989997
 120.8946011  51.6340572  27.8666011 119.8089992  47.1034990  28.8549997
 120.3739992  47.2254990  28.0929997 120.1269992  47.7414990  29.4939997
 119.9293619  47.2064388  28.8370019 126.1179992  52.6074990  29.5889997
 125.8769992  53.2694990  30.2369997 125.9199992  51.7724990  30.0139997
 126.0582662  52.5852704  29.7351008 120.6889992  51.5034990  33.5729997
 120.3769992  52.2854990  34.0279997 120.0389992  51.3504990  32.8869997
 120.5584858  51.5897882  33.5425344 126.6679992  46.8674990  21.0249997
 127.2469992  47.0174990  21.7709997 127.0819992  47.3374990  20.3009997
 126.8033358  46.9515966  21.0293935 124.3939992  53.6034990  24.4599997
 124.8679992  53.8994990  25.2369997 123.8309992  54.3424990  24.2269997
 124.3827890  53.7438047  24.5348084 130.3659992  38.6174990  20.8369997
 129.4659992  38.7554990  21.1329997 130.6179992  39.4484990  20.4359997
 130.2767727  38.7488705  20.8232935 118.4319992  47.4044990  22.8109997
 118.1399992  48.1724990  22.3199997 117.7579992  46.7454990  22.6479997
 118.3008843  47.4204537  22.7217695 131.5559992  52.9834990  19.2139997
 131.6289992  53.9224990  19.3839997 132.4609992  52.6784990  19.1579997
 131.6884170  53.0708294  19.2297045 114.5249992  49.7674990  31.6259997
 114.0239992  49.7394990  30.8109997 114.5309992  48.8624990  31.9359997
 114.4571690  49.6412234  31.5562770  61.6509992  54.3274990  84.9639997
  61.4319992  53.4104990  85.1329997  62.4749992  54.4674990  85.4299997
  61.7324637  54.2209586  85.0501414 114.2759992  52.5484990  28.5099997
 115.2219992  52.4034990  28.4909997 114.1629992  53.3324990  29.0469997
 114.3903578  52.6346708  28.5800300 123.4519992  52.7884990  33.0689997
 123.5389992  53.6144990  33.5439997 122.5879992  52.4584990  33.3179997
 123.3471944  52.8569871  33.1676558 123.8659992  56.5604990  22.8749997
 123.7909992  56.4394990  21.9279997 123.8989992  57.5094990  22.9929997
 123.8602083  56.6722639  22.7614973 117.5199992  55.3494990  24.6559997
 117.6719992  55.0014990  25.5339997 116.6689992  54.9924990  24.3999997
 117.4258344  55.2535891  24.7416851 126.9679992  55.7144990  19.8769997
 127.3429992  54.9704990  19.4059997 126.9719992  55.4444990  20.7949997
 127.0198969  55.5760920  19.9366475 126.6369992  55.6404990  22.6259997
 125.7019992  55.7404990  22.8049997 126.9169992  54.9304990  23.2049997
 126.5469471  55.5582944  22.7286678 116.7739992  51.0914990  32.6689997
 116.9899992  50.7294990  33.5289997 115.9189992  50.7164990  32.4599997
 116.6879082  50.9913377  32.7582396 119.3929992  39.5614990  28.6649997
 118.5309992  39.4744990  28.2569997 119.3709992  40.4174990  29.0929997
 119.2720557  39.6653078  28.6670202 124.0559992  39.2834990  32.0399997
 124.4759992  38.8684990  32.7929997 123.1229992  39.1044990  32.1569997
 123.9873736  39.2024921  32.1588950 128.1449992  47.8994990  18.6539997
 128.1869992  47.6774990  17.7239997 128.9939992  48.2984990  18.8439997
 128.2655253  47.9230510  18.5523804  64.1879992  54.7974990  85.8119997
  64.4009992  53.9094990  85.5249997  64.2529992  54.7624990  86.7669997
  64.2259075  54.6713318  85.9017355 123.7179992  41.7754990  19.3249997
 123.4639992  41.7944990  20.2469997 123.4609992  40.9044990  19.0229997
 123.6484508  41.6603292  19.4104786 119.4839992  44.5264990  29.7599997
 118.8419992  44.4864990  30.4689997 119.5209992  45.4534990  29.5219997
 119.4011659  44.6462540  29.8248463 119.4809992  44.7474990  24.6719997
 118.5879992  44.4074990  24.6129997 119.9319992  44.3704990  23.9159997
 119.4197185  44.6500220  24.5617698 125.0169992  45.1634990  23.4889997
 124.6079992  45.9784990  23.1969997 125.7369992  45.0234990  22.8749997
 125.0584439  45.2560383  23.3660098 126.0209992  44.6094990  26.3029997
 125.8259992  45.2154990  25.5879997 126.2029992  43.7764990  25.8689997
 126.0189195  44.5797936  26.1464079 117.2339992  44.8474990  31.6269997
 117.1959992  45.2474990  32.4959997 116.7429992  44.0304990  31.7169997
 117.1624374  44.7918228  31.7580980 120.5999992  42.2214990  18.4259997
 120.1689992  41.7764990  19.1549997 119.8819992  42.5924990  17.9129997
 120.4439176  42.2107063  18.4564913 113.8419992  41.9634990  25.4779997
 114.4729992  41.9344990  26.1969997 114.2919992  41.5384990  24.7469997
 113.9891082  41.9021269  25.4776307 115.1159992  42.7094990  20.9019997
 115.5909992  43.3004990  20.3169997 114.3989992  43.2394990  21.2489997
 115.0840406  42.8621011  20.8688495 125.2849992  46.2474990  30.9739997
 125.6089992  45.6164990  30.3309997 124.8449992  45.7134990  31.6349997
 125.2698707  46.0888261  30.9753195  67.6969992  40.4614990  84.9569997
  67.0219992  39.8314990  85.2119997  68.2609992  39.9774990  84.3539997
  67.6809558  40.3099283  84.9103451 122.0629992  42.1754990  25.7579997
 121.1519992  42.2324990  26.0469997 122.5679992  42.1154990  26.5689997
 122.0066873  42.1751838  25.9071190 116.8909992  43.8044990  24.5849997
 116.0019992  43.9034990  24.2449997 117.1869992  42.9624990  24.2389997
 116.8094001  43.7042473  24.4917318 120.5439992  43.8044990  22.2419997
 121.4759992  43.9334990  22.4199997 120.3289992  44.4734990  21.5919997
 120.6424472  43.9125817  22.1784873 126.4679992  41.4104990  29.0219997
 125.7909992  41.5414990  29.6859997 125.9819992  41.2554990  28.2119997
 126.3097265  41.4074665  29.0033380 119.2179992  44.9984990  19.8079997
 118.6759992  44.6194990  19.1169997 120.0519992  45.1934990  19.3799997
 119.2564390  44.9729091  19.6554374 129.7549992  57.0814990  35.2989997
 129.9549992  57.5054990  34.4649997 130.4109992  57.4254990  35.9059997
 129.8709937  57.1859993  35.2668645 123.3829992  44.9624990  27.6449997
 123.9469992  44.4164990  27.0979997 123.2349992  44.4414990  28.4339997
 123.4403037  44.8171798  27.6767212 118.3849992  41.0994990  24.0639997
 118.0669992  40.1964990  24.0279997 119.1659992  41.1014990  23.5109997
 118.4471079  40.9762240  23.9842908 122.0089992  43.3514990  30.0589997
 121.1739992  43.8054990  30.1699997 122.5329992  43.6274990  30.8109997
 121.9656072  43.4508960  30.1758118 122.5529992  49.5644990  21.7439997
 121.8079992  49.0564990  21.4219997 122.4189992  49.6134990  22.6899997
 122.4329334  49.5016144  21.8278892  72.8389992  38.5684990  85.0689997
  73.4429992  39.1164990  84.5679997  71.9699992  38.8874990  84.8289997
  72.8041126  38.6867070  84.9679180 129.7029992  48.6974990  30.5309997
 130.3449992  49.1534990  29.9869997 128.8729992  48.8104990  30.0679997
 129.6786536  48.7751813  30.3939579 126.4509992  42.3784990  19.9429997
 125.5119992  42.4894990  19.7919997 126.7479992  43.2344990  20.2499997
 126.3626136  42.5094977  19.9638568 124.0729992  49.7484990  32.9809997
 123.7269992  49.3664990  33.7879997 123.8729992  50.6814990  33.0519997
 123.9985987  49.8224013  33.1010443 127.1689992  44.2454990  21.6039997
 128.0609992  44.1074990  21.9229997 127.2259992  45.0364990  21.0669997
 127.2987380  44.3334777  21.5750981 117.6779992  48.8594990  27.5139997
 118.4229992  48.8564990  26.9119997 117.7559992  48.0354990  27.9949997
 117.7903365  48.7477395  27.4967412 124.6789992  51.0224990  20.7689997
 124.3839992  51.8494990  21.1509997 123.9759992  50.4034990  20.9659997
 124.5436379  51.0519182  20.8478636 114.6859992  47.3194990  32.8289997
 114.9089992  46.9014990  33.6599997 114.0839992  46.7074990  32.4059997
 114.6351513  47.1794617  32.8856722 121.7029992  46.8364990  35.0419997
 121.4069992  46.6714990  34.1459997 122.6339992  46.6164990  35.0309997
 121.7884401  46.7841891  34.9180189 126.3229992  52.2104990  32.9309997
 125.4219992  52.3934990  32.6639997 126.3569992  52.4694990  33.8519997
 126.2043861  52.2705245  33.0189517 132.0539992  44.4544990  21.2989997
 131.4999992  44.0584990  20.6259997 132.1549992  45.3654990  21.0209997
 131.9918589  44.5233904  21.1693839  74.5659992  39.7074990  83.4029997
  75.1779992  39.1934990  82.8759997  74.9489992  40.5844990  83.4259997
  74.7013867  39.7557613  83.3340888 130.3489992  53.2404990  21.7639997
 129.9769992  52.4154990  22.0729997 130.6269992  53.0574990  20.8659997
 130.3355807  53.1027031  21.6850063 127.5099992  48.0484990  28.7849997
 126.5819992  47.8174990  28.7579997 127.9609992  47.2714990  28.4549997
 127.4438165  47.9117785  28.7366772 120.0529992  52.3774990  24.9179997
 120.5799992  53.1504990  24.7179997 119.1729992  52.6014990  24.6159997
 120.0062121  52.5137344  24.8497460 115.8079992  47.2394990  19.5049997
 116.4239992  47.8664990  19.8849997 114.9459992  47.5554990  19.7769997
 115.7757678  47.3679423  19.5937192 121.4799992  50.0404990  24.4939997
 121.2389992  50.9654990  24.5359997 120.7399992  49.5814990  24.8909997
 121.3469463  50.1050969  24.5534279 121.9949992  54.1894990  30.8089997
 122.3579992  55.0434990  30.5759997 122.5269992  53.8974990  31.5499997
 122.1165141  54.2668907  30.8772079 120.1629992  55.0614990  24.0399997
 119.2139992  55.1674990  24.0909997 120.5149992  55.8824990  24.3839997
 120.0805647  55.1870029  24.0934882 125.5389992  50.2884990  30.5099997
 125.1129992  50.0604990  31.3359997 126.1199992  49.5494990  30.3279997
 125.5592088  50.1574393  30.5984454 127.7419992  51.2174990  19.5839997
 128.0949992  50.8374990  20.3879997 126.7929992  51.1234990  19.6709997
 127.6620956  51.1527867  19.7058005 128.1979992  54.8404990  32.9789997
 127.5959992  54.2844990  32.4839997 128.4789992  55.5074990  32.3529997
 128.1535757  54.8545755  32.8265657  70.1589992  39.0514990  84.2409997
  70.2359992  39.1474990  83.2919997  69.8839992  38.1444990  84.3699997
  70.1323407  38.9419188  84.1283532 132.2449992  55.6964990  19.7849997
 132.9889992  56.2824990  19.6449997 131.5509992  56.2654990  20.1179997
 132.2529809  55.8535830  19.8108572 116.3199992  42.0734990  32.3869997
 115.4269992  42.4114990  32.3189997 116.2209992  41.2174990  32.8049997
 116.1844752  42.0040986  32.4341644 128.6079992  49.8894990  21.8109997
 128.3309992  49.1614990  22.3669997 129.5349992  50.0084990  22.0159997
 128.6954419  49.8059436  21.9148264 115.9709992  53.8774990  30.8219997
 116.1879992  52.9454990  30.7909997 116.2179992  54.1524990  31.7049997
 116.0340948  53.7870976  30.9371268 121.8329992  52.3294990  18.0309997
 122.0719992  51.5804990  17.4839997 121.5639992  51.9414990  18.8639997
 121.8293233  52.1746865  18.0687791 120.7699992  51.8994990  20.4869997
 120.9169992  51.3794990  21.2769997 120.7669992  52.8064990  20.7939997
 120.7897102  51.9508964  20.6365907 117.2229992  49.1514990  20.9979997
 116.5369992  49.5044990  21.5649997 117.7459992  49.9144990  20.7509997
 117.1998402  49.3028912  21.0421783 125.0539992  41.8144990  31.2769997
 125.7529992  41.8884990  31.9269997 124.6739992  40.9494990  31.4309997
 125.0982662  41.7077050  31.3867412 125.8389992  41.4664990  22.3739997
 126.0589992  41.9374990  21.5699997 126.3969992  41.8604990  23.0439997
 125.9446044  41.5842946  22.3545207 123.5079992  53.5964990  21.2369997
 122.6909992  54.0934990  21.2889997 124.0369992  54.0724990  20.5959997
 123.4678125  53.7287000  21.1575289  71.5129992  39.0774990  79.9339997
  70.8099992  39.6924990  79.7239997  71.0679992  38.2404990  80.0649997
  71.3566550  39.0484679  79.9229819 123.0389992  43.1944990  23.2089997
 123.8509992  43.6984990  23.2549997 122.7939992  43.0494990  24.1229997
 123.1171091  43.2439366  23.3388552 123.5749992  44.1804990  32.3929997
 123.6939992  44.7544990  33.1499997 124.2299992  43.4924990  32.5079997
 123.6798684  44.1660205  32.5121656 123.9229992  40.2754990  24.1469997
 123.5759992  40.8924990  24.7909997 124.5809992  40.7764990  23.6649997
 123.9644430  40.4276860  24.1700046 120.8459992  54.6404990  21.2179997
 121.0069992  55.4404990  20.7179997 120.6489992  54.9474990  22.1029997
 120.8413906  54.7913690  21.2692316 119.5799992  41.3384990  20.8339997
 119.4969992  42.2264990  21.1809997 120.4699992  41.0734990  21.0659997
 119.6889331  41.4241177  20.9128067 128.3809992  45.8374990  27.3239997
 127.5839992  45.4224990  26.9959997 128.8259992  45.1474990  27.8149997
 128.3320367  45.6873372  27.3454897 117.8389992  51.7654990  19.8939997
 118.4309992  52.4654990  20.1709997 118.2979992  51.3324990  19.1749997
 117.9821652  51.8027686  19.8346515 116.1549992  44.4304990  19.0099997
 116.1099992  45.3694990  19.1889997 115.2669992  44.1944990  18.7409997
 116.0288166  44.5271698  18.9981507 129.4679992  55.0934990  28.9459997
 129.3119992  55.7724990  28.2889997 130.3999992  55.1654990  29.1489997
 129.5727328  55.1961586  28.8835529 116.9629992  39.2114990  27.6829997
 116.7339992  39.2704990  26.7559997 116.5199992  38.4204990  27.9899997
 116.8717387  39.1126412  27.5975223  65.7469992  41.1024990  79.4819997
  65.9249992  40.4554990  80.1649997  65.6929992  41.9364990  79.9489997
  65.7640678  41.1266615  79.6386283 115.8929992  53.1524990  23.8439997
 115.0609992  53.6244990  23.8709997 116.4389992  53.6624990  23.2449997
 115.8528710  53.2860317  23.7667570 123.8709992  54.1924990  18.1689997
 123.2269992  53.5614990  18.4909997 124.6329992  53.6614990  17.9379997
 123.8858708  54.0343171  18.1818462 128.4749992  54.0094990  18.4029997
 128.7579992  53.2144990  18.8559997 129.2149992  54.2424990  17.8419997
 128.6137295  53.9322349  18.3891469 119.4299992  49.9184990  18.2609997
 119.4939992  49.1244990  18.7909997 120.0829992  49.8004990  17.5709997
 119.5270483  49.7937496  18.2403407 121.7439992  49.5444990  35.5609997
 121.4159992  49.8154990  34.7039997 121.8959992  48.6034990  35.4729997
 121.7196412  49.4544058  35.4317804 124.7819992  50.9654990  17.9969997
 124.5139992  51.1464990  18.8969997 124.5759992  50.0404990  17.8649997
 124.7173443  50.8651873  18.1026643 127.4789992  49.4604990  32.9439997
 128.2239992  50.0494990  32.8249997 126.7209992  50.0424990  33.0069997
 127.4785289  49.6197067  32.9362292 120.5789992  47.8914990  20.5669997
 120.1199992  47.4074990  21.2519997 120.8339992  47.2224990  19.9309997
 120.5505997  47.7348491  20.5748734 119.8679992  45.7844990  32.9229997
 119.2499992  46.4584990  33.2029997 120.2119992  46.1054990  32.0889997
 119.8298078  45.9202298  32.8486609 121.6499992  46.1344990  18.8289997
 121.4699992  45.9794990  17.9019997 122.5999992  46.2424990  18.8739997
 121.7537804  46.1278821  18.7081966  74.3339992  55.6134990  80.5569997
  74.1399992  54.8654990  79.9919997  74.2949992  56.3714990  79.9729997
  74.3021907  55.6135770  80.4008077 131.0399992  48.4884990  18.2749997
 130.7669992  48.0644990  17.4619997 131.0799992  49.4204990  18.0579997
 131.0080201  48.5563523  18.1343548 120.2079992  43.1394990  34.0049997
 120.3579992  42.4104990  33.4029997 120.2099992  43.9164990  33.4459997
 120.2287967  43.1447720  33.8470523 120.6199992  41.5084990  31.4979997
 121.1559992  41.9604990  30.8459997 119.7679992  41.4004990  31.0749997
 120.5781795  41.5557444  31.3516211 122.2019992  46.9484990  31.7369997
 122.9529992  46.7924990  31.1639997 121.8629992  47.8004990  31.4619997
 122.2589587  47.0423149  31.6214060 121.4259992  38.9654990  31.9289997
 121.3279992  39.9114990  31.8239997 120.6829992  38.5924990  31.4529997
 121.3122123  39.0446811  31.8503204 122.6899992  43.2864990  35.4929997
 122.4539992  43.0674990  36.3939997 121.9069992  43.0794990  34.9829997
 122.5518382  43.2285340  35.5473991 116.8669992  42.2574990  35.6209997
 117.0779992  41.5514990  35.0109997 116.7549992  41.8204990  36.4649997
 116.8807668  42.1016619  35.6515445 121.5479992  56.8244990  19.8299997
 122.4809992  56.9824990  19.9739997 121.2829992  57.5004990  19.2049997
 121.6399846  56.9374567  19.7652930 115.1159992  51.4614990  19.3129997
 116.0299992  51.5404990  19.5859997 115.1229992  50.7744990  18.6469997
 115.2420624  51.3794074  19.2603045 113.7649992  56.8544990  24.3899997
 113.1179992  56.3924990  23.8579997 114.1199992  56.1824990  24.9729997
 113.7243741  56.7004785  24.3959157  59.9809992  39.6094990  92.2959997
  59.6149992  38.8434990  92.7389997  60.8939992  39.6384990  92.5829997
  60.0543225  39.5086917  92.3953441 114.6349992  54.9344990  26.1949997
 114.3009992  54.0544990  26.3669997 114.8569992  55.2804990  27.0599997
 114.6192565  54.8607410  26.3354263 132.1839992  55.7444990  29.1759997
 132.1619992  55.9294990  30.1139997 132.8739992  56.3124990  28.8349997
 132.2743383  55.8467104  29.2584580 131.7469992  55.3114990  32.0969997
 131.2599992  54.5754990  31.7259997 132.2959992  54.9174990  32.7749997
 131.7546101  55.1576267  32.1379034 131.4989992  49.3574990  22.2499997
 132.3489992  49.7784990  22.3769997 131.5039992  48.6174990  22.8569997
 131.6161143  49.3151106  22.3494732 131.8929992  47.4114990  24.0729997
 131.1669992  46.9314990  24.4709997 132.4739992  47.6164990  24.8049997
 131.8722504  47.3735592  24.2264199 131.6519992  50.1964990  29.0209997
 132.4859992  49.8184990  28.7399997 131.7639992  51.1394990  28.9019997
 131.7811917  50.2722954  28.9664844 130.1379992  53.0744990  31.3279997
 129.4909992  53.3994990  31.9529997 129.6209992  52.6334990  30.6539997
 129.9794112  53.0594133  31.3225272 132.1609992  47.3124990  20.4639997
 131.6399992  47.6684990  19.7459997 132.1279992  47.9874990  21.1429997
 132.0850955  47.4525023  20.4572634 130.5099992  44.5514990  19.0149997
 130.6069992  45.2184990  18.3349997 130.3699992  43.7364990  18.5339997
 130.5043407  44.5325670  18.8568312 129.6799992  45.9324990  24.6359997
 129.5299992  44.9874990  24.6159997 129.3259992  46.2134990  25.4799997
 129.6116351  45.8411656  24.7473202  61.9539992  38.9594990  93.8319997
  62.8529992  38.6854990  93.6469997  61.5679992  38.2174990  94.2959997
  62.0247237  38.8216520  93.8694693 114.7149992  48.0104990  28.6469997
 114.8989992  47.9284990  27.7109997 115.5639992  47.8864990  29.0699997
 114.8550132  47.9825066  28.5761460 130.5359992  47.9024990  34.2749997
 131.1189992  47.1674990  34.4669997 131.0999992  48.6744990  34.3219997
 130.6919781  47.9063156  34.3076146 132.0329992  45.8054990  34.9599997
 131.1689992  45.4264990  34.7939997 132.6369992  45.0664990  34.8849997
 131.9965394  45.6538378  34.9271778 129.7579992  41.9594990  18.1329997
 130.3679992  41.5884990  18.7699997 128.9209992  41.5384990  18.3289997
 129.7283704  41.8517942  18.2467077 129.3899992  43.5144990  23.0989997
 129.6699992  42.6074990  23.2229997 130.1489992  43.9484990  22.7099997
 129.5309258  43.4490935  23.0633691 130.0019992  44.0964990  28.5349997
 130.9349992  44.3084990  28.4999997 129.7669992  44.1974990  29.4569997
 130.0979517  44.1391844  28.6549113 130.0309992  44.8334990  31.3109997
 129.1879992  45.1014990  31.6759997 130.4739992  45.6554990  31.0999997
 129.9754035  44.9813351  31.3324770 114.3119992  43.2804990  34.7869997
 115.2319992  43.1584990  35.0239997 113.8629992  42.5304990  35.1769997
 114.3770500  43.1624576  34.8721016 130.0039992  40.7774990  23.1469997
 130.1859992  40.3284990  23.9719997 129.4039992  40.1934990  22.6829997
 129.9478187  40.6370563  23.1972721 115.5339992  41.5934990  27.6789997
 115.9789992  40.8014990  27.9809997 115.9999992  42.3094990  28.1089997
 115.6579718  41.5819546  27.7785247  70.3749992  38.2924990  94.0139997
  70.4519992  37.8664990  94.8679997  71.2689992  38.3054990  93.6719997
  70.5063315  38.2360320  94.0845052 113.8379992  44.5924990  28.7479997
 114.3299992  44.3714990  27.9569997 114.1999992  45.4324990  29.0289997
 113.9542923  44.6758480  28.6777389 131.8699992  40.8454990  19.6749997
 132.2829992  40.1244990  19.1999997 132.5519992  41.5144990  19.7329997
 132.0186060  40.8373741  19.6179233 114.1509992  40.8504990  22.8019997
 113.2259992  41.0584990  22.6729997 114.6049992  41.3344990  22.1119997
 114.0856298  40.9444311  22.6910433 128.9219992  55.8344990  24.7479997
 129.5739992  55.4864990  24.1399997 129.4329992  56.3224990  25.3939997
 129.0802872  55.8528248  24.7520964 114.1149992  39.5884990  31.1459997
 113.4499992  39.3424990  31.7889997 113.6719992  40.2104990  30.5689997
 113.9641168  39.6389225  31.1559830 116.3069992  52.7634990  35.2909997
 115.4859992  52.9384990  34.8299997 116.0549992  52.6904990  36.2109997
 116.1605594  52.7775728  35.3523593 119.2609992  53.7374990  31.5489997
 118.8359992  54.5474990  31.2669997 120.1649992  53.8234990  31.2469997
 119.3250706  53.8599557  31.4695836 130.8349992  39.0124990  32.8319997
 130.0219992  39.3374990  32.4449997 131.0679992  38.2514990  32.2989997
 130.7551347  38.9541891  32.7069824 119.1299992  56.5944990  30.6259997
 118.2649992  56.6664990  31.0299997 119.0749992  57.1414990  29.8429997
 119.0042289  56.6783242  30.5753749 123.8409992  56.4824990  29.8019997
 123.3839992  57.0114990  29.1479997 124.0029992  57.0854990  30.5269997
 123.8003919  56.6363990  29.8105740  73.5519992  54.3644990  92.7069997
  72.7699992  54.1784990  92.1869997  73.4799992  55.2944990  92.9239997
  73.4352975  54.4646973  92.6651823 126.1679992  55.3604990  30.7469997
 125.2639992  55.5254990  30.4809997 126.5969992  56.2134990  30.6809997
 126.1022017  55.4984184  30.7016495 128.7719992  56.9304990  31.0419997
 128.5909992  57.8464990  30.8309997 128.9489992  56.5194990  30.1949997
 128.7711377  57.0003365  30.8987178 116.0779992  55.6174990  28.5069997
 116.0589992  55.1914990  29.3639997 116.8819992  55.2984990  28.0979997
 116.1841393  55.5160297  28.5690155 118.2189992  54.3274990  27.1619997
 117.9999992  53.4104990  27.3319997 119.0429992  54.4674990  27.6279997
 118.3004702  54.2210523  27.2482510 120.7559992  54.7974990  28.0109997
 120.9689992  53.9094990  27.7239997 120.8209992  54.7624990  28.9649997
 120.7939149  54.6713338  28.1007351 124.2649992  40.4614990  27.1549997
 123.5899992  39.8314990  27.4109997 124.8289992  39.9774990  26.5519997
 124.2489363  40.3098886  27.1084810 129.4069992  38.5684990  27.2679997
 130.0109992  39.1164990  26.7659997 128.5379992  38.8874990  27.0269997
 129.3720419  38.6865628  27.1667741 131.1339992  39.7074990  25.6009997
 131.7459992  39.1934990  25.0739997 131.5169992  40.5844990  25.6239997
 131.2693867  39.7557613  25.5320888 116.5909992  39.0954990  24.9769997
 115.8139992  38.8604990  24.4699997 117.1219992  38.2984990  24.9859997
 116.5563735  38.9556462  24.9088090 115.4279992  38.8934990  20.7809997
 115.8669992  39.5044990  20.1889997 114.7939992  39.4314990  21.2549997
 115.4023859  39.0499076  20.7640287  87.9579992  48.2514990  82.7369997
  88.0469992  49.1954990  82.6049997  87.3189992  47.9764990  82.0789997
  87.8838319  48.3434984  82.6300276 121.1709992  39.0214990  24.7899997
 122.0449992  39.4104990  24.7609997 121.0349992  38.8064990  25.7129997
 121.2721953  39.0456654  24.9107599 126.7269992  39.0514990  26.4399997
 126.8039992  39.1474990  25.4899997 126.4519992  38.1444990  26.5679997
 126.7003233  38.9419093  26.3273665 128.0809992  39.0774990  22.1319997
 127.3779992  39.6924990  21.9219997 127.6359992  38.2404990  22.2629997
 127.9246550  39.0484679  22.1209819 115.3289992  54.8414990  21.6779997
 114.6439992  54.8034990  21.0109997 115.3319992  55.7534990  21.9659997
 115.2356806  54.9596669  21.6256961 117.2889992  40.8094990  19.2229997
 117.7799992  40.1794990  18.6959997 117.9119992  41.1054990  19.8859997
 117.4405304  40.7632387  19.2404922 122.3149992  41.1024990  21.6799997
 122.4929992  40.4554990  22.3629997 122.2609992  41.9364990  22.1469997
 122.3320678  41.1266615  21.8366283 124.1929992  56.0504990  20.0759997
 125.0589992  56.4174990  19.8979997 123.9459992  55.6114990  19.2619997
 124.2781853  56.0414021  19.9415813 130.9019992  55.6134990  22.7549997
 130.7079992  54.8654990  22.1899997 130.8629992  56.3714990  22.1719997
 130.8701645  55.6135797  22.5988131 117.1469992  55.7614990  18.7029997
 116.8789992  56.0474990  19.5769997 117.9179992  55.2154990  18.8559997
 117.2145926  55.7267790  18.8431188 135.8269992  47.1204990  29.9479997
 135.8679992  46.4954990  30.6709997 136.5299992  47.7444990  30.1299997
 135.9276223  47.1192318  30.0716164  86.8909992  47.5064990  86.1559997
  86.8519992  46.8604990  86.8609997  86.5679992  47.0394990  85.3849997
  86.8420199  47.3550089  86.1482865 136.7509992  51.5704990  28.4829997
 136.3809992  50.7684990  28.1129997 137.6919992  51.4024990  28.5289997
 136.8275984  51.4379649  28.4385586 133.3609992  45.2304990  23.8749997
 132.9129992  46.0764990  23.8569997 132.7999992  44.6514990  23.3599997
 133.2238546  45.2679004  23.8028874 134.0709992  47.3924990  26.0009997
 134.2849992  46.6224990  26.5279997 134.8089992  47.4824990  25.3979997
 134.2000073  47.2993546  25.9915786 138.1439992  42.4344990  26.3609997
 138.1869992  43.2944990  25.9419997 137.6859992  41.8814990  25.7269997
 138.0880163  42.4774174  26.2180604 134.7639992  44.8314990  27.1229997
 135.4179992  44.2814990  27.5549997 134.7879992  44.5574990  26.2059997
 134.8567199  44.7192178  27.0581650 136.9539992  41.3524990  30.4349997
 136.7349992  41.8824990  29.6679997 136.2859992  41.5784990  31.0819997
 136.8336975  41.4555979  30.4175123 139.5229992  49.0274990  30.7219997
 138.7829992  49.6264990  30.8259997 140.2369992  49.5814990  30.4059997
 139.5183146  49.1842611  30.6935150 136.5479992  43.2444990  28.3869997
 137.1609992  43.8774990  28.7599997 137.0599992  42.7724990  27.7309997
 136.7011933  43.2673380  28.3493477 137.9299992  50.9924990  31.5089997
 137.9249992  51.8714990  31.1309997 137.0769992  50.9084990  31.9339997
 137.8139199  51.1015901  31.5146942 134.0519992  50.6634990  22.2909997
 133.7799992  50.8924990  21.4019997 134.0969992  51.5004990  22.7519997
 134.0208360  50.8081034  22.2316186  79.2589992  47.1204990  87.7489997
  79.2999992  46.4954990  88.4729997  79.9619992  47.7444990  87.9309997
  79.3596054  47.1193262  87.8726311 138.2979992  48.3354990  25.2219997
 137.9679992  47.9644990  24.4039997 138.8859992  47.6644990  25.5689997
 138.3323182  48.1940648  25.1569898 138.6649992  47.1034990  28.8549997
 139.2299992  47.2254990  28.0929997 138.9829992  47.7414990  29.4939997
 138.7853619  47.2064388  28.8370019 139.5449992  51.5034990  33.5729997
 139.2329992  52.2854990  34.0279997 138.8949992  51.3504990  32.8869997
 139.4144858  51.5897882  33.5425344 136.4649992  47.7014990  32.8009997
 136.5349992  48.3524990  33.4999997 135.5739992  47.8044990  32.4659997
 136.3541690  47.8044261  32.8513026 137.7839992  53.5744990  34.3359997
 137.7919992  53.4384990  33.3889997 136.8679992  53.4574990  34.5879997
 137.6612528  53.5400475  34.2403226 137.2879992  47.4044990  22.8109997
 136.9959992  48.1724990  22.3199997 136.6139992  46.7454990  22.6479997
 137.1568843  47.4204537  22.7217695 133.3809992  49.7674990  31.6259997
 132.8799992  49.7394990  30.8109997 133.3869992  48.8624990  31.9359997
 133.3131690  49.6412234  31.5562770 133.1319992  52.5484990  28.5099997
 134.0779992  52.4034990  28.4909997 133.0189992  53.3324990  29.0469997
 133.2463578  52.6346708  28.5800300 136.3759992  55.3494990  24.6559997
 136.5279992  55.0014990  25.5339997 135.5249992  54.9924990  24.3999997
 136.2818344  55.2535891  24.7416851 135.6299992  51.0914990  32.6689997
 135.8459992  50.7294990  33.5289997 134.7749992  50.7164990  32.4599997
 135.5439082  50.9913377  32.7582396  90.5969992  50.4454990  84.4579997
  90.1559992  49.7254990  84.9079997  90.5839992  51.1664990  85.0879997
  90.5348398  50.4443187  84.6047734 138.2489992  39.5614990  28.6649997
 137.3869992  39.4744990  28.2569997 138.2269992  40.4174990  29.0929997
 138.1280557  39.6653078  28.6670202 138.3399992  44.5264990  29.7599997
 137.6979992  44.4864990  30.4689997 138.3769992  45.4534990  29.5219997
 138.2571659  44.6462540  29.8248463 138.3369992  44.7474990  24.6719997
 137.4439992  44.4074990  24.6129997 138.7879992  44.3704990  23.9159997
 138.2757185  44.6500220  24.5617698 136.0899992  44.8474990  31.6269997
 136.0519992  45.2474990  32.4959997 135.5989992  44.0304990  31.7169997
 136.0184374  44.7918228  31.7580980 139.4559992  42.2214990  18.4259997
 139.0249992  41.7764990  19.1549997 138.7379992  42.5924990  17.9129997
 139.2999176  42.2107063  18.4564913 132.6979992  41.9634990  25.4779997
 133.3289992  41.9344990  26.1969997 133.1479992  41.5384990  24.7469997
 132.8451082  41.9021269  25.4776307 133.9719992  42.7094990  20.9019997
 134.4469992  43.3004990  20.3169997 133.2549992  43.2394990  21.2489997
 133.9400406  42.8621011  20.8688495 135.7469992  43.8044990  24.5849997
 134.8579992  43.9034990  24.2449997 136.0429992  42.9624990  24.2389997
 135.6654001  43.7042473  24.4917318 139.3999992  43.8044990  22.2419997
 140.3319992  43.9334990  22.4199997 139.1849992  44.4734990  21.5919997
 139.4984472  43.9125817  22.1784873 138.0739992  44.9984990  19.8079997
 137.5319992  44.6194990  19.1169997 138.9079992  45.1934990  19.3799997
 138.1124390  44.9729091  19.6554374  80.1829992  51.5704990  86.2839997
  79.8129992  50.7684990  85.9149997  81.1239992  51.4024990  86.3309997
  80.2595630  51.4378680  86.2397873 136.2089992  49.5554990  34.9069997
 136.9409992  49.8104990  35.4689997 135.4289992  49.7604990  35.4229997
 136.2036526  49.6180438  35.0535168 137.2409992  41.0994990  24.0639997
 136.9229992  40.1964990  24.0279997 138.0219992  41.1014990  23.5109997
 137.3031079  40.9762240  23.9842908 136.5339992  48.8594990  27.5139997
 137.2789992  48.8564990  26.9119997 136.6119992  48.0354990  27.9949997
 136.6463365  48.7477395  27.4967412 133.5419992  47.3194990  32.8289997
 133.7649992  46.9014990  33.6599997 132.9399992  46.7074990  32.4059997
 133.4911513  47.1794617  32.8856722 138.9089992  52.3774990  24.9179997
 139.4359992  53.1504990  24.7179997 138.0289992  52.6014990  24.6159997
 138.8622121  52.5137344  24.8497460 134.6639992  47.2394990  19.5049997
 135.2799992  47.8664990  19.8849997 133.8019992  47.5554990  19.7769997
 134.6317678  47.3679423  19.5937192 139.0189992  55.0614990  24.0399997
 138.0699992  55.1674990  24.0909997 139.3709992  55.8824990  24.3839997
 138.9365647  55.1870029  24.0934882 135.1759992  42.0734990  32.3869997
 134.2829992  42.4114990  32.3189997 135.0769992  41.2174990  32.8049997
 135.0404752  42.0040986  32.4341644 134.8269992  53.8774990  30.8219997
 135.0439992  52.9454990  30.7909997 135.0739992  54.1524990  31.7049997
 134.8900948  53.7870976  30.9371268 136.0789992  49.1514990  20.9979997
 135.3929992  49.5044990  21.5649997 136.6019992  49.9144990  20.7509997
 136.0558402  49.3028912  21.0421783  76.7929992  45.2304990  81.6769997
  76.3449992  46.0764990  81.6589997  76.2319992  44.6514990  81.1619997
  76.6558546  45.2679004  81.6048874 138.4359992  41.3384990  20.8339997
 138.3529992  42.2264990  21.1809997 139.3259992  41.0734990  21.0659997
 138.5449331  41.4241177  20.9128067 136.6949992  51.7654990  19.8939997
 137.2869992  52.4654990  20.1709997 137.1539992  51.3324990  19.1749997
 136.8381652  51.8027686  19.8346515 135.0109992  44.4304990  19.0099997
 134.9659992  45.3694990  19.1889997 134.1229992  44.1944990  18.7409997
 134.8848166  44.5271698  18.9981507 135.8189992  39.2114990  27.6829997
 135.5899992  39.2704990  26.7559997 135.3759992  38.4204990  27.9899997
 135.7277387  39.1126412  27.5975223 134.7489992  53.1524990  23.8439997
 133.9169992  53.6244990  23.8709997 135.2949992  53.6624990  23.2449997
 134.7088710  53.2860317  23.7667570 138.2859992  49.9184990  18.2609997
 138.3499992  49.1244990  18.7909997 138.9389992  49.8004990  17.5709997
 138.3830483  49.7937496  18.2403407 134.7769992  46.7754990  35.5479997
 135.1849992  45.9184990  35.4269997 134.5169992  46.7894990  36.4689997
 134.7977082  46.6600596  35.6559469 139.4349992  47.8914990  20.5669997
 138.9759992  47.4074990  21.2519997 139.6899992  47.2224990  19.9309997
 139.4065997  47.7348491  20.5748734 138.7239992  45.7844990  32.9229997
 138.1059992  46.4584990  33.2029997 139.0679992  46.1054990  32.0889997
 138.6858078  45.9202298  32.8486609 139.0639992  43.1394990  34.0049997
 139.2139992  42.4104990  33.4029997 139.0659992  43.9164990  33.4459997
 139.0847967  43.1447720  33.8470523  77.5029992  47.3924990  83.8029997
  77.7169992  46.6224990  84.3299997  78.2409992  47.4824990  83.1999997
  77.6320073  47.2993546  83.7935786 139.4759992  41.5084990  31.4979997
 140.0119992  41.9604990  30.8459997 138.6239992  41.4004990  31.0749997
 139.4341795  41.5557444  31.3516211 133.9719992  51.4614990  19.3129997
 134.8859992  51.5404990  19.5859997 133.9789992  50.7744990  18.6469997
 134.0980624  51.3794074  19.2603045 132.6209992  56.8544990  24.3899997
 131.9739992  56.3924990  23.8579997 132.9759992  56.1824990  24.9729997
 132.5803741  56.7004785  24.3959157 133.4909992  54.9344990  26.1949997
 133.1569992  54.0544990  26.3669997 133.7129992  55.2804990  27.0599997
 133.4752565  54.8607410  26.3354263 133.5709992  48.0104990  28.6469997
 133.7549992  47.9284990  27.7109997 134.4199992  47.8864990  29.0699997
 133.7110132  47.9825066  28.5761460 133.1679992  43.2804990  34.7869997
 134.0879992  43.1584990  35.0239997 132.7189992  42.5304990  35.1769997
 133.2330500  43.1624576  34.8721016 134.3899992  41.5934990  27.6789997
 134.8349992  40.8014990  27.9809997 134.8559992  42.3094990  28.1089997
 134.5139718  41.5819546  27.7785247 132.6939992  44.5924990  28.7479997
 133.1859992  44.3714990  27.9569997 133.0559992  45.4324990  29.0289997
 132.8102923  44.6758480  28.6777389 133.0069992  40.8504990  22.8019997
 132.0819992  41.0584990  22.6729997 133.4609992  41.3344990  22.1119997
 132.9416298  40.9444311  22.6910433 132.9709992  39.5884990  31.1459997
 132.3059992  39.3424990  31.7889997 132.5279992  40.2104990  30.5689997
 132.8201168  39.6389225  31.1559830  87.7079992  55.5494990  84.6699997
  88.3279992  54.8734990  84.3969997  87.4999992  55.3314990  85.5779997
  87.7647360  55.4274792  84.7554387 138.1169992  53.7374990  31.5489997
 137.6919992  54.5474990  31.2669997 139.0209992  53.8234990  31.2469997
 138.1810706  53.8599557  31.4695836 135.5189992  56.9944990  31.5969997
 134.7979992  57.4344990  31.1459997 135.1529992  56.7434990  32.4449997
 135.3709632  57.0207235  31.6499649 137.9859992  56.5944990  30.6259997
 137.1209992  56.6664990  31.0299997 137.9309992  57.1414990  29.8429997
 137.8602289  56.6783242  30.5753749 134.9339992  55.6174990  28.5069997
 134.9149992  55.1914990  29.3639997 135.7379992  55.2984990  28.0979997
 135.0401393  55.5160297  28.5690155 137.0749992  54.3274990  27.1619997
 136.8559992  53.4104990  27.3319997 137.8989992  54.4674990  27.6279997
 137.1564702  54.2210523  27.2482510 135.4469992  39.0954990  24.9769997
 134.6699992  38.8604990  24.4699997 135.9779992  38.2984990  24.9859997
 135.4123735  38.9556462  24.9088090 134.2839992  38.8934990  20.7809997
 134.7229992  39.5044990  20.1889997 133.6499992  39.4314990  21.2549997
 134.2583859  39.0499076  20.7640287 134.1849992  54.8414990  21.6779997
 133.4999992  54.8034990  21.0109997 134.1879992  55.7534990  21.9659997
 134.0916806  54.9596669  21.6256961 136.1449992  40.8094990  19.2229997
 136.6359992  40.1794990  18.6959997 136.7679992  41.1054990  19.8859997
 136.2965304  40.7632387  19.2404922 135.4049992  39.6094990  34.4949997
 135.0389992  38.8434990  34.9369997 136.3179992  39.6384990  34.7809997
 135.4783172  39.5085335  34.5941872  85.2799992  49.9384990  86.5619997
  85.5839992  49.2524990  85.9679997  86.0019992  50.0574990  87.1799997
  85.4191152  49.8607201  86.5642106 136.0029992  55.7614990  18.7029997
 135.7349992  56.0474990  19.5769997 136.7739992  55.2154990  18.8559997
 136.0705926  55.7267790  18.8431188  12.5339992  67.1074990  24.9359997
  12.6229992  68.0514990  24.8029997  11.8949992  66.8324990  24.2779997
  12.4598378  67.1993846  24.8289258  11.4669992  66.3624990  28.3549997
  11.4279992  65.7164990  29.0599997  11.1439992  65.8954990  27.5829997
  11.4180469  66.2110005  28.3472803   3.8349992  65.9764990  29.9479997
   3.8759992  65.3514990  30.6709997   4.5379992  66.6004990  30.1299997
   3.9356223  65.9752318  30.0716164  15.1729992  69.3014990  26.6559997
  14.7319992  68.5814990  27.1069997  15.1599992  70.0224990  27.2859997
  15.1109215  69.3004303  26.8028088   4.7589992  70.4264990  28.4829997
   4.3889992  69.6244990  28.1129997   5.6999992  70.2584990  28.5289997
   4.8355984  70.2939649  28.4385586   1.3689992  64.0864990  23.8749997
   0.9209992  64.9324990  23.8569997   0.8079992  63.5074990  23.3599997
   1.2318546  64.1239004  23.8028874   2.0789992  66.2484990  26.0009997
   2.2929992  65.4784990  26.5279997   2.8169992  66.3384990  25.3979997
   2.2080073  66.1553546  25.9915786  12.2839992  74.4054990  26.8679997
  12.9039992  73.7294990  26.5949997  12.0759992  74.1874990  27.7769997
  12.3407679  74.2835032  26.9534518   9.8559992  68.7944990  28.7609997
  10.1599992  68.1084990  28.1659997  10.5779992  68.9134990  29.3789997
   9.9951240  68.7167325  28.7630941  93.9429992  41.5404990  87.4229997
  93.9919992  42.1504990  88.1589997  94.3689992  42.0014990  86.6999997
  94.0072851  41.6863266  87.4260532  18.5189992  60.3964990  29.6209997
  18.5679992  61.0064990  30.3569997  18.9449992  60.8574990  28.8979997
  18.5832851  60.5423266  29.6240532  12.9969992  63.1884990  29.0879997
  13.1389992  62.2424990  29.1079997  12.8909992  63.3954990  28.1599997
  13.0021051  63.0869706  28.9652249   6.1519992  61.2904990  26.3609997
   6.1949992  62.1504990  25.9419997   5.6939992  60.7374990  25.7269997
   6.0960163  61.3334174  26.2180604  13.8739992  61.4214990  24.7609997
  14.5199992  61.0924990  25.3859997  14.3839992  61.9384990  24.1389997
  14.0314289  61.4464333  24.7623681   2.7719992  63.6874990  27.1229997
   3.4259992  63.1374990  27.5549997   2.7959992  63.4134990  26.2059997
   2.8647199  63.5752178  27.0581650   7.9279992  65.2374990  26.3379997
   8.5439992  64.7104990  26.8469997   7.3419992  64.5974990  25.9339997
   7.9330652  65.0788919  26.3530277  18.9109992  61.8744990  31.8569997
  18.2219992  62.5324990  31.7619997  18.9259992  61.6764990  32.7939997
  18.8187756  61.9377614  31.9705795   4.9619992  60.2084990  30.4349997
   4.7429992  60.7384990  29.6679997   4.2939992  60.4344990  31.0819997
   4.8416975  60.3115979  30.4175123  12.3309992  69.7084990  23.9789997
  12.0349992  69.3854990  23.1269997  12.0069992  70.6084990  24.0199997
  12.2467458  69.7859678  23.8680598   7.5309992  67.8834990  30.7219997
   6.7909992  68.4824990  30.8259997   8.2449992  68.4374990  30.4059997
   7.5263146  68.0402611  30.6935150  88.4209992  44.3324990  86.8899997
  88.5629992  43.3864990  86.9099997  88.3149992  44.5394990  85.9609997
  88.4261158  44.2309722  86.7672241  15.6379992  60.7124990  26.7419997
  15.4229992  59.9464990  27.2749997  16.2939992  61.1844990  27.2549997
  15.6972673  60.6715739  26.8841972   4.5559992  62.1004990  28.3869997
   5.1689992  62.7334990  28.7599997   5.0679992  61.6284990  27.7309997
   4.7091933  62.1233380  28.3493477   5.9379992  69.8484990  31.5089997
   5.9329992  70.7274990  31.1309997   5.0849992  69.7644990  31.9339997
   5.8219199  69.9575901  31.5146942   2.0599992  69.5194990  22.2909997
   1.7879992  69.7484990  21.4019997   2.1049992  70.3564990  22.7519997
   2.0288360  69.6641034  22.2316186  15.6849992  71.1404990  29.0039997
  14.7429992  71.1994990  29.1659997  15.9609992  72.0464990  28.8669997
  15.5935865  71.2710299  29.0076174  15.9849992  59.4274990  30.4209997
  15.2489992  60.0374990  30.3839997  16.6689992  59.8424990  29.8949997
  15.9765367  59.5672562  30.3448156   8.9879992  57.5134990  27.8869997
   8.8709992  56.5654990  27.8329997   8.1329992  57.8464990  28.1599997
   8.8563691  57.4285842  27.9165072  13.9369992  72.9214990  25.6289997
  14.3619992  72.2144990  25.1439997  14.2539992  73.7234990  25.2119997
  14.0380266  72.9330201  25.5062461  15.0959992  70.8224990  24.1379997
  14.8389992  70.1324990  23.5259997  15.1669992  70.3794990  24.9829997
  15.0704322  70.6681568  24.1685372  16.7819992  69.3894990  32.6149997
  16.9219992  68.7974990  31.8759997  16.9499992  70.2624990  32.2589997
  16.8238734  69.4264041  32.4656937  81.5759992  42.4344990  84.1619997
  81.6189992  43.2944990  83.7439997  81.1179992  41.8814990  83.5289997
  81.5199613  42.4775689  84.0191276  11.2549992  66.3514990  22.3879997
  10.5429992  66.8864990  22.0359997  11.9459992  66.4064990  21.7279997
  11.2509704  66.4321663  22.2505797  11.3089992  64.8084990  19.4259997
  12.0099992  64.8314990  20.0779997  11.6109992  64.1804990  18.7699997
  11.4458202  64.7267223  19.4265591  18.6239992  65.7294990  30.6809997
  17.9719992  66.4234990  30.7699997  19.0889992  65.9394990  29.8709997
  18.5975357  65.8529544  30.5837056  14.6609992  66.5604990  23.3389997
  13.9289992  66.7894990  23.9119997  15.1079992  65.8474990  23.7939997
  14.6212753  66.4953984  23.4789698  14.5579992  64.7354990  32.4069997
  14.6379992  65.4984990  32.9789997  13.9569992  65.0144990  31.7169997
  14.4876547  64.8777468  32.3920029   6.3059992  67.1914990  25.2219997
   5.9759992  66.8204990  24.4039997   6.8939992  66.5204990  25.5689997
   6.3403182  67.0500648  25.1569898   7.6729992  70.6194990  27.9029997
   7.5779992  70.0404990  27.1469997   8.4019992  70.2484990  28.3989997
   7.7586011  70.4900572  27.8666011   6.6729992  65.9594990  28.8549997
   7.2379992  66.0814990  28.0929997   6.9909992  66.5974990  29.4939997
   6.7933619  66.0624388  28.8370019  12.9819992  71.4634990  29.5889997
  12.7409992  72.1254990  30.2369997  12.7839992  70.6284990  30.0139997
  12.9222662  71.4412704  29.7351008   7.5529992  70.3594990  33.5729997
   7.2409992  71.1414990  34.0279997   6.9029992  70.2064990  32.8869997
   7.4224858  70.4457882  33.5425344  89.2979992  42.5654990  82.5629997
  89.9439992  42.2364990  83.1879997  89.8079992  43.0824990  81.9399997
  89.4554392  42.5903710  82.5643248  13.5319992  65.7234990  21.0249997
  14.1109992  65.8734990  21.7709997  13.9459992  66.1934990  20.3009997
  13.6673358  65.8075966  21.0293935   4.4729992  66.5574990  32.8009997
   4.5429992  67.2084990  33.4999997   3.5819992  66.6604990  32.4659997
   4.3621690  66.6604261  32.8513026  11.2579992  72.4594990  24.4599997
  11.7319992  72.7554990  25.2369997  10.6949992  73.1984990  24.2269997
  11.2467890  72.5998047  24.5348084   5.7919992  72.4304990  34.3359997
   5.7999992  72.2944990  33.3889997   4.8759992  72.3134990  34.5879997
   5.6692528  72.3960475  34.2403226  17.2299992  57.4734990  20.8369997
  16.3299992  57.6114990  21.1329997  17.4819992  58.3044990  20.4359997
  17.1407727  57.6048705  20.8232935   5.2959992  66.2604990  22.8109997
   5.0039992  67.0284990  22.3199997   4.6219992  65.6014990  22.6479997
   5.1648843  66.2764537  22.7217695  18.4199992  71.8394990  19.2139997
  18.4929992  72.7784990  19.3839997  19.3249992  71.5344990  19.1579997
  18.5524170  71.9268294  19.2297045   1.3889992  68.6234990  31.6259997
   0.8879992  68.5954990  30.8109997   1.3949992  67.7184990  31.9359997
   1.3211690  68.4972234  31.5562770   1.1399992  71.4044990  28.5099997
   2.0859992  71.2594990  28.4909997   1.0269992  72.1884990  29.0469997
   1.2543578  71.4906708  28.5800300  19.3369992  72.0704990  34.1929997
  19.2879992  71.1144990  34.1549997  18.5109992  72.3374990  34.5939997
  19.2185096  71.9758416  34.2420698  78.1959992  44.8314990  84.9239997
  78.8499992  44.2814990  85.3559997  78.2199992  44.5574990  84.0079997
  78.2887022  44.7192005  84.8591698  10.3159992  71.6444990  33.0689997
  10.4029992  72.4704990  33.5439997   9.4519992  71.3144990  33.3179997
  10.2111944  71.7129871  33.1676558  10.7299992  75.4164990  22.8749997
  10.6549992  75.2954990  21.9279997  10.7629992  76.3654990  22.9929997
  10.7242083  75.5282639  22.7614973   4.3839992  74.2054990  24.6559997
   4.5359992  73.8574990  25.5339997   3.5329992  73.8484990  24.3999997
   4.2898344  74.1095891  24.7416851  13.8319992  74.5704990  19.8769997
  14.2069992  73.8264990  19.4059997  13.8359992  74.3004990  20.7949997
  13.8838969  74.4320920  19.9366475  13.5009992  74.4964990  22.6259997
  12.5659992  74.5964990  22.8049997  13.7809992  73.7864990  23.2049997
  13.4109471  74.4142944  22.7286678   3.6379992  69.9474990  32.6689997
   3.8539992  69.5854990  33.5289997   2.7829992  69.5724990  32.4599997
   3.5519082  69.8473377  32.7582396   6.2569992  58.4174990  28.6649997
   5.3949992  58.3304990  28.2569997   6.2349992  59.2734990  29.0929997
   6.1360557  58.5213078  28.6670202  10.9199992  58.1394990  32.0399997
  11.3399992  57.7244990  32.7929997   9.9869992  57.9604990  32.1569997
  10.8513736  58.0584921  32.1588950  14.2459992  61.8944990  32.8929997
  13.7319992  61.7694990  33.6909997  14.0909992  62.8074990  32.6489997
  14.1547802  62.0007433  32.9691504  15.0089992  66.7554990  18.6539997
  15.0509992  66.5334990  17.7239997  15.8579992  67.1544990  18.8439997
  15.1295253  66.7790510  18.5523804  83.3519992  46.3814990  84.1399997
  83.9679992  45.8544990  84.6489997  82.7659992  45.7414990  83.7359997
  83.3570652  46.2228919  84.1550277  10.5819992  60.6314990  19.3249997
  10.3279992  60.6504990  20.2469997  10.3249992  59.7604990  19.0229997
  10.5124508  60.5163292  19.4104786   6.3479992  63.3824990  29.7599997
   5.7059992  63.3424990  30.4689997   6.3849992  64.3094990  29.5219997
   6.2651659  63.5022540  29.8248463   6.3449992  63.6034990  24.6719997
   5.4519992  63.2634990  24.6129997   6.7959992  63.2264990  23.9159997
   6.2837185  63.5060220  24.5617698  11.8809992  64.0194990  23.4889997
  11.4719992  64.8344990  23.1969997  12.6009992  63.8794990  22.8749997
  11.9224439  64.1120383  23.3660098  12.8849992  63.4654990  26.3029997
  12.6899992  64.0714990  25.5879997  13.0669992  62.6324990  25.8689997
  12.8829195  63.4357936  26.1464079   4.0979992  63.7034990  31.6269997
   4.0599992  64.1034990  32.4959997   3.6069992  62.8864990  31.7169997
   4.0264373  63.6478228  31.7580980   7.4639992  61.0774990  18.4259997
   7.0329992  60.6324990  19.1549997   6.7459992  61.4484990  17.9129997
   7.3079176  61.0667063  18.4564913   0.7059992  60.8194990  25.4779997
   1.3369992  60.7904990  26.1969997   1.1559992  60.3944990  24.7469997
   0.8531082  60.7581269  25.4776307   1.9799992  61.5654990  20.9019997
   2.4549992  62.1564990  20.3169997   1.2629992  62.0954990  21.2489997
   1.9480406  61.7181011  20.8688495  12.1489992  65.1034990  30.9739997
  12.4729992  64.4724990  30.3309997  11.7089992  64.5694990  31.6349997
  12.1338707  64.9448261  30.9753195  94.3349992  43.0184990  89.6589997
  93.6459992  43.6764990  89.5639997  94.3499992  42.8204990  90.5959997
  94.2427756  43.0817614  89.7725795   8.9269992  61.0314990  25.7579997
   8.0159992  61.0884990  26.0469997   9.4319992  60.9714990  26.5689997
   8.8706873  61.0311838  25.9071190   3.7549992  62.6604990  24.5849997
   2.8659992  62.7594990  24.2449997   4.0509992  61.8184990  24.2389997
   3.6734001  62.5602473  24.4917318   7.4079992  62.6604990  22.2419997
   8.3399992  62.7894990  22.4199997   7.1929992  63.3294990  21.5919997
   7.5064472  62.7685817  22.1784873  13.3319992  60.2664990  29.0219997
  12.6549992  60.3974990  29.6859997  12.8459992  60.1114990  28.2119997
  13.1737265  60.2634665  29.0033380   6.0819992  63.8544990  19.8079997
   5.5399992  63.4754990  19.1169997   6.9159992  64.0494990  19.3799997
   6.1204390  63.8289091  19.6554374  10.2469992  63.8184990  27.6449997
  10.8109992  63.2724990  27.0979997  10.0989992  63.2974990  28.4339997
  10.3043037  63.6731798  27.6767212   5.2489992  59.9554990  24.0639997
   4.9309992  59.0524990  24.0279997   6.0299992  59.9574990  23.5109997
   5.3111079  59.8322240  23.9842908   8.8729992  62.2074990  30.0589997
   8.0379992  62.6614990  30.1699997   9.3969992  62.4834990  30.8109997
   8.8296072  62.3068960  30.1758118   9.4169992  68.4204990  21.7439997
   8.6719992  67.9124990  21.4219997   9.2829992  68.4694990  22.6899997
   9.2969334  68.3576144  21.8278892  16.5669992  67.5534990  30.5309997
  17.2089992  68.0094990  29.9869997  15.7369992  67.6664990  30.0679997
  16.5426536  67.6311813  30.3939579  80.3859992  41.3524990  88.2359997
  80.1669992  41.8824990  87.4699997  79.7179992  41.5784990  88.8839997
  80.2657271  41.4556508  88.2186206  13.3149992  61.2344990  19.9429997
  12.3759992  61.3454990  19.7919997  13.6119992  62.0904990  20.2499997
  13.2266136  61.3654977  19.9638568  10.9369992  68.6044990  32.9809997
  10.5909992  68.2224990  33.7879997  10.7369992  69.5374990  33.0519997
  10.8625987  68.6784013  33.1010443  14.0329992  63.1014990  21.6039997
  14.9249992  62.9634990  21.9229997  14.0899992  63.8924990  21.0669997
  14.1627380  63.1894777  21.5750981   4.5419992  67.7154990  27.5139997
   5.2869992  67.7124990  26.9119997   4.6199992  66.8914990  27.9949997
   4.6543365  67.6037395  27.4967412  11.5429992  69.8784990  20.7689997
  11.2479992  70.7054990  21.1509997  10.8399992  69.2594990  20.9659997
  11.4076379  69.9079182  20.8478636  13.1869992  71.0664990  32.9309997
  12.2859992  71.2494990  32.6639997  13.2209992  71.3254990  33.8519997
  13.0683861  71.1265245  33.0189517  18.9179992  63.3104990  21.2989997
  18.3639992  62.9144990  20.6259997  19.0189992  64.2214990  21.0209997
  18.8558589  63.3793904  21.1693839  17.2129992  72.0964990  21.7639997
  16.8409992  71.2714990  22.0729997  17.4909992  71.9134990  20.8659997
  17.1995807  71.9587031  21.6850063  14.3739992  66.9044990  28.7849997
  13.4459992  66.6734990  28.7579997  14.8249992  66.1274990  28.4549997
  14.3078165  66.7677785  28.7366772   6.9169992  71.2334990  24.9179997
   7.4439992  72.0064990  24.7179997   6.0369992  71.4574990  24.6159997
   6.8702121  71.3697344  24.8497460  87.7549992  50.8524990  81.7799997
  87.4589992  50.5294990  80.9289997  87.4309992  51.7524990  81.8219997
  87.6706501  50.9299058  81.6690893   2.6719992  66.0954990  19.5049997
   3.2879992  66.7224990  19.8849997   1.8099992  66.4114990  19.7769997
   2.6397678  66.2239423  19.5937192   8.3439992  68.8964990  24.4939997
   8.1029992  69.8214990  24.5359997   7.6039992  68.4374990  24.8909997
   8.2109463  68.9610969  24.5534279   8.8589992  73.0454990  30.8089997
   9.2219992  73.8994990  30.5759997   9.3909992  72.7534990  31.5499997
   8.9805141  73.1228907  30.8772079   7.0269992  73.9174990  24.0399997
   6.0779992  74.0234990  24.0909997   7.3789992  74.7384990  24.3839997
   6.9445647  74.0430029  24.0934883  12.4029992  69.1444990  30.5099997
  11.9769992  68.9164990  31.3359997  12.9839992  68.4054990  30.3279997
  12.4232088  69.0134393  30.5984454  14.6059992  70.0734990  19.5839997
  14.9589992  69.6934990  20.3879997  13.6569992  69.9794990  19.6709997
  14.5260956  70.0087867  19.7058005  19.1089992  74.5524990  19.7849997
  19.8529992  75.1384990  19.6449997  18.4149992  75.1214990  20.1179997
  19.1169809  74.7095830  19.8108572   3.1839992  60.9294990  32.3869997
   2.2909992  61.2674990  32.3189997   3.0849992  60.0734990  32.8049997
   3.0484752  60.8600986  32.4341644  15.4719992  68.7454990  21.8109997
  15.1949992  68.0174990  22.3669997  16.3989992  68.8644990  22.0159997
  15.5594419  68.6619436  21.9148264   2.8349992  72.7334990  30.8219997
   3.0519992  71.8014990  30.7909997   3.0819992  73.0084990  31.7049997
   2.8980948  72.6430976  30.9371268  82.9549992  49.0274990  88.5239997
  82.2149992  49.6264990  88.6269997  83.6689992  49.5814990  88.2079997
  82.9503288  49.1842368  88.4953787   8.6969992  71.1854990  18.0309997
   8.9359992  70.4364990  17.4839997   8.4279992  70.7974990  18.8639997
   8.6933233  71.0306865  18.0687791   7.6339992  70.7554990  20.4869997
   7.7809992  70.2354990  21.2769997   7.6309992  71.6624990  20.7939997
   7.6537102  70.8068964  20.6365907   4.0869992  68.0074990  20.9979997
   3.4009992  68.3604990  21.5649997   4.6099992  68.7704990  20.7509997
   4.0638402  68.1588912  21.0421783  11.9179992  60.6704990  31.2769997
  12.6169992  60.7444990  31.9269997  11.5379992  59.8054990  31.4309997
  11.9622662  60.5637050  31.3867412  12.7029992  60.3224990  22.3739997
  12.9229992  60.7934990  21.5699997  13.2609992  60.7164990  23.0439997
  12.8086044  60.4402946  22.3545207  10.3719992  72.4524990  21.2369997
   9.5549992  72.9494990  21.2889997  10.9009992  72.9284990  20.5959997
  10.3318125  72.5847000  21.1575289   9.9029992  62.0504990  23.2089997
  10.7149992  62.5544990  23.2549997   9.6579992  61.9054990  24.1229997
   9.9811091  62.0999366  23.3388552  10.4389992  63.0364990  32.3929997
  10.5579992  63.6104990  33.1499997  11.0939992  62.3484990  32.5079997
  10.5438684  63.0220205  32.5121656  10.7869992  59.1314990  24.1469997
  10.4399992  59.7484990  24.7909997  11.4449992  59.6324990  23.6649997
  10.8284430  59.2836860  24.1700046   7.7099992  73.4964990  21.2179997
   7.8709992  74.2964990  20.7179997   7.5129992  73.8034990  22.1029997
   7.7053906  73.6473690  21.2692316  91.0619992  41.8564990  84.5439997
  90.8469992  41.0904990  85.0759997  91.7179992  42.3284990  85.0569997
  91.1212451  41.8154472  84.6861699   6.4439992  60.1944990  20.8339997
   6.3609992  61.0824990  21.1809997   7.3339992  59.9294990  21.0659997
   6.5529331  60.2801177  20.9128067  16.6429992  60.9434990  33.2279997
  15.7269992  61.2054990  33.1409997  16.9789992  60.9404990  32.3319997
  16.5628499  60.9790174  33.0948748  15.2449992  64.6934990  27.3239997
  14.4479992  64.2784990  26.9959997  15.6899992  64.0034990  27.8149997
  15.1960367  64.5433372  27.3454897   4.7029992  70.6214990  19.8939997
   5.2949992  71.3214990  20.1709997   5.1619992  70.1884990  19.1749997
   4.8461652  70.6587686  19.8346515   3.0189992  63.2864990  19.0099997
   2.9739992  64.2254990  19.1889997   2.1309992  63.0504990  18.7409997
   2.8928166  63.3831698  18.9981507  16.3319992  73.9494990  28.9459997
  16.1759992  74.6284990  28.2889997  17.2639992  74.0214990  29.1489997
  16.4367328  74.0521586  28.8835529   3.8269992  58.0674990  27.6829997
   3.5979992  58.1264990  26.7559997   3.3839992  57.2764990  27.9899997
   3.7357387  57.9686412  27.5975223   2.7569992  72.0084990  23.8439997
   1.9249992  72.4804990  23.8709997   3.3029992  72.5184990  23.2449997
   2.7168710  72.1420317  23.7667570  10.7349992  73.0484990  18.1689997
  10.0909992  72.4174990  18.4909997  11.4969992  72.5174990  17.9379997
  10.7498708  72.8903171  18.1818461  13.2199992  71.9204990  35.5229997
  12.8689992  71.0634990  35.7659997  13.9459992  72.0624990  36.1299997
  13.2701590  71.8225189  35.6382889  79.9799992  43.2444990  86.1889997
  80.5929992  43.8774990  86.5619997  80.4919992  42.7724990  85.5319997
  80.1331680  43.2674006  86.1512830  15.3389992  72.8654990  18.4029997
  15.6219992  72.0704990  18.8559997  16.0789992  73.0984990  17.8419997
  15.4777295  72.7882349  18.3891469   6.2939992  68.7744990  18.2609997
   6.3579992  67.9804990  18.7909997   6.9469992  68.6564990  17.5709997
   6.3910483  68.6497496  18.2403407  11.6459992  69.8214990  17.9969997
  11.3779992  70.0024990  18.8969997  11.4399992  68.8964990  17.8649997
  11.5813443  69.7211873  18.1026643  14.3429992  68.3164990  32.9439997
  15.0879992  68.9054990  32.8249997  13.5849992  68.8984990  33.0069997
  14.3425289  68.4757067  32.9362292   7.4429992  66.7474990  20.5669997
   6.9839992  66.2634990  21.2519997   7.6979992  66.0784990  19.9309997
   7.4145997  66.5908491  20.5748734   6.7319992  64.6404990  32.9229997
   6.1139992  65.3144990  33.2029997   7.0759992  64.9614990  32.0889997
   6.6938078  64.7762298  32.8486609   8.5139992  64.9904990  18.8289997
   8.3339992  64.8354990  17.9019997   9.4639992  65.0984990  18.8739997
   8.6177804  64.9838821  18.7081966  17.9039992  67.3444990  18.2749997
  17.6309992  66.9204990  17.4619997  17.9439992  68.2764990  18.0579997
  17.8720201  67.4123523  18.1343548   7.4839992  60.3644990  31.4979997
   8.0199992  60.8164990  30.8459997   6.6319992  60.2564990  31.0749997
   7.4421795  60.4117444  31.3516211   9.0659992  65.8044990  31.7369997
   9.8169992  65.6484990  31.1639997   8.7269992  66.6564990  31.4619997
   9.1229587  65.8983149  31.6214060  81.3619992  50.9924990  89.3109997
  81.3569992  51.8714990  88.9329997  80.5089992  50.9084990  89.7359997
  81.2459199  51.1015901  89.3166942   8.2899992  57.8214990  31.9289997
   8.1919992  58.7674990  31.8239997   7.5469992  57.4484990  31.4529997
   8.1762123  57.9006811  31.8503204   3.7309992  61.1134990  35.6209997
   3.9419992  60.4074990  35.0109997   3.6189992  60.6764990  36.4649997
   3.7447668  60.9576619  35.6515445   8.4119992  75.6804990  19.8299997
   9.3449992  75.8384990  19.9739997   8.1469992  76.3564990  19.2049997
   8.5039846  75.7934567  19.7652930   1.9799992  70.3174990  19.3129997
   2.8939992  70.3964990  19.5859997   1.9869992  69.6304990  18.6469997
   2.1060624  70.2354074  19.2603045   0.6289992  75.7104990  24.3899997
  -0.0180008  75.2484990  23.8579997   0.9839992  75.0384990  24.9729997
   0.5883741  75.5564785  24.3959157   1.4989992  73.7904990  26.1949997
   1.1649992  72.9104990  26.3669997   1.7209992  74.1364990  27.0599997
   1.4832565  73.7167410  26.3354263  19.0479992  74.6004990  29.1759997
  19.0259992  74.7854990  30.1139997  19.7379992  75.1684990  28.8349997
  19.1383383  74.7027104  29.2584580  18.3629992  68.2134990  22.2499997
  19.2129992  68.6344990  22.3769997  18.3679992  67.4734990  22.8569997
  18.4801143  68.1711106  22.3494732  18.7569992  66.2674990  24.0729997
  18.0309992  65.7874990  24.4709997  19.3379992  66.4724990  24.8049997
  18.7362504  66.2295592  24.2264199  18.5159992  69.0524990  29.0209997
  19.3499992  68.6744990  28.7399997  18.6279992  69.9954990  28.9019997
  18.6451917  69.1282954  28.9664844  77.4839992  50.6634990  80.0929997
  77.2119992  50.8924990  79.2039997  77.5289992  51.5004990  80.5529997
  77.4528709  50.8081069  80.0336089  17.0019992  71.9304990  31.3279997
  16.3549992  72.2554990  31.9529997  16.4849992  71.4894990  30.6539997
  16.8434112  71.9154133  31.3225272  19.0249992  66.1684990  20.4639997
  18.5039992  66.5244990  19.7459997  18.9919992  66.8434990  21.1429997
  18.9490955  66.3085023  20.4572634  17.3739992  63.4074990  19.0149997
  17.4709992  64.0744990  18.3349997  17.2339992  62.5924990  18.5339997
  17.3683407  63.3885670  18.8568312  16.5439992  64.7884990  24.6359997
  16.3939992  63.8434990  24.6159997  16.1899992  65.0694990  25.4799997
  16.4756351  64.6971656  24.7473202   1.5789992  66.8664990  28.6469997
   1.7629992  66.7844990  27.7109997   2.4279992  66.7424990  29.0699997
   1.7190132  66.8385066  28.5761460  18.8969992  64.6614990  34.9599997
  18.0329992  64.2824990  34.7939997  19.5009992  63.9224990  34.8849997
  18.8605394  64.5098378  34.9271778  16.6219992  60.8154990  18.1329997
  17.2319992  60.4444990  18.7699997  15.7849992  60.3944990  18.3289997
  16.5923704  60.7077942  18.2467077  16.2539992  62.3704990  23.0989997
  16.5339992  61.4634990  23.2229997  17.0129992  62.8044990  22.7099997
  16.3949258  62.3050935  23.0633691  16.8659992  62.9524990  28.5349997
  17.7989992  63.1644990  28.4999997  16.6309992  63.0534990  29.4569997
  16.9619517  62.9951844  28.6549113  16.8949992  63.6894990  31.3109997
  16.0519992  63.9574990  31.6759997  17.3379992  64.5114990  31.0999997
  16.8394035  63.8373351  31.3324770  91.1089992  52.2844990  86.8059997
  90.1669992  52.3434990  86.9669997  91.3849992  53.1904990  86.6689997
  91.0175771  52.4150270  86.8094827  16.8679992  59.6334990  23.1469997
  17.0499992  59.1844990  23.9719997  16.2679992  59.0494990  22.6829997
  16.8118187  59.4930563  23.1972721   2.3979992  60.4494990  27.6789997
   2.8429992  59.6574990  27.9809997   2.8639992  61.1654990  28.1089997
   2.5219718  60.4379546  27.7785247   0.7019992  63.4484990  28.7479997
   1.1939992  63.2274990  27.9569997   1.0639992  64.2884990  29.0289997
   0.8182923  63.5318480  28.6777389  18.6979992  59.7784990  35.0129997
  17.7809992  60.0494990  34.9769997  18.8209992  59.2434990  34.2289997
  18.5890828  59.7432711  34.9020767  18.7339992  59.7014990  19.6749997
  19.1469992  58.9804990  19.1999997  19.4159992  60.3704990  19.7329997
  18.8826060  59.6933741  19.6179233   1.0149992  59.7064990  22.8019997
   0.0899992  59.9144990  22.6729997   1.4689992  60.1904990  22.1119997
   0.9496298  59.8004311  22.6910433  15.7859992  74.6904990  24.7479997
  16.4379992  74.3424990  24.1399997  16.2969992  75.1784990  25.3939997
  15.9442872  74.7088248  24.7520964   0.9789992  58.4444990  31.1459997
   0.3139992  58.1984990  31.7889997   0.5359992  59.0664990  30.5689997
   0.8281168  58.4949225  31.1559830   6.1249992  72.5934990  31.5489997
   5.6999992  73.4034990  31.2669997   7.0289992  72.6794990  31.2469997
   6.1890706  72.7159557  31.4695836  10.4359992  73.9924990  34.5089997
  10.6209992  73.6594990  35.3869997  11.2829992  74.3024990  34.1869997
  10.5757291  73.9888214  34.5856140  91.4089992  40.5714990  88.2229997
  90.6729992  41.1814990  88.1849997  92.0929992  40.9864990  87.6969997
  91.4005885  40.7111924  88.1466931  12.7809992  75.2784990  33.7529997
  13.4579992  74.6454990  33.5129997  13.1029992  75.6794990  34.5599997
  12.9171618  75.2461147  33.8292802   3.5269992  75.8504990  31.5969997
   2.8059992  76.2904990  31.1459997   3.1609992  75.5994990  32.4449997
   3.3789632  75.8767235  31.6499649   5.9939992  75.4504990  30.6259997
   5.1289992  75.5224990  31.0299997   5.9389992  75.9974990  29.8429997
   5.8682289  75.5343242  30.5753749  10.7049992  75.3384990  29.8019997
  10.2479992  75.8674990  29.1479997  10.8669992  75.9414990  30.5269997
  10.6643919  75.4923990  29.8105740  13.0319992  74.2164990  30.7469997
  12.1279992  74.3814990  30.4809997  13.4609992  75.0694990  30.6809997
  12.9662017  74.3544184  30.7016495  15.6359992  75.7864990  31.0419997
  15.4549992  76.7024990  30.8309997  15.8129992  75.3754990  30.1949997
  15.6351377  75.8563365  30.8987178   2.9419992  74.4734990  28.5069997
   2.9229992  74.0474990  29.3639997   3.7459992  74.1544990  28.0979997
   3.0481393  74.3720297  28.5690155   5.0829992  73.1834990  27.1619997
   4.8639992  72.2664990  27.3319997   5.9069992  73.3234990  27.6279997
   5.1644702  73.0770523  27.2482510   7.6199992  73.6534990  28.0109997
   7.8329992  72.7654990  27.7239997   7.6849992  73.6184990  28.9649997
   7.6579149  73.5273338  28.1007351  11.1289992  59.3174990  27.1549997
  10.4539992  58.6874990  27.4109997  11.6929992  58.8334990  26.5519997
  11.1129363  59.1658886  27.1084810  84.4119992  38.6574990  85.6889997
  84.2949992  37.7094990  85.6349997  83.5569992  38.9904990  85.9619997
  84.2803691  38.5725842  85.7185072  16.2709992  57.4244990  27.2679997
  16.8749992  57.9724990  26.7659997  15.4019992  57.7434990  27.0269997
  16.2360419  57.5425628  27.1667741  17.9979992  58.5634990  25.6009997
  18.6099992  58.0494990  25.0739997  18.3809992  59.4404990  25.6239997
  18.1333867  58.6117613  25.5320888   3.4549992  57.9514990  24.9769997
   2.6779992  57.7164990  24.4699997   3.9859992  57.1544990  24.9859997
   3.4203735  57.8116462  24.9088090   2.2919992  57.7494990  20.7809997
   2.7309992  58.3604990  20.1889997   1.6579992  58.2874990  21.2549997
   2.2663859  57.9059076  20.7640287   8.0349992  57.8774990  24.7899997
   8.9089992  58.2664990  24.7609997   7.8989992  57.6624990  25.7129997
   8.1361953  57.9016654  24.9107599  13.5909992  57.9074990  26.4399997
  13.6679992  58.0034990  25.4899997  13.3159992  57.0004990  26.5679997
  13.5643233  57.7979093  26.3273665  14.9449992  57.9334990  22.1319997
  14.2419992  58.5484990  21.9219997  14.4999992  57.0964990  22.2629997
  14.7886550  57.9044679  22.1209819   2.1929992  73.6974990  21.6779997
   1.5079992  73.6594990  21.0109997   2.1959992  74.6094990  21.9659997
   2.0996806  73.8156669  21.6256961   4.1529992  59.6654990  19.2229997
   4.6439992  59.0354990  18.6959997   4.7759992  59.9614990  19.8859997
   4.3045304  59.6192387  19.2404922   9.1789992  59.9584990  21.6799997
   9.3569992  59.3114990  22.3629997   9.1249992  60.7924990  22.1469997
   9.1960678  59.9826615  21.8366283  89.3609992  54.0654990  83.4309997
  89.7859992  53.3584990  82.9459997  89.6779992  54.8674990  83.0139997
  89.4620266  54.0770201  83.3082461  11.0569992  74.9064990  20.0759997
  11.9229992  75.2734990  19.8979997  10.8099992  74.4674990  19.2619997
  11.1421853  74.8974021  19.9415814  17.7659992  74.4694990  22.7549997
  17.5719992  73.7214990  22.1899997  17.7269992  75.2274990  22.1719997
  17.7341645  74.4695797  22.5988131   4.0109992  74.6174990  18.7029997
   3.7429992  74.9034990  19.5769997   4.7819992  74.0714990  18.8559997
   4.0785926  74.5827790  18.8431188  31.3899992  67.1074990  24.9359997
  31.4789992  68.0514990  24.8029997  30.7509992  66.8324990  24.2779997
  31.3158378  67.1993846  24.8289258  30.3229992  66.3624990  28.3549997
  30.2839992  65.7164990  29.0599997  29.9999992  65.8954990  27.5829997
  30.2740469  66.2110005  28.3472803  22.6909992  65.9764990  29.9479997
  22.7319992  65.3514990  30.6709997  23.3939992  66.6004990  30.1299997
  22.7916223  65.9752318  30.0716164  34.0289992  69.3014990  26.6559997
  33.5879992  68.5814990  27.1069997  34.0159992  70.0224990  27.2859997
  33.9669215  69.3004303  26.8028088  23.6149992  70.4264990  28.4829997
  23.2449992  69.6244990  28.1129997  24.5559992  70.2584990  28.5289997
  23.6915984  70.2939649  28.4385586  20.2249992  64.0864990  23.8749997
  19.7769992  64.9324990  23.8569997  19.6639992  63.5074990  23.3599997
  20.0878546  64.1239004  23.8028874  20.9349992  66.2484990  26.0009997
  21.1489992  65.4784990  26.5279997  21.6729992  66.3384990  25.3979997
  21.0640073  66.1553546  25.9915786  90.5199992  51.9664990  81.9399997
  90.2629992  51.2764990  81.3279997  90.5909992  51.5234990  82.7849997
  90.4944322  51.8121568  81.9705372  31.1399992  74.4054990  26.8679997
  31.7599992  73.7294990  26.5949997  30.9319992  74.1874990  27.7769997
  31.1967679  74.2835032  26.9534518  28.7119992  68.7944990  28.7609997
  29.0159992  68.1084990  28.1659997  29.4339992  68.9134990  29.3789997
  28.8511240  68.7167325  28.7630941  37.3749992  60.3964990  29.6209997
  37.4239992  61.0064990  30.3569997  37.8009992  60.8574990  28.8979997
  37.4392851  60.5423266  29.6240532  31.8529992  63.1884990  29.0879997
  31.9949992  62.2424990  29.1079997  31.7469992  63.3954990  28.1599997
  31.8581051  63.0869706  28.9652249  25.0079992  61.2904990  26.3609997
  25.0509992  62.1504990  25.9419997  24.5499992  60.7374990  25.7269997
  24.9520163  61.3334174  26.2180604  32.7299992  61.4214990  24.7609997
  33.3759992  61.0924990  25.3859997  33.2399992  61.9384990  24.1389997
  32.8874289  61.4464333  24.7623681  21.6279992  63.6874990  27.1229997
  22.2819992  63.1374990  27.5549997  21.6519992  63.4134990  26.2059997
  21.7207199  63.5752178  27.0581650  26.7839992  65.2374990  26.3379997
  27.3999992  64.7104990  26.8469997  26.1979992  64.5974990  25.9339997
  26.7890652  65.0788919  26.3530277  37.7669992  61.8744990  31.8569997
  37.0779992  62.5324990  31.7619997  37.7819992  61.6764990  32.7939997
  37.6747756  61.9377614  31.9705795  23.8179992  60.2084990  30.4349997
  23.5989992  60.7384990  29.6679997  23.1499992  60.4344990  31.0819997
  23.6976975  60.3115979  30.4175123  92.2059992  50.5334990  90.4169997
  92.3459992  49.9414990  89.6779997  92.3739992  51.4064990  90.0609997
  92.2478734  50.5704041  90.2676937  31.1869992  69.7084990  23.9789997
  30.8909992  69.3854990  23.1269997  30.8629992  70.6084990  24.0199997
  31.1027458  69.7859678  23.8680598  26.3869992  67.8834990  30.7219997
  25.6469992  68.4824990  30.8259997  27.1009992  68.4374990  30.4059997
  26.3823146  68.0402611  30.6935150  34.4939992  60.7124990  26.7419997
  34.2789992  59.9464990  27.2749997  35.1499992  61.1844990  27.2549997
  34.5532673  60.6715739  26.8841972  23.4119992  62.1004990  28.3869997
  24.0249992  62.7334990  28.7599997  23.9239992  61.6284990  27.7309997
  23.5651933  62.1233380  28.3493477  24.7939992  69.8484990  31.5089997
  24.7889992  70.7274990  31.1309997  23.9409992  69.7644990  31.9339997
  24.6779199  69.9575901  31.5146942  20.9159992  69.5194990  22.2909997
  20.6439992  69.7484990  21.4019997  20.9609992  70.3564990  22.7519997
  20.8848360  69.6641034  22.2316186  34.5409992  71.1404990  29.0039997
  33.5989992  71.1994990  29.1659997  34.8169992  72.0464990  28.8669997
  34.4495865  71.2710299  29.0076174  34.8409992  59.4274990  30.4209997
  34.1049992  60.0374990  30.3839997  35.5249992  59.8424990  29.8949997
  34.8325367  59.5672562  30.3448156  27.8439992  57.5134990  27.8869997
  27.7269992  56.5654990  27.8329997  26.9889992  57.8464990  28.1599997
  27.7123691  57.4285842  27.9165072  32.7929992  72.9214990  25.6289997
  33.2179992  72.2144990  25.1439997  33.1099992  73.7234990  25.2119997
  32.8940266  72.9330201  25.5062461  86.6789992  47.4954990  80.1889997
  85.9669992  48.0304990  79.8379997  87.3699992  47.5504990  79.5289997
  86.6748696  47.5762591  80.0516372  33.9519992  70.8224990  24.1379997
  33.6949992  70.1324990  23.5259997  34.0229992  70.3794990  24.9829997
  33.9264322  70.6681568  24.1685372  35.6379992  69.3894990  32.6149997
  35.7779992  68.7974990  31.8759997  35.8059992  70.2624990  32.2589997
  35.6798734  69.4264041  32.4656937  30.1109992  66.3514990  22.3879997
  29.3989992  66.8864990  22.0359997  30.8019992  66.4064990  21.7279997
  30.1069704  66.4321663  22.2505797  30.1649992  64.8084990  19.4259997
  30.8659992  64.8314990  20.0779997  30.4669992  64.1804990  18.7699997
  30.3018202  64.7267223  19.4265591  37.4799992  65.7294990  30.6809997
  36.8279992  66.4234990  30.7699997  37.9449992  65.9394990  29.8709997
  37.4535357  65.8529544  30.5837056  33.5169992  66.5604990  23.3389997
  32.7849992  66.7894990  23.9119997  33.9639992  65.8474990  23.7939997
  33.4772753  66.4953984  23.4789698  33.4139992  64.7354990  32.4069997
  33.4939992  65.4984990  32.9789997  32.8129992  65.0144990  31.7169997
  33.3436547  64.8777468  32.3920029  25.1619992  67.1914990  25.2219997
  24.8319992  66.8204990  24.4039997  25.7499992  66.5204990  25.5689997
  25.1963182  67.0500648  25.1569898  26.5289992  70.6194990  27.9029997
  26.4339992  70.0404990  27.1469997  27.2579992  70.2484990  28.3989997
  26.6146011  70.4900572  27.8666011  25.5289992  65.9594990  28.8549997
  26.0939992  66.0814990  28.0929997  25.8469992  66.5974990  29.4939997
  25.6493619  66.0624388  28.8370019  94.0479992  46.8734990  88.4829997
  93.3959992  47.5674990  88.5719997  94.5129992  47.0834990  87.6729997
  94.0215357  46.9969544  88.3857056  31.8379992  71.4634990  29.5889997
  31.5969992  72.1254990  30.2369997  31.6399992  70.6284990  30.0139997
  31.7782662  71.4412704  29.7351008  32.3879992  65.7234990  21.0249997
  32.9669992  65.8734990  21.7709997  32.8019992  66.1934990  20.3009997
  32.5233358  65.8075966  21.0293935  23.3289992  66.5574990  32.8009997
  23.3989992  67.2084990  33.4999997  22.4379992  66.6604990  32.4659997
  23.2181690  66.6604261  32.8513026  30.1139992  72.4594990  24.4599997
  30.5879992  72.7554990  25.2369997  29.5509992  73.1984990  24.2269997
  30.1027890  72.5998047  24.5348084  36.0859992  57.4734990  20.8369997
  35.1859992  57.6114990  21.1329997  36.3379992  58.3044990  20.4359997
  35.9967727  57.6048705  20.8232935  24.1519992  66.2604990  22.8109997
  23.8599992  67.0284990  22.3199997  23.4779992  65.6014990  22.6479997
  24.0208843  66.2764537  22.7217695  37.2759992  71.8394990  19.2139997
  37.3489992  72.7784990  19.3839997  38.1809992  71.5344990  19.1579997
  37.4084170  71.9268294  19.2297045  20.2449992  68.6234990  31.6259997
  19.7439992  68.5954990  30.8109997  20.2509992  67.7184990  31.9359997
  20.1771690  68.4972234  31.5562770  19.9959992  71.4044990  28.5099997
  20.9419992  71.2594990  28.4909997  19.8829992  72.1884990  29.0469997
  20.1103578  71.4906708  28.5800300  29.5859992  75.4164990  22.8749997
  29.5109992  75.2954990  21.9279997  29.6189992  76.3654990  22.9929997
  29.5802083  75.5282639  22.7614973  90.0849992  47.7044990  81.1409997
  89.3529992  47.9334990  81.7139997  90.5319992  46.9914990  81.5959997
  90.0452753  47.6393984  81.2809698  23.2399992  74.2054990  24.6559997
  23.3919992  73.8574990  25.5339997  22.3889992  73.8484990  24.3999997
  23.1458344  74.1095891  24.7416851  32.6879992  74.5704990  19.8769997
  33.0629992  73.8264990  19.4059997  32.6919992  74.3004990  20.7949997
  32.7398969  74.4320920  19.9366475  32.3569992  74.4964990  22.6259997
  31.4219992  74.5964990  22.8049997  32.6369992  73.7864990  23.2049997
  32.2669471  74.4142944  22.7286678  35.3449992  63.5634990  34.6729997
  34.9379992  64.0434990  33.9519997  35.3859992  62.6574990  34.3649997
  35.2948403  63.5067989  34.5327253  22.4939992  69.9474990  32.6689997
  22.7099992  69.5854990  33.5289997  21.6389992  69.5724990  32.4599997
  22.4079082  69.8473377  32.7582396  25.1129992  58.4174990  28.6649997
  24.2509992  58.3304990  28.2569997  25.0909992  59.2734990  29.0929997
  24.9920557  58.5213078  28.6670202  29.7759992  58.1394990  32.0399997
  30.1959992  57.7244990  32.7929997  28.8429992  57.9604990  32.1569997
  29.7073736  58.0584921  32.1588950  33.1019992  61.8944990  32.8929997
  32.5879992  61.7694990  33.6909997  32.9469992  62.8074990  32.6489997
  33.0107802  62.0007433  32.9691504  33.8649992  66.7554990  18.6539997
  33.9069992  66.5334990  17.7239997  34.7139992  67.1544990  18.8439997
  33.9855253  66.7790510  18.5523804  29.4379992  60.6314990  19.3249997
  29.1839992  60.6504990  20.2469997  29.1809992  59.7604990  19.0229997
  29.3684508  60.5163292  19.4104786  89.9819992  45.8794990  90.2089997
  90.0619992  46.6424990  90.7809997  89.3809992  46.1584990  89.5179997
  89.9117115  46.0217707  90.1939631  25.2039992  63.3824990  29.7599997
  24.5619992  63.3424990  30.4689997  25.2409992  64.3094990  29.5219997
  25.1211659  63.5022540  29.8248463  25.2009992  63.6034990  24.6719997
  24.3079992  63.2634990  24.6129997  25.6519992  63.2264990  23.9159997
  25.1397185  63.5060220  24.5617698  30.7369992  64.0194990  23.4889997
  30.3279992  64.8344990  23.1969997  31.4569992  63.8794990  22.8749997
  30.7784439  64.1120383  23.3660098  29.8389992  64.1954990  34.9769997
  29.2759992  63.4904990  35.2979997  30.6649992  64.0744990  35.4449997
  29.8736674  64.0827176  35.0841734  31.7409992  63.4654990  26.3029997
  31.5459992  64.0714990  25.5879997  31.9229992  62.6324990  25.8689997
  31.7389195  63.4357936  26.1464079  22.9539992  63.7034990  31.6269997
  22.9159992  64.1034990  32.4959997  22.4629992  62.8864990  31.7169997
  22.8824374  63.6478228  31.7580980  26.3199992  61.0774990  18.4259997
  25.8889992  60.6324990  19.1549997  25.6019992  61.4484990  17.9129997
  26.1639176  61.0667063  18.4564913  19.5619992  60.8194990  25.4779997
  20.1929992  60.7904990  26.1969997  20.0119992  60.3944990  24.7469997
  19.7091082  60.7581269  25.4776307  20.8359992  61.5654990  20.9019997
  21.3109992  62.1564990  20.3169997  20.1189992  62.0954990  21.2489997
  20.8040406  61.7181011  20.8688495  31.0049992  65.1034990  30.9739997
  31.3289992  64.4724990  30.3309997  30.5649992  64.5694990  31.6349997
  30.9898707  64.9448261  30.9753195  81.7299992  48.3354990  83.0239997
  81.3999992  47.9644990  82.2049997  82.3179992  47.6644990  83.3699997
  81.7644056  48.1941257  82.9589035  27.7829992  61.0314990  25.7579997
  26.8719992  61.0884990  26.0469997  28.2879992  60.9714990  26.5689997
  27.7266873  61.0311838  25.9071190  22.6109992  62.6604990  24.5849997
  21.7219992  62.7594990  24.2449997  22.9069992  61.8184990  24.2389997
  22.5294001  62.5602473  24.4917318  26.2639992  62.6604990  22.2419997
  27.1959992  62.7894990  22.4199997  26.0489992  63.3294990  21.5919997
  26.3624472  62.7685817  22.1784873  32.1879992  60.2664990  29.0219997
  31.5109992  60.3974990  29.6859997  31.7019992  60.1114990  28.2119997
  32.0297265  60.2634665  29.0033380  24.9379992  63.8544990  19.8079997
  24.3959992  63.4754990  19.1169997  25.7719992  64.0494990  19.3799997
  24.9764390  63.8289091  19.6554374  29.1029992  63.8184990  27.6449997
  29.6669992  63.2724990  27.0979997  28.9549992  63.2974990  28.4339997
  29.1603037  63.6731798  27.6767212  24.1049992  59.9554990  24.0639997
  23.7869992  59.0524990  24.0279997  24.8859992  59.9574990  23.5109997
  24.1671079  59.8322240  23.9842908  27.7289992  62.2074990  30.0589997
  26.8939992  62.6614990  30.1699997  28.2529992  62.4834990  30.8109997
  27.6856072  62.3068960  30.1758118  28.2729992  68.4204990  21.7439997
  27.5279992  67.9124990  21.4219997  28.1389992  68.4694990  22.6899997
  28.1529334  68.3576144  21.8278892  35.4229992  67.5534990  30.5309997
  36.0649992  68.0094990  29.9869997  34.5929992  67.6664990  30.0679997
  35.3986536  67.6311813  30.3939579  83.0969992  51.7634990  85.7049997
  83.0019992  51.1844990  84.9479997  83.8259992  51.3924990  86.2009997
  83.1826161  51.6340902  85.6685192  32.1709992  61.2344990  19.9429997
  31.2319992  61.3454990  19.7919997  32.4679992  62.0904990  20.2499997
  32.0826136  61.3654977  19.9638568  29.7929992  68.6044990  32.9809997
  29.4469992  68.2224990  33.7879997  29.5929992  69.5374990  33.0519997
  29.7185987  68.6784013  33.1010443  32.8889992  63.1014990  21.6039997
  33.7809992  62.9634990  21.9229997  32.9459992  63.8924990  21.0669997
  33.0187380  63.1894777  21.5750981  23.3979992  67.7154990  27.5139997
  24.1429992  67.7124990  26.9119997  23.4759992  66.8914990  27.9949997
  23.5103366  67.6037395  27.4967412  30.3989992  69.8784990  20.7689997
  30.1039992  70.7054990  21.1509997  29.6959992  69.2594990  20.9659997
  30.2636379  69.9079182  20.8478636  20.4059992  66.1754990  32.8289997
  20.6289992  65.7574990  33.6599997  19.8039992  65.5634990  32.4059997
  20.3551513  66.0354617  32.8856722  32.0429992  71.0664990  32.9309997
  31.1419992  71.2494990  32.6639997  32.0769992  71.3254990  33.8519997
  31.9243861  71.1265245  33.0189517  37.7739992  63.3104990  21.2989997
  37.2199992  62.9144990  20.6259997  37.8749992  64.2214990  21.0209997
  37.7118589  63.3793904  21.1693839  37.7369992  69.1114990  34.1359997
  36.8859992  69.3494990  33.7679997  38.3279992  69.0944990  33.3819997
  37.7003831  69.1417623  33.9838448  36.0689992  72.0964990  21.7639997
  35.6969992  71.2714990  22.0729997  36.3469992  71.9134990  20.8659997
  36.0555807  71.9587031  21.6850063  82.0969992  47.1034990  86.6569997
  82.6619992  47.2254990  85.8939997  82.4149992  47.7414990  87.2959997
  82.2173430  47.2064448  86.6389094  33.2299992  66.9044990  28.7849997
  32.3019992  66.6734990  28.7579997  33.6809992  66.1274990  28.4549997
  33.1638165  66.7677785  28.7366772  25.7729992  71.2334990  24.9179997
  26.2999992  72.0064990  24.7179997  24.8929992  71.4574990  24.6159997
  25.7262121  71.3697344  24.8497460  21.5279992  66.0954990  19.5049997
  22.1439992  66.7224990  19.8849997  20.6659992  66.4114990  19.7769997
  21.4957678  66.2239423  19.5937192  27.1999992  68.8964990  24.4939997
  26.9589992  69.8214990  24.5359997  26.4599992  68.4374990  24.8909997
  27.0669463  68.9610969  24.5534279  27.7149992  73.0454990  30.8089997
  28.0779992  73.8994990  30.5759997  28.2469992  72.7534990  31.5499997
  27.8365141  73.1228907  30.8772079  25.8829992  73.9174990  24.0399997
  24.9339992  74.0234990  24.0909997  26.2349992  74.7384990  24.3839997
  25.8005647  74.0430029  24.0934882  31.2589992  69.1444990  30.5099997
  30.8329992  68.9164990  31.3359997  31.8399992  68.4054990  30.3279997
  31.2792088  69.0134393  30.5984454  33.4619992  70.0734990  19.5839997
  33.8149992  69.6934990  20.3879997  32.5129992  69.9794990  19.6709997
  33.3820956  70.0087867  19.7058005  33.9179992  73.6964990  32.9789997
  33.3159992  73.1404990  32.4839997  34.1989992  74.3634990  32.3529997
  33.8735757  73.7105755  32.8265657  37.9649992  74.5524990  19.7849997
  38.7089992  75.1384990  19.6449997  37.2709992  75.1214990  20.1179997
  37.9729809  74.7095830  19.8108572  88.4059992  52.6074990  87.3909997
  88.1649992  53.2694990  88.0389997  88.2079992  51.7724990  87.8159997
  88.3462662  52.5852704  87.5371008  22.0399992  60.9294990  32.3869997
  21.1469992  61.2674990  32.3189997  21.9409992  60.0734990  32.8049997
  21.9044752  60.8600986  32.4341644  34.3279992  68.7454990  21.8109997
  34.0509992  68.0174990  22.3669997  35.2549992  68.8644990  22.0159997
  34.4154419  68.6619436  21.9148264  21.6909992  72.7334990  30.8219997
  21.9079992  71.8014990  30.7909997  21.9379992  73.0084990  31.7049997
  21.7540948  72.6430976  30.9371268  27.5529992  71.1854990  18.0309997
  27.7919992  70.4364990  17.4839997  27.2839992  70.7974990  18.8639997
  27.5493233  71.0306865  18.0687791  26.4899992  70.7554990  20.4869997
  26.6369992  70.2354990  21.2769997  26.4869992  71.6624990  20.7939997
  26.5097102  70.8068964  20.6365907  22.9429992  68.0074990  20.9979997
  22.2569992  68.3604990  21.5649997  23.4659992  68.7704990  20.7509997
  22.9198402  68.1588912  21.0421784  30.7739992  60.6704990  31.2769997
  31.4729992  60.7444990  31.9269997  30.3939992  59.8054990  31.4309997
  30.8182662  60.5637050  31.3867412  31.5589992  60.3224990  22.3739997
  31.7789992  60.7934990  21.5699997  32.1169992  60.7164990  23.0439997
  31.6646044  60.4402946  22.3545207  29.2279992  72.4524990  21.2369997
  28.4109992  72.9494990  21.2889997  29.7569992  72.9284990  20.5959997
  29.1878125  72.5847000  21.1575289  28.7589992  62.0504990  23.2089997
  29.5709992  62.5544990  23.2549997  28.5139992  61.9054990  24.1229997
  28.8371091  62.0999366  23.3388552  82.9769992  51.5034990  91.3739997
  82.6649992  52.2854990  91.8299997  82.3269992  51.3504990  90.6879997
  82.8464643  51.5898019  91.3436657  29.2949992  63.0364990  32.3929997
  29.4139992  63.6104990  33.1499997  29.9499992  62.3484990  32.5079997
  29.3998684  63.0220205  32.5121656  29.6429992  59.1314990  24.1469997
  29.2959992  59.7484990  24.7909997  30.3009992  59.6324990  23.6649997
  29.6844430  59.2836860  24.1700045  26.5659992  73.4964990  21.2179997
  26.7269992  74.2964990  20.7179997  26.3689992  73.8034990  22.1029997
  26.5613906  73.6473690  21.2692316  25.2999992  60.1944990  20.8339997
  25.2169992  61.0824990  21.1809997  26.1899992  59.9294990  21.0659997
  25.4089331  60.2801177  20.9128067  35.4989992  60.9434990  33.2279997
  34.5829992  61.2054990  33.1409997  35.8349992  60.9404990  32.3319997
  35.4188499  60.9790174  33.0948748  34.1009992  64.6934990  27.3239997
  33.3039992  64.2784990  26.9959997  34.5459992  64.0034990  27.8149997
  34.0520367  64.5433372  27.3454897  23.5589992  70.6214990  19.8939997
  24.1509992  71.3214990  20.1709997  24.0179992  70.1884990  19.1749997
  23.7021652  70.6587686  19.8346515  21.8749992  63.2864990  19.0099997
  21.8299992  64.2254990  19.1889997  20.9869992  63.0504990  18.7409997
  21.7488166  63.3831698  18.9981507  35.1879992  73.9494990  28.9459997
  35.0319992  74.6284990  28.2889997  36.1199992  74.0214990  29.1489997
  35.2927328  74.0521586  28.8835529  22.6829992  58.0674990  27.6829997
  22.4539992  58.1264990  26.7559997  22.2399992  57.2764990  27.9899997
  22.5917387  57.9686413  27.5975223  88.9559992  46.8674990  78.8259997
  89.5349992  47.0174990  79.5729997  89.3699992  47.3374990  78.1029997
  89.0913122  46.9516288  78.8305024  21.6129992  72.0084990  23.8439997
  20.7809992  72.4804990  23.8709997  22.1589992  72.5184990  23.2449997
  21.5728710  72.1420317  23.7667570  20.9019992  74.6204990  35.1739997
  21.4419992  74.4044990  35.9339997  20.4199992  73.8154990  34.9839997
  20.9108485  74.4820463  35.2524870  29.5909992  73.0484990  18.1689997
  28.9469992  72.4174990  18.4909997  30.3529992  72.5174990  17.9379997
  29.6058708  72.8903171  18.1818461  34.1949992  72.8654990  18.4029997
  34.4779992  72.0704990  18.8559997  34.9349992  73.0984990  17.8419997
  34.3337295  72.7882349  18.3891469  25.1499992  68.7744990  18.2609997
  25.2139992  67.9804990  18.7909997  25.8029992  68.6564990  17.5709997
  25.2470483  68.6497496  18.2403407  30.5019992  69.8214990  17.9969997
  30.2339992  70.0024990  18.8969997  30.2959992  68.8964990  17.8649997
  30.4373443  69.7211873  18.1026643  33.1989992  68.3164990  32.9439997
  33.9439992  68.9054990  32.8249997  32.4409992  68.8984990  33.0069997
  33.1985289  68.4757067  32.9362292  26.2989992  66.7474990  20.5669997
  25.8399992  66.2634990  21.2519997  26.5539992  66.0784990  19.9309997
  26.2705997  66.5908491  20.5748734  27.3699992  64.9904990  18.8289997
  27.1899992  64.8354990  17.9019997  28.3199992  65.0984990  18.8739997
  27.4737804  64.9838821  18.7081966  36.7599992  67.3444990  18.2749997
  36.4869992  66.9204990  17.4619997  36.7999992  68.2764990  18.0579997
  36.7280201  67.4123523  18.1343548  79.8969992  47.7014990  90.6029997
  79.9669992  48.3524990  91.3009997  79.0059992  47.8044990  90.2679997
  79.7861802  47.8044769  90.6532231  26.3399992  60.3644990  31.4979997
  26.8759992  60.8164990  30.8459997  25.4879992  60.2564990  31.0749997
  26.2981795  60.4117444  31.3516211  27.9219992  65.8044990  31.7369997
  28.6729992  65.6484990  31.1639997  27.5829992  66.6564990  31.4619997
  27.9789587  65.8983149  31.6214060  27.1459992  57.8214990  31.9289997
  27.0479992  58.7674990  31.8239997  26.4029992  57.4484990  31.4529997
  27.0322123  57.9006811  31.8503204  27.3679992  57.1154990  34.5999997
  28.0789992  56.4754990  34.5859997  27.2669992  57.3814990  33.6869997
  27.4516858  57.0638591  34.4745501  27.2679992  75.6804990  19.8299997
  28.2009992  75.8384990  19.9739997  27.0029992  76.3564990  19.2049997
  27.3599846  75.7934567  19.7652930  20.8359992  70.3174990  19.3129997
  21.7499992  70.3964990  19.5859997  20.8429992  69.6304990  18.6469997
  20.9620624  70.2354074  19.2603045  19.4849992  75.7104990  24.3899997
  18.8379992  75.2484990  23.8579997  19.8399992  75.0384990  24.9729997
  19.4443741  75.5564785  24.3959157  20.3549992  73.7904990  26.1949997
  20.0209992  72.9104990  26.3669997  20.5769992  74.1364990  27.0599997
  20.3392564  73.7167410  26.3354263  37.9039992  74.6004990  29.1759997
  37.8819992  74.7854990  30.1139997  38.5939992  75.1684990  28.8349997
  37.9943383  74.7027104  29.2584580  37.4669992  74.1674990  32.0969997
  36.9799992  73.4314990  31.7259997  38.0159992  73.7734990  32.7749997
  37.4746101  74.0136267  32.1379034  86.6819992  53.6034990  82.2619997
  87.1559992  53.8994990  83.0389997  86.1189992  54.3424990  82.0279997
  86.6708461  53.7438336  82.3367626  37.2189992  68.2134990  22.2499997
  38.0689992  68.6344990  22.3769997  37.2239992  67.4734990  22.8569997
  37.3361143  68.1711106  22.3494732  37.6129992  66.2674990  24.0729997
  36.8869992  65.7874990  24.4709997  38.1939992  66.4724990  24.8049997
  37.5922504  66.2295592  24.2264199  37.3719992  69.0524990  29.0209997
  38.2059992  68.6744990  28.7399997  37.4839992  69.9954990  28.9019997
  37.5011917  69.1282954  28.9664844  35.8579992  71.9304990  31.3279997
  35.2109992  72.2554990  31.9529997  35.3409992  71.4894990  30.6539997
  35.6994112  71.9154133  31.3225272  37.8809992  66.1684990  20.4639997
  37.3599992  66.5244990  19.7459997  37.8479992  66.8434990  21.1429997
  37.8050955  66.3085023  20.4572634  36.2299992  63.4074990  19.0149997
  36.3269992  64.0744990  18.3349997  36.0899992  62.5924990  18.5339997
  36.2243407  63.3885670  18.8568312  35.3999992  64.7884990  24.6359997
  35.2499992  63.8434990  24.6159997  35.0459992  65.0694990  25.4799997
  35.3316351  64.6971656  24.7473202  20.4349992  66.8664990  28.6469997
  20.6189992  66.7844990  27.7109997  21.2839992  66.7424990  29.0699997
  20.5750132  66.8385066  28.5761460  36.2559992  66.7584990  34.2749997
  36.8389992  66.0234990  34.4669997  36.8199992  67.5304990  34.3219997
  36.4119781  66.7623156  34.3076146  37.7529992  64.6614990  34.9599997
  36.8889992  64.2824990  34.7939997  38.3569992  63.9224990  34.8849997
  37.7165394  64.5098378  34.9271778  81.2159992  53.5744990  92.1379997
  81.2239992  53.4384990  91.1899997  80.2999992  53.4574990  92.3899997
  81.0932512  53.5400663  92.0423179  35.4779992  60.8154990  18.1329997
  36.0879992  60.4444990  18.7699997  34.6409992  60.3944990  18.3289997
  35.4483704  60.7077942  18.2467077  35.1099992  62.3704990  23.0989997
  35.3899992  61.4634990  23.2229997  35.8689992  62.8044990  22.7099997
  35.2509258  62.3050935  23.0633691  35.7219992  62.9524990  28.5349997
  36.6549992  63.1644990  28.4999997  35.4869992  63.0534990  29.4569997
  35.8179517  62.9951844  28.6549113  35.7509992  63.6894990  31.3109997
  34.9079992  63.9574990  31.6759997  36.1939992  64.5114990  31.0999997
  35.6954035  63.8373351  31.3324770  20.0319992  62.1364990  34.7869997
  20.9519992  62.0144990  35.0239997  19.5829992  61.3864990  35.1769997
  20.0970500  62.0184576  34.8721016  35.7239992  59.6334990  23.1469997
  35.9059992  59.1844990  23.9719997  35.1239992  59.0494990  22.6829997
  35.6678187  59.4930563  23.1972721  21.2539992  60.4494990  27.6789997
  21.6989992  59.6574990  27.9809997  21.7199992  61.1654990  28.1089997
  21.3779718  60.4379546  27.7785247  19.5579992  63.4484990  28.7479997
  20.0499992  63.2274990  27.9569997  19.9199992  64.2884990  29.0289997
  19.6742923  63.5318480  28.6777389  37.5899992  59.7014990  19.6749997
  38.0029992  58.9804990  19.1999997  38.2719992  60.3704990  19.7329997
  37.7386060  59.6933741  19.6179233  19.8709992  59.7064990  22.8019997
  18.9459992  59.9144990  22.6729997  20.3249992  60.1904990  22.1119997
  19.8056298  59.8004311  22.6910433  92.6539992  38.6174990  78.6389997
  91.7539992  38.7554990  78.9339997  92.9059992  39.4484990  78.2369997
  92.5647355  38.7488200  78.6250539  34.6419992  74.6904990  24.7479997
  35.2939992  74.3424990  24.1399997  35.1529992  75.1784990  25.3939997
  34.8002872  74.7088248  24.7520964  19.8349992  58.4444990  31.1459997
  19.1699992  58.1984990  31.7889997  19.3919992  59.0664990  30.5689997
  19.6841168  58.4949225  31.1559830  24.9809992  72.5934990  31.5489997
  24.5559992  73.4034990  31.2669997  25.8849992  72.6794990  31.2469997
  25.0450706  72.7159557  31.4695836  31.6369992  75.2784990  33.7529997
  32.3139992  74.6454990  33.5129997  31.9589992  75.6794990  34.5599997
  31.7731618  75.2461147  33.8292802  36.5549992  57.8684990  32.8319997
  35.7419992  58.1934990  32.4449997  36.7879992  57.1074990  32.2989997
  36.4751347  57.8101891  32.7069824  22.3829992  75.8504990  31.5969997
  21.6619992  76.2904990  31.1459997  22.0169992  75.5994990  32.4449997
  22.2349632  75.8767235  31.6499649  24.8499992  75.4504990  30.6259997
  23.9849992  75.5224990  31.0299997  24.7949992  75.9974990  29.8429997
  24.7242289  75.5343242  30.5753749  29.5609992  75.3384990  29.8019997
  29.1039992  75.8674990  29.1479997  29.7229992  75.9414990  30.5269997
  29.5203919  75.4923990  29.8105740  31.8879992  74.2164990  30.7469997
  30.9839992  74.3814990  30.4809997  32.3169992  75.0694990  30.6809997
  31.8222017  74.3544184  30.7016495  34.4919992  75.7864990  31.0419997
  34.3109992  76.7024990  30.8309997  34.6689992  75.3754990  30.1949997
  34.4911377  75.8563365  30.8987178  80.7199992  47.4044990  80.6129997
  80.4279992  48.1724990  80.1219997  80.0459992  46.7454990  80.4499997
  80.5888843  47.4204537  80.5237695  21.7979992  74.4734990  28.5069997
  21.7789992  74.0474990  29.3639997  22.6019992  74.1544990  28.0979997
  21.9041393  74.3720297  28.5690155  23.9389992  73.1834990  27.1619997
  23.7199992  72.2664990  27.3319997  24.7629992  73.3234990  27.6279997
  24.0204702  73.0770523  27.2482510  26.4759992  73.6534990  28.0109997
  26.6889992  72.7654990  27.7239997  26.5409992  73.6184990  28.9649997
  26.5139149  73.5273338  28.1007351  29.9849992  59.3174990  27.1549997
  29.3099992  58.6874990  27.4109997  30.5489992  58.8334990  26.5519997
  29.9689363  59.1658886  27.1084810  35.1269992  57.4244990  27.2679997
  35.7309992  57.9724990  26.7659997  34.2579992  57.7434990  27.0269997
  35.0920419  57.5425628  27.1667741  36.8539992  58.5634990  25.6009997
  37.4659992  58.0494990  25.0739997  37.2369992  59.4404990  25.6239997
  36.9893867  58.6117613  25.5320888  22.3109992  57.9514990  24.9769997
  21.5339992  57.7164990  24.4699997  22.8419992  57.1544990  24.9859997
  22.2763735  57.8116462  24.9088090  21.1479992  57.7494990  20.7809997
  21.5869992  58.3604990  20.1889997  20.5139992  58.2874990  21.2549997
  21.1223859  57.9059076  20.7640287  26.8909992  57.8774990  24.7899997
  27.7649992  58.2664990  24.7609997  26.7549992  57.6624990  25.7129997
  26.9921953  57.9016654  24.9107599  32.4469992  57.9074990  26.4399997
  32.5239992  58.0034990  25.4899997  32.1719992  57.0004990  26.5679997
  32.4203233  57.7979093  26.3273665  93.8439992  52.9834990  77.0159997
  93.9169992  53.9224990  77.1859997  94.7489992  52.6784990  76.9589997
  93.9764168  53.0708531  77.0315736  33.8009992  57.9334990  22.1319997
  33.0979992  58.5484990  21.9219997  33.3559992  57.0964990  22.2629997
  33.6446550  57.9044679  22.1209819  21.0489992  73.6974990  21.6779997
  20.3639992  73.6594990  21.0109997  21.0519992  74.6094990  21.9659997
  20.9556806  73.8156669  21.6256961  23.0089992  59.6654990  19.2229997
  23.4999992  59.0354990  18.6959997  23.6319992  59.9614990  19.8859997
  23.1605304  59.6192387  19.2404922  28.0349992  59.9584990  21.6799997
  28.2129992  59.3114990  22.3629997  27.9809992  60.7924990  22.1469997
  28.0520678  59.9826615  21.8366283  29.9129992  74.9064990  20.0759997
  30.7789992  75.2734990  19.8979997  29.6659992  74.4674990  19.2619997
  29.9981853  74.8974021  19.9415814  36.6219992  74.4694990  22.7549997
  36.4279992  73.7214990  22.1899997  36.5829992  75.2274990  22.1719997
  36.5901645  74.4695797  22.5988131  22.2689992  58.4654990  34.4949997
  21.9029992  57.6994990  34.9369997  23.1819992  58.4944990  34.7809997
  22.3423172  58.3645335  34.5941872  22.8669992  74.6174990  18.7029997
  22.5989992  74.9034990  19.5769997  23.6379992  74.0714990  18.8559997
  22.9345926  74.5827790  18.8431188  50.2459992  67.1074990  24.9359997
  50.3349992  68.0514990  24.8029997  49.6069992  66.8324990  24.2779997
  50.1718378  67.1993846  24.8289258  49.1789992  66.3624990  28.3549997
  49.1399992  65.7164990  29.0599997  48.8559992  65.8954990  27.5829997
  49.1300469  66.2110005  28.3472803  76.8129992  49.7674990  89.4279997
  76.3119992  49.7394990  88.6129997  76.8189992  48.8624990  89.7379997
  76.7451690  49.6412234  89.3582770  41.5469992  65.9764990  29.9479997
  41.5879992  65.3514990  30.6709997  42.2499992  66.6004990  30.1299997
  41.6476223  65.9752318  30.0716164  42.4709992  70.4264990  28.4829997
  42.1009992  69.6244990  28.1129997  43.4119992  70.2584990  28.5289997
  42.5475984  70.2939649  28.4385586  39.0809992  64.0864990  23.8749997
  38.6329992  64.9324990  23.8569997  38.5199992  63.5074990  23.3599997
  38.9438546  64.1239004  23.8028874  39.7909992  66.2484990  26.0009997
  40.0049992  65.4784990  26.5279997  40.5289992  66.3384990  25.3979997
  39.9200073  66.1553546  25.9915786  49.9959992  74.4054990  26.8679997
  50.6159992  73.7294990  26.5949997  49.7879992  74.1874990  27.7769997
  50.0527679  74.2835032  26.9534518  47.5679992  68.7944990  28.7609997
  47.8719992  68.1084990  28.1659997  48.2899992  68.9134990  29.3789997
  47.7071240  68.7167325  28.7630941  50.7089992  63.1884990  29.0879997
  50.8509992  62.2424990  29.1079997  50.6029992  63.3954990  28.1599997
  50.7141051  63.0869706  28.9652249  43.8639992  61.2904990  26.3609997
  43.9069992  62.1504990  25.9419997  43.4059992  60.7374990  25.7269997
  43.8080163  61.3334174  26.2180604  51.5859992  61.4214990  24.7609997
  52.2319992  61.0924990  25.3859997  52.0959992  61.9384990  24.1389997
  51.7434289  61.4464333  24.7623681  40.4839992  63.6874990  27.1229997
  41.1379992  63.1374990  27.5549997  40.5079992  63.4134990  26.2059997
  40.5767199  63.5752179  27.0581650  76.5639992  52.5484990  86.3119997
  77.5099992  52.4034990  86.2929997  76.4509992  53.3324990  86.8489997
  76.6783578  52.6346708  86.3820300  45.6399992  65.2374990  26.3379997
  46.2559992  64.7104990  26.8469997  45.0539992  64.5974990  25.9339997
  45.6450652  65.0788919  26.3530277  42.6739992  60.2084990  30.4349997
  42.4549992  60.7384990  29.6679997  42.0059992  60.4344990  31.0819997
  42.5536975  60.3115979  30.4175123  50.0429992  69.7084990  23.9789997
  49.7469992  69.3854990  23.1269997  49.7189992  70.6084990  24.0199997
  49.9587458  69.7859678  23.8680598  45.2429992  67.8834990  30.7219997
  44.5029992  68.4824990  30.8259997  45.9569992  68.4374990  30.4059997
  45.2383146  68.0402611  30.6935150  53.3499992  60.7124990  26.7419997
  53.1349992  59.9464990  27.2749997  54.0059992  61.1844990  27.2549997
  53.4092673  60.6715739  26.8841972  42.2679992  62.1004990  28.3869997
  42.8809992  62.7334990  28.7599997  42.7799992  61.6284990  27.7309997
  42.4211933  62.1233380  28.3493477  43.6499992  69.8484990  31.5089997
  43.6449992  70.7274990  31.1309997  42.7969992  69.7644990  31.9339997
  43.5339199  69.9575901  31.5146942  39.7719992  69.5194990  22.2909997
  39.4999992  69.7484990  21.4019997  39.8169992  70.3564990  22.7519997
  39.7408360  69.6641034  22.2316186  46.6999992  57.5134990  27.8869997
  46.5829992  56.5654990  27.8329997  45.8449992  57.8464990  28.1599997
  46.5683691  57.4285842  27.9165072  51.6489992  72.9214990  25.6289997
  52.0739992  72.2144990  25.1439997  51.9659992  73.7234990  25.2119997
  51.7500266  72.9330201  25.5062461  94.7609992  53.2144990  91.9939997
  94.7119992  52.2584990  91.9569997  93.9349992  53.4814990  92.3959997
  94.6425767  53.1198841  92.0433133  52.8079992  70.8224990  24.1379997
  52.5509992  70.1324990  23.5259997  52.8789992  70.3794990  24.9829997
  52.7824322  70.6681568  24.1685372  48.9669992  66.3514990  22.3879997
  48.2549992  66.8864990  22.0359997  49.6579992  66.4064990  21.7279997
  48.9629704  66.4321663  22.2505797  49.0209992  64.8084990  19.4259997
  49.7219992  64.8314990  20.0779997  49.3229992  64.1804990  18.7699997
  49.1578202  64.7267223  19.4265591  52.3729992  66.5604990  23.3389997
  51.6409992  66.7894990  23.9119997  52.8199992  65.8474990  23.7939997
  52.3332753  66.4953984  23.4789698  52.2699992  64.7354990  32.4069997
  52.3499992  65.4984990  32.9789997  51.6689992  65.0144990  31.7169997
  52.1996547  64.8777468  32.3920029  44.0179992  67.1914990  25.2219997
  43.6879992  66.8204990  24.4039997  44.6059992  66.5204990  25.5689997
  44.0523182  67.0500648  25.1569898  45.3849992  70.6194990  27.9029997
  45.2899992  70.0404990  27.1469997  46.1139992  70.2484990  28.3989997
  45.4706011  70.4900572  27.8666011  44.3849992  65.9594990  28.8549997
  44.9499992  66.0814990  28.0929997  44.7029992  66.5974990  29.4939997
  44.5053619  66.0624388  28.8370019  50.6939992  71.4634990  29.5889997
  50.4529992  72.1254990  30.2369997  50.4959992  70.6284990  30.0139997
  50.6342662  71.4412704  29.7351008  45.2649992  70.3594990  33.5729997
  44.9529992  71.1414990  34.0279997  44.6149992  70.2064990  32.8869997
  45.1344858  70.4457882  33.5425344  85.7399992  52.7884990  90.8699997
  85.8269992  53.6144990  91.3449997  84.8759992  52.4584990  91.1189997
  85.6351944  52.8569871  90.9686558  51.2439992  65.7234990  21.0249997
  51.8229992  65.8734990  21.7709997  51.6579992  66.1934990  20.3009997
  51.3793358  65.8075966  21.0293935  42.1849992  66.5574990  32.8009997
  42.2549992  67.2084990  33.4999997  41.2939992  66.6604990  32.4659997
  42.0741690  66.6604261  32.8513026  48.9699992  72.4594990  24.4599997
  49.4439992  72.7554990  25.2369997  48.4069992  73.1984990  24.2269997
  48.9587890  72.5998047  24.5348084  43.5039992  72.4304990  34.3359997
  43.5119992  72.2944990  33.3889997  42.5879992  72.3134990  34.5879997
  43.3812528  72.3960475  34.2403226  54.9419992  57.4734990  20.8369997
  54.0419992  57.6114990  21.1329997  55.1939992  58.3044990  20.4359997
  54.8527727  57.6048705  20.8232935  43.0079992  66.2604990  22.8109997
  42.7159992  67.0284990  22.3199997  42.3339992  65.6014990  22.6479997
  42.8768843  66.2764537  22.7217695  56.1319992  71.8394990  19.2139997
  56.2049992  72.7784990  19.3839997  57.0369992  71.5344990  19.1579997
  56.2644170  71.9268294  19.2297045  39.1009992  68.6234990  31.6259997
  38.5999992  68.5954990  30.8109997  39.1069992  67.7184990  31.9359997
  39.0331690  68.4972234  31.5562770  38.8519992  71.4044990  28.5099997
  39.7979992  71.2594990  28.4909997  38.7389992  72.1884990  29.0469997
  38.9663578  71.4906708  28.5800300  48.0279992  71.6444990  33.0689997
  48.1149992  72.4704990  33.5439997  47.1639992  71.3144990  33.3179997
  47.9231944  71.7129871  33.1676558  86.1539992  56.5604990  80.6759997
  86.0789992  56.4394990  79.7299997  86.1869992  57.5094990  80.7949997
  86.1481862  56.6722492  80.5624840  48.4419992  75.4164990  22.8749997
  48.3669992  75.2954990  21.9279997  48.4749992  76.3654990  22.9929997
  48.4362083  75.5282639  22.7614973  42.0959992  74.2054990  24.6559997
  42.2479992  73.8574990  25.5339997  41.2449992  73.8484990  24.3999997
  42.0018344  74.1095891  24.7416851  51.5439992  74.5704990  19.8769997
  51.9189992  73.8264990  19.4059997  51.5479992  74.3004990  20.7949997
  51.5958969  74.4320920  19.9366475  51.2129992  74.4964990  22.6259997
  50.2779992  74.5964990  22.8049997  51.4929992  73.7864990  23.2049997
  51.1229471  74.4142944  22.7286678  54.2009992  63.5634990  34.6729997
  53.7939992  64.0434990  33.9519997  54.2419992  62.6574990  34.3649997
  54.1508403  63.5067989  34.5327253  41.3499992  69.9474990  32.6689997
  41.5659992  69.5854990  33.5289997  40.4949992  69.5724990  32.4599997
  41.2639082  69.8473377  32.7582396  43.9689992  58.4174990  28.6649997
  43.1069992  58.3304990  28.2569997  43.9469992  59.2734990  29.0929997
  43.8480557  58.5213078  28.6670202  48.6319992  58.1394990  32.0399997
  49.0519992  57.7244990  32.7929997  47.6989992  57.9604990  32.1569997
  48.5633736  58.0584921  32.1588950  51.9579992  61.8944990  32.8929997
  51.4439992  61.7694990  33.6909997  51.8029992  62.8074990  32.6489997
  51.8667802  62.0007433  32.9691504  52.7209992  66.7554990  18.6539997
  52.7629992  66.5334990  17.7239997  53.5699992  67.1544990  18.8439997
  52.8415253  66.7790510  18.5523804  79.8079992  55.3494990  82.4569997
  79.9599992  55.0014990  83.3359997  78.9569992  54.9924990  82.2019997
  79.7137899  55.2536749  82.5427322  48.2939992  60.6314990  19.3249997
  48.0399992  60.6504990  20.2469997  48.0369992  59.7604990  19.0229997
  48.2244508  60.5163292  19.4104786  44.0599992  63.3824990  29.7599997
  43.4179992  63.3424990  30.4689997  44.0969992  64.3094990  29.5219997
  43.9771659  63.5022540  29.8248463  44.0569992  63.6034990  24.6719997
  43.1639992  63.2634990  24.6129997  44.5079992  63.2264990  23.9159997
  43.9957185  63.5060220  24.5617698  49.5929992  64.0194990  23.4889997
  49.1839992  64.8344990  23.1969997  50.3129992  63.8794990  22.8749997
  49.6344439  64.1120383  23.3660098  50.5969992  63.4654990  26.3029997
  50.4019992  64.0714990  25.5879997  50.7789992  62.6324990  25.8689997
  50.5949195  63.4357936  26.1464079  41.8099992  63.7034990  31.6269997
  41.7719992  64.1034990  32.4959997  41.3189992  62.8864990  31.7169997
  41.7384373  63.6478228  31.7580980  45.1759992  61.0774990  18.4259997
  44.7449992  60.6324990  19.1549997  44.4579992  61.4484990  17.9129997
  45.0199176  61.0667063  18.4564913  38.4179992  60.8194990  25.4779997
  39.0489992  60.7904990  26.1969997  38.8679992  60.3944990  24.7469997
  38.5651082  60.7581269  25.4776307  39.6919992  61.5654990  20.9019997
  40.1669992  62.1564990  20.3169997  38.9749992  62.0954990  21.2489997
  39.6600406  61.7181011  20.8688495  49.8609992  65.1034990  30.9739997
  50.1849992  64.4724990  30.3309997  49.4209992  64.5694990  31.6349997
  49.8458707  64.9448261  30.9753195  89.2559992  55.7144990  77.6789997
  89.6309992  54.9704990  77.2079997  89.2599992  55.4444990  78.5969997
  89.3078969  55.5760920  77.7386475  46.6389992  61.0314990  25.7579997
  45.7279992  61.0884990  26.0469997  47.1439992  60.9714990  26.5689997
  46.5826873  61.0311838  25.9071190  41.4669992  62.6604990  24.5849997
  40.5779992  62.7594990  24.2449997  41.7629992  61.8184990  24.2389997
  41.3854001  62.5602473  24.4917318  45.1199992  62.6604990  22.2419997
  46.0519992  62.7894990  22.4199997  44.9049992  63.3294990  21.5919997
  45.2184472  62.7685817  22.1784873  51.0439992  60.2664990  29.0219997
  50.3669992  60.3974990  29.6859997  50.5579992  60.1114990  28.2119997
  50.8857265  60.2634665  29.0033380  43.7939992  63.8544990  19.8079997
  43.2519992  63.4754990  19.1169997  44.6279992  64.0494990  19.3799997
  43.8324390  63.8289091  19.6554374  54.3309992  75.9374990  35.2989997
  54.5309992  76.3614990  34.4649997  54.9869992  76.2814990  35.9059997
  54.4469937  76.0419993  35.2668645  47.9589992  63.8184990  27.6449997
  48.5229992  63.2724990  27.0979997  47.8109992  63.2974990  28.4339997
  48.0163037  63.6731798  27.6767212  42.9609992  59.9554990  24.0639997
  42.6429992  59.0524990  24.0279997  43.7419992  59.9574990  23.5109997
  43.0231079  59.8322240  23.9842908  46.5849992  62.2074990  30.0589997
  45.7499992  62.6614990  30.1699997  47.1089992  62.4834990  30.8109997
  46.5416072  62.3068960  30.1758118  47.1289992  68.4204990  21.7439997
  46.3839992  67.9124990  21.4219997  46.9949992  68.4694990  22.6899997
  47.0089334  68.3576144  21.8278892  88.9249992  55.6404990  80.4279997
  87.9899992  55.7404990  80.6069997  89.2049992  54.9304990  81.0059997
  88.8349270  55.5582300  80.5305984  51.0269992  61.2344990  19.9429997
  50.0879992  61.3454990  19.7919997  51.3239992  62.0904990  20.2499997
  50.9386136  61.3654977  19.9638568  51.7449992  63.1014990  21.6039997
  52.6369992  62.9634990  21.9229997  51.8019992  63.8924990  21.0669997
  51.8747380  63.1894777  21.5750981  42.2539992  67.7154990  27.5139997
  42.9989992  67.7124990  26.9119997  42.3319992  66.8914990  27.9949997
  42.3663365  67.6037395  27.4967412  49.2549992  69.8784990  20.7689997
  48.9599992  70.7054990  21.1509997  48.5519992  69.2594990  20.9659997
  49.1196379  69.9079182  20.8478636  39.2619992  66.1754990  32.8289997
  39.4849992  65.7574990  33.6599997  38.6599992  65.5634990  32.4059997
  39.2111513  66.0354617  32.8856722  50.8989992  71.0664990  32.9309997
  49.9979992  71.2494990  32.6639997  50.9329992  71.3254990  33.8519997
  50.7803861  71.1265245  33.0189517  56.6299992  63.3104990  21.2989997
  56.0759992  62.9144990  20.6259997  56.7309992  64.2214990  21.0209997
  56.5678589  63.3793904  21.1693839  54.9249992  72.0964990  21.7639997
  54.5529992  71.2714990  22.0729997  55.2029992  71.9134990  20.8659997
  54.9115807  71.9587031  21.6850063  44.6289992  71.2334990  24.9179997
  45.1559992  72.0064990  24.7179997  43.7489992  71.4574990  24.6159997
  44.5822121  71.3697344  24.8497460  40.3839992  66.0954990  19.5049997
  40.9999992  66.7224990  19.8849997  39.5219992  66.4114990  19.7769997
  40.3517678  66.2239423  19.5937192  91.9129992  44.7074990  92.4739997
  91.5059992  45.1874990  91.7539997  91.9539992  43.8014990  92.1669997
  91.8627178  44.6508609  92.3337441  46.0559992  68.8964990  24.4939997
  45.8149992  69.8214990  24.5359997  45.3159992  68.4374990  24.8909997
  45.9229463  68.9610969  24.5534279  46.5709992  73.0454990  30.8089997
  46.9339992  73.8994990  30.5759997  47.1029992  72.7534990  31.5499997
  46.6925141  73.1228907  30.8772079  44.7389992  73.9174990  24.0399997
  43.7899992  74.0234990  24.0909997  45.0909992  74.7384990  24.3839997
  44.6565647  74.0430029  24.0934882  50.1149992  69.1444990  30.5099997
  49.6889992  68.9164990  31.3359997  50.6959992  68.4054990  30.3279997
  50.1352088  69.0134393  30.5984454  52.3179992  70.0734990  19.5839997
  52.6709992  69.6934990  20.3879997  51.3689992  69.9794990  19.6709997
  52.2380956  70.0087867  19.7058005  56.8209992  74.5524990  19.7849997
  57.5649992  75.1384990  19.6449997  56.1269992  75.1214990  20.1179997
  56.8289809  74.7095830  19.8108572  40.8959992  60.9294990  32.3869997
  40.0029992  61.2674990  32.3189997  40.7969992  60.0734990  32.8049997
  40.7604752  60.8600986  32.4341644  53.1839992  68.7454990  21.8109997
  52.9069992  68.0174990  22.3669997  54.1109992  68.8644990  22.0159997
  53.2714419  68.6619436  21.9148264  40.5469992  72.7334990  30.8219997
  40.7639992  71.8014990  30.7909997  40.7939992  73.0084990  31.7049997
  40.6100948  72.6430976  30.9371268  46.4089992  71.1854990  18.0309997
  46.6479992  70.4364990  17.4839997  46.1399992  70.7974990  18.8639997
  46.4053233  71.0306865  18.0687791  79.0619992  51.0914990  90.4709997
  79.2779992  50.7294990  91.3309997  78.2069992  50.7164990  90.2609997
  78.9759349  50.9912914  90.5602134  45.3459992  70.7554990  20.4869997
  45.4929992  70.2354990  21.2769997  45.3429992  71.6624990  20.7939997
  45.3657102  70.8068964  20.6365907  41.7989992  68.0074990  20.9979997
  41.1129992  68.3604990  21.5649997  42.3219992  68.7704990  20.7509997
  41.7758402  68.1588912  21.0421783  49.6299992  60.6704990  31.2769997
  50.3289992  60.7444990  31.9269997  49.2499992  59.8054990  31.4309997
  49.6742662  60.5637050  31.3867412  50.4149992  60.3224990  22.3739997
  50.6349992  60.7934990  21.5699997  50.9729992  60.7164990  23.0439997
  50.5206044  60.4402946  22.3545207  48.0839992  72.4524990  21.2369997
  47.2669992  72.9494990  21.2889997  48.6129992  72.9284990  20.5959997
  48.0438125  72.5847000  21.1575289  47.6149992  62.0504990  23.2089997
  48.4269992  62.5544990  23.2549997  47.3699992  61.9054990  24.1229997
  47.6931091  62.0999366  23.3388552  48.1509992  63.0364990  32.3929997
  48.2699992  63.6104990  33.1499997  48.8059992  62.3484990  32.5079997
  48.2558684  63.0220205  32.5121656  48.4989992  59.1314990  24.1469997
  48.1519992  59.7484990  24.7909997  49.1569992  59.6324990  23.6649997
  48.5404430  59.2836860  24.1700046  45.4219992  73.4964990  21.2179997
  45.5829992  74.2964990  20.7179997  45.2249992  73.8034990  22.1029997
  45.4173906  73.6473690  21.2692316  44.1559992  60.1944990  20.8339997
  44.0729992  61.0824990  21.1809997  45.0459992  59.9294990  21.0659997
  44.2649331  60.2801177  20.9128067  81.6809992  39.5614990  86.4669997
  80.8189992  39.4744990  86.0589997  81.6589992  40.4174990  86.8939997
  81.5600953  39.6653558  86.4689262  52.9569992  64.6934990  27.3239997
  52.1599992  64.2784990  26.9959997  53.4019992  64.0034990  27.8149997
  52.9080367  64.5433372  27.3454897  42.4149992  70.6214990  19.8939997
  43.0069992  71.3214990  20.1709997  42.8739992  70.1884990  19.1749997
  42.5581652  70.6587686  19.8346515  40.7309992  63.2864990  19.0099997
  40.6859992  64.2254990  19.1889997  39.8429992  63.0504990  18.7409997
  40.6048166  63.3831698  18.9981507  41.5389992  58.0674990  27.6829997
  41.3099992  58.1264990  26.7559997  41.0959992  57.2764990  27.9899997
  41.4477387  57.9686412  27.5975223  40.4689992  72.0084990  23.8439997
  39.6369992  72.4804990  23.8709997  41.0149992  72.5184990  23.2449997
  40.4288710  72.1420317  23.7667570  48.4469992  73.0484990  18.1689997
  47.8029992  72.4174990  18.4909997  49.2089992  72.5174990  17.9379997
  48.4618708  72.8903171  18.1818461  50.9319992  71.9204990  35.5229997
  50.5809992  71.0634990  35.7659997  51.6579992  72.0624990  36.1299997
  50.9821590  71.8225189  35.6382889  53.0509992  72.8654990  18.4029997
  53.3339992  72.0704990  18.8559997  53.7909992  73.0984990  17.8419997
  53.1897295  72.7882349  18.3891469  44.0059992  68.7744990  18.2609997
  44.0699992  67.9804990  18.7909997  44.6589992  68.6564990  17.5709997
  44.1030483  68.6497496  18.2403407  49.3579992  69.8214990  17.9969997
  49.0899992  70.0024990  18.8969997  49.1519992  68.8964990  17.8649997
  49.2933443  69.7211873  18.1026643  86.3439992  39.2834990  89.8409997
  86.7639992  38.8684990  90.5939997  85.4109992  39.1044990  89.9579997
  86.2753736  39.2024921  89.9598950  52.0549992  68.3164990  32.9439997
  52.7999992  68.9054990  32.8249997  51.2969992  68.8984990  33.0069997
  52.0545289  68.4757067  32.9362292  45.1549992  66.7474990  20.5669997
  44.6959992  66.2634990  21.2519997  45.4099992  66.0784990  19.9309997
  45.1265997  66.5908491  20.5748734  44.4439992  64.6404990  32.9229997
  43.8259992  65.3144990  33.2029997  44.7879992  64.9614990  32.0889997
  44.4058078  64.7762298  32.8486609  46.2259992  64.9904990  18.8289997
  46.0459992  64.8354990  17.9019997  47.1759992  65.0984990  18.8739997
  46.3297804  64.9838821  18.7081966  55.6159992  67.3444990  18.2749997
  55.3429992  66.9204990  17.4619997  55.6559992  68.2764990  18.0579997
  55.5840201  67.4123523  18.1343548  44.7839992  61.9954990  34.0049997
  44.9339992  61.2664990  33.4029997  44.7859992  62.7724990  33.4459997
  44.8047967  62.0007720  33.8470523  45.1959992  60.3644990  31.4979997
  45.7319992  60.8164990  30.8459997  44.3439992  60.2564990  31.0749997
  45.1541795  60.4117444  31.3516211  46.0019992  57.8214990  31.9289997
  45.9039992  58.7674990  31.8239997  45.2589992  57.4484990  31.4529997
  45.8882123  57.9006811  31.8503204  47.2659992  62.1424990  35.4929997
  47.0299992  61.9234990  36.3939997  46.4829992  61.9354990  34.9829997
  47.1278382  62.0845340  35.5473991  49.9819992  61.2704990  34.5679997
  49.0339992  61.3024990  34.6999997  50.2939992  60.6444990  35.2219997
  49.8945293  61.1902934  34.6744130  89.6699992  43.0384990  90.6949997
  89.1559992  42.9134990  91.4919997  89.5149992  43.9514990  90.4499997
  89.5786643  43.1447068  90.7710624  46.2239992  57.1154990  34.5999997
  46.9349992  56.4754990  34.5859997  46.1229992  57.3814990  33.6869997
  46.3076858  57.0638591  34.4745501  46.1239992  75.6804990  19.8299997
  47.0569992  75.8384990  19.9739997  45.8589992  76.3564990  19.2049997
  46.2159846  75.7934567  19.7652930  39.6919992  70.3174990  19.3129997
  40.6059992  70.3964990  19.5859997  39.6989992  69.6304990  18.6469997
  39.8180624  70.2354074  19.2603045  38.3409992  75.7104990  24.3899997
  37.6939992  75.2484990  23.8579997  38.6959992  75.0384990  24.9729997
  38.3003741  75.5564785  24.3959157  39.2109992  73.7904990  26.1949997
  38.8769992  72.9104990  26.3669997  39.4329992  74.1364990  27.0599997
  39.1952565  73.7167410  26.3354263  56.7369992  66.1684990  20.4639997
  56.2159992  66.5244990  19.7459997  56.7039992  66.8434990  21.1429997
  56.6610955  66.3085023  20.4572634  55.0859992  63.4074990  19.0149997
  55.1829992  64.0744990  18.3349997  54.9459992  62.5924990  18.5339997
  55.0803407  63.3885670  18.8568312  54.2559992  64.7884990  24.6359997
  54.1059992  63.8434990  24.6159997  53.9019992  65.0694990  25.4799997
  54.1876351  64.6971656  24.7473202  39.2909992  66.8664990  28.6469997
  39.4749992  66.7844990  27.7109997  40.1399992  66.7424990  29.0699997
  39.4310132  66.8385066  28.5761460  54.3339992  60.8154990  18.1329997
  54.9439992  60.4444990  18.7699997  53.4969992  60.3944990  18.3289997
  54.3043704  60.7077942  18.2467077  81.7719992  44.5264990  87.5619997
  81.1299992  44.4864990  88.2709997  81.8089992  45.4534990  87.3239997
  81.6891659  44.6462540  87.6268463  53.9659992  62.3704990  23.0989997
  54.2459992  61.4634990  23.2229997  54.7249992  62.8044990  22.7099997
  54.1069258  62.3050935  23.0633691  54.5779992  62.9524990  28.5349997
  55.5109992  63.1644990  28.4999997  54.3429992  63.0534990  29.4569997
  54.6739517  62.9951844  28.6549113  54.6069992  63.6894990  31.3109997
  53.7639992  63.9574990  31.6759997  55.0499992  64.5114990  31.0999997
  54.5514035  63.8373351  31.3324770  54.5799992  59.6334990  23.1469997
  54.7619992  59.1844990  23.9719997  53.9799992  59.0494990  22.6829997
  54.5238187  59.4930563  23.1972721  40.1099992  60.4494990  27.6789997
  40.5549992  59.6574990  27.9809997  40.5759992  61.1654990  28.1089997
  40.2339718  60.4379546  27.7785247  38.4139992  63.4484990  28.7479997
  38.9059992  63.2274990  27.9569997  38.7759992  64.2884990  29.0289997
  38.5302923  63.5318480  28.6777389  56.4459992  59.7014990  19.6749997
  56.8589992  58.9804990  19.1999997  57.1279992  60.3704990  19.7329997
  56.5946060  59.6933741  19.6179233  38.7269992  59.7064990  22.8019997
  37.8019992  59.9144990  22.6729997  39.1809992  60.1904990  22.1119997
  38.6616298  59.8004311  22.6910433  53.4979992  74.6904990  24.7479997
  54.1499992  74.3424990  24.1399997  54.0089992  75.1784990  25.3939997
  53.6562872  74.7088248  24.7520964  38.6909992  58.4444990  31.1459997
  38.0259992  58.1984990  31.7889997  38.2479992  59.0664990  30.5689997
  38.5401168  58.4949225  31.1559830  81.7689992  44.7474990  82.4739997
  80.8759992  44.4074990  82.4149997  82.2199992  44.3704990  81.7179997
  81.7077185  44.6500220  82.3637698  43.8369992  72.5934990  31.5489997
  43.4119992  73.4034990  31.2669997  44.7409992  72.6794990  31.2469997
  43.9010706  72.7159557  31.4695836  50.4929992  75.2784990  33.7529997
  51.1699992  74.6454990  33.5129997  50.8149992  75.6794990  34.5599997
  50.6291618  75.2461147  33.8292802  41.2389992  75.8504990  31.5969997
  40.5179992  76.2904990  31.1459997  40.8729992  75.5994990  32.4449997
  41.0909632  75.8767235  31.6499649  43.7059992  75.4504990  30.6259997
  42.8409992  75.5224990  31.0299997  43.6509992  75.9974990  29.8429997
  43.5802289  75.5343242  30.5753749  48.4169992  75.3384990  29.8019997
  47.9599992  75.8674990  29.1479997  48.5789992  75.9414990  30.5269997
  48.3763919  75.4923990  29.8105740  50.7439992  74.2164990  30.7469997
  49.8399992  74.3814990  30.4809997  51.1729992  75.0694990  30.6809997
  50.6782017  74.3544184  30.7016495  40.6539992  74.4734990  28.5069997
  40.6349992  74.0474990  29.3639997  41.4579992  74.1544990  28.0979997
  40.7601393  74.3720297  28.5690155  42.7949992  73.1834990  27.1619997
  42.5759992  72.2664990  27.3319997  43.6189992  73.3234990  27.6279997
  42.8764702  73.0770523  27.2482510  45.3319992  73.6534990  28.0109997
  45.5449992  72.7654990  27.7239997  45.3969992  73.6184990  28.9649997
  45.3699149  73.5273338  28.1007351  48.8409992  59.3174990  27.1549997
  48.1659992  58.6874990  27.4109997  49.4049992  58.8334990  26.5519997
  48.8249363  59.1658886  27.1084810  87.3049992  45.1634990  81.2909997
  86.8959992  45.9784990  80.9989997  88.0249992  45.0234990  80.6759997
  87.3463946  45.2559963  81.1679616  53.9829992  57.4244990  27.2679997
  54.5869992  57.9724990  26.7659997  53.1139992  57.7434990  27.0269997
  53.9480419  57.5425628  27.1667741  55.7099992  58.5634990  25.6009997
  56.3219992  58.0494990  25.0739997  56.0929992  59.4404990  25.6239997
  55.8453867  58.6117613  25.5320888  41.1669992  57.9514990  24.9769997
  40.3899992  57.7164990  24.4699997  41.6979992  57.1544990  24.9859997
  41.1323735  57.8116462  24.9088090  40.0039992  57.7494990  20.7809997
  40.4429992  58.3604990  20.1889997  39.3699992  58.2874990  21.2549997
  39.9783859  57.9059076  20.7640287  45.7469992  57.8774990  24.7899997
  46.6209992  58.2664990  24.7609997  45.6109992  57.6624990  25.7129997
  45.8481953  57.9016654  24.9107599  51.3029992  57.9074990  26.4399997
  51.3799992  58.0034990  25.4899997  51.0279992  57.0004990  26.5679997
  51.2763233  57.7979093  26.3273665  52.6569992  57.9334990  22.1319997
  51.9539992  58.5484990  21.9219997  52.2119992  57.0964990  22.2629997
  52.5006550  57.9044679  22.1209819  39.9049992  73.6974990  21.6779997
  39.2199992  73.6594990  21.0109997  39.9079992  74.6094990  21.9659997
  39.8116806  73.8156669  21.6256961  41.8649992  59.6654990  19.2229997
  42.3559992  59.0354990  18.6959997  42.4879992  59.9614990  19.8859997
  42.0165304  59.6192387  19.2404922  46.8909992  59.9584990  21.6799997
  47.0689992  59.3114990  22.3629997  46.8369992  60.7924990  22.1469997
  46.9080678  59.9826615  21.8366283  86.4069992  45.3394990  92.7789997
  85.8439992  44.6344990  93.0989997  87.2329992  45.2184990  93.2459997
  86.4416423  45.2265614  92.8860168  48.7689992  74.9064990  20.0759997
  49.6349992  75.2734990  19.8979997  48.5219992  74.4674990  19.2619997
  48.8541853  74.8974021  19.9415814  55.4779992  74.4694990  22.7549997
  55.2839992  73.7214990  22.1899997  55.4389992  75.2274990  22.1719997
  55.4461645  74.4695797  22.5988131  41.1249992  58.4654990  34.4949997
  40.7589992  57.6994990  34.9369997  42.0379992  58.4944990  34.7809997
  41.1983172  58.3645335  34.5941872  41.7229992  74.6174990  18.7029997
  41.4549992  74.9034990  19.5769997  42.4939992  74.0714990  18.8559997
  41.7905926  74.5827790  18.8431188  69.1019992  67.1074990  24.9359997
  69.1909992  68.0514990  24.8029997  68.4629992  66.8324990  24.2779997
  69.0278378  67.1993846  24.8289258  68.0349992  66.3624990  28.3549997
  67.9959992  65.7164990  29.0599997  67.7119992  65.8954990  27.5829997
  67.9860469  66.2110005  28.3472803  71.7409992  69.3014990  26.6559997
  71.2999992  68.5814990  27.1069997  71.7279992  70.0224990  27.2859997
  71.6789215  69.3004303  26.8028088  57.9369992  64.0864990  23.8749997
  57.4889992  64.9324990  23.8569997  57.3759992  63.5074990  23.3599997
  57.7998546  64.1239004  23.8028874  66.4239992  68.7944990  28.7609997
  66.7279992  68.1084990  28.1659997  67.1459992  68.9134990  29.3789997
  66.5631240  68.7167325  28.7630941  75.0869992  60.3964990  29.6209997
  75.1359992  61.0064990  30.3569997  75.5129992  60.8574990  28.8979997
  75.1512851  60.5423266  29.6240532  88.3089992  44.6094990  84.1049997
  88.1139992  45.2154990  83.3899997  88.4909992  43.7764990  83.6699997
  88.3069272  44.5797955  83.9484075  69.5649992  63.1884990  29.0879997
  69.7069992  62.2424990  29.1079997  69.4589992  63.3954990  28.1599997
  69.5701051  63.0869706  28.9652249  62.7199992  61.2904990  26.3609997
  62.7629992  62.1504990  25.9419997  62.2619992  60.7374990  25.7269997
  62.6640163  61.3334174  26.2180604  70.4419992  61.4214990  24.7609997
  71.0879992  61.0924990  25.3859997  70.9519992  61.9384990  24.1389997
  70.5994289  61.4464333  24.7623681  75.4789992  61.8744990  31.8569997
  74.7899992  62.5324990  31.7619997  75.4939992  61.6764990  32.7939997
  75.3867756  61.9377614  31.9705795  68.8989992  69.7084990  23.9789997
  68.6029992  69.3854990  23.1269997  68.5749992  70.6084990  24.0199997
  68.8147458  69.7859678  23.8680598  72.2059992  60.7124990  26.7419997
  71.9909992  59.9464990  27.2749997  72.8619992  61.1844990  27.2549997
  72.2652673  60.6715739  26.8841972  72.2529992  71.1404990  29.0039997
  71.3109992  71.1994990  29.1659997  72.5289992  72.0464990  28.8669997
  72.1615865  71.2710299  29.0076174  72.5529992  59.4274990  30.4209997
  71.8169992  60.0374990  30.3839997  73.2369992  59.8424990  29.8949997
  72.5445367  59.5672562  30.3448156  65.5559992  57.5134990  27.8869997
  65.4389992  56.5654990  27.8329997  64.7009992  57.8464990  28.1599997
  65.4243691  57.4285842  27.9165072  70.5049992  72.9214990  25.6289997
  70.9299992  72.2144990  25.1439997  70.8219992  73.7234990  25.2119997
  70.6060266  72.9330201  25.5062461  79.5219992  44.8474990  89.4289997
  79.4839992  45.2474990  90.2969997  79.0309992  44.0304990  89.5189997
  79.4504246  44.7918842  89.5601171  71.6639992  70.8224990  24.1379997
  71.4069992  70.1324990  23.5259997  71.7349992  70.3794990  24.9829997
  71.6384322  70.6681568  24.1685372  73.3499992  69.3894990  32.6149997
  73.4899992  68.7974990  31.8759997  73.5179992  70.2624990  32.2589997
  73.3918734  69.4264041  32.4656937  67.8229992  66.3514990  22.3879997
  67.1109992  66.8864990  22.0359997  68.5139992  66.4064990  21.7279997
  67.8189704  66.4321663  22.2505797  67.8769992  64.8084990  19.4259997
  68.5779992  64.8314990  20.0779997  68.1789992  64.1804990  18.7699997
  68.0138202  64.7267223  19.4265591  75.1919992  65.7294990  30.6809997
  74.5399992  66.4234990  30.7699997  75.6569992  65.9394990  29.8709997
  75.1655357  65.8529544  30.5837056  71.2289992  66.5604990  23.3389997
  70.4969992  66.7894990  23.9119997  71.6759992  65.8474990  23.7939997
  71.1892753  66.4953984  23.4789698  62.8739992  67.1914990  25.2219997
  62.5439992  66.8204990  24.4039997  63.4619992  66.5204990  25.5689997
  62.9083182  67.0500648  25.1569898  64.2409992  70.6194990  27.9029997
  64.1459992  70.0404990  27.1469997  64.9699992  70.2484990  28.3989997
  64.3266011  70.4900572  27.8666011  69.5499992  71.4634990  29.5889997
  69.3089992  72.1254990  30.2369997  69.3519992  70.6284990  30.0139997
  69.4902661  71.4412704  29.7351008  70.0999992  65.7234990  21.0249997
  70.6789992  65.8734990  21.7709997  70.5139992  66.1934990  20.3009997
  70.2353358  65.8075966  21.0293935  82.8879992  42.2214990  76.2269997
  82.4569992  41.7764990  76.9569997  82.1699992  42.5924990  75.7149997
  82.7319363  42.2107979  76.2576194  67.8259992  72.4594990  24.4599997
  68.2999992  72.7554990  25.2369997  67.2629992  73.1984990  24.2269997
  67.8147890  72.5998047  24.5348084  73.7979992  57.4734990  20.8369997
  72.8979992  57.6114990  21.1329997  74.0499992  58.3044990  20.4359997
  73.7087727  57.6048705  20.8232935  74.9879992  71.8394990  19.2139997
  75.0609992  72.7784990  19.3839997  75.8929992  71.5344990  19.1579997
  75.1204170  71.9268294  19.2297045  75.9049992  72.0704990  34.1929997
  75.8559992  71.1144990  34.1549997  75.0789992  72.3374990  34.5939997
  75.7865096  71.9758416  34.2420698  60.9519992  74.2054990  24.6559997
  61.1039992  73.8574990  25.5339997  60.1009992  73.8484990  24.3999997
  60.8578344  74.1095891  24.7416851  70.3999992  74.5704990  19.8769997
  70.7749992  73.8264990  19.4059997  70.4039992  74.3004990  20.7949997
  70.4518969  74.4320920  19.9366475  70.0689992  74.4964990  22.6259997
  69.1339992  74.5964990  22.8049997  70.3489992  73.7864990  23.2049997
  69.9789471  74.4142944  22.7286678  67.4879992  58.1394990  32.0399997
  67.9079992  57.7244990  32.7929997  66.5549992  57.9604990  32.1569997
  67.4193736  58.0584921  32.1588950  71.5769992  66.7554990  18.6539997
  71.6189992  66.5334990  17.7239997  72.4259992  67.1544990  18.8439997
  71.6975253  66.7790510  18.5523804  67.1499992  60.6314990  19.3249997
  66.8959992  60.6504990  20.2469997  66.8929992  59.7604990  19.0229997
  67.0804508  60.5163292  19.4104786  76.1299992  41.9634990  83.2789997
  76.7609992  41.9344990  83.9989997  76.5799992  41.5384990  82.5489997
  76.2770905  41.9020839  83.2787479  62.9129992  63.6034990  24.6719997
  62.0199992  63.2634990  24.6129997  63.3639992  63.2264990  23.9159997
  62.8517185  63.5060220  24.5617698  68.4489992  64.0194990  23.4889997
  68.0399992  64.8344990  23.1969997  69.1689992  63.8794990  22.8749997
  68.4904439  64.1120383  23.3660098  69.4529992  63.4654990  26.3029997
  69.2579992  64.0714990  25.5879997  69.6349992  62.6324990  25.8689997
  69.4509195  63.4357936  26.1464079  64.0319992  61.0774990  18.4259997
  63.6009992  60.6324990  19.1549997  63.3139992  61.4484990  17.9129997
  63.8759176  61.0667063  18.4564913  57.2739992  60.8194990  25.4779997
  57.9049992  60.7904990  26.1969997  57.7239992  60.3944990  24.7469997
  57.4211082  60.7581269  25.4776307  58.5479992  61.5654990  20.9019997
  59.0229992  62.1564990  20.3169997  57.8309992  62.0954990  21.2489997
  58.5160406  61.7181011  20.8688495  68.7169992  65.1034990  30.9739997
  69.0409992  64.4724990  30.3309997  68.2769992  64.5694990  31.6349997
  68.7018707  64.9448261  30.9753195  65.4949992  61.0314990  25.7579997
  64.5839992  61.0884990  26.0469997  65.9999992  60.9714990  26.5689997
  65.4386873  61.0311838  25.9071190  63.9759992  62.6604990  22.2419997
  64.9079992  62.7894990  22.4199997  63.7609992  63.3294990  21.5919997
  64.0744472  62.7685817  22.1784873  69.8999992  60.2664990  29.0219997
  69.2229992  60.3974990  29.6859997  69.4139992  60.1114990  28.2119997
  69.7417265  60.2634665  29.0033380  87.5729992  46.2474990  88.7759997
  87.8969992  45.6164990  88.1329997  87.1329992  45.7134990  89.4369997
  87.5578707  46.0888261  88.7773195  62.6499992  63.8544990  19.8079997
  62.1079992  63.4754990  19.1169997  63.4839992  64.0494990  19.3799997
  62.6884390  63.8289091  19.6554374  66.8149992  63.8184990  27.6449997
  67.3789992  63.2724990  27.0979997  66.6669992  63.2974990  28.4339997
  66.8723037  63.6731798  27.6767212  61.8169992  59.9554990  24.0639997
  61.4989992  59.0524990  24.0279997  62.5979992  59.9574990  23.5109997
  61.8791079  59.8322240  23.9842908  65.4409992  62.2074990  30.0589997
  64.6059992  62.6614990  30.1699997  65.9649992  62.4834990  30.8109997
  65.3976072  62.3068960  30.1758118  65.9849992  68.4204990  21.7439997
  65.2399992  67.9124990  21.4219997  65.8509992  68.4694990  22.6899997
  65.8649334  68.3576144  21.8278892  73.1349992  67.5534990  30.5309997
  73.7769992  68.0094990  29.9869997  72.3049992  67.6664990  30.0679997
  73.1106536  67.6311813  30.3939579  69.8829992  61.2344990  19.9429997
  68.9439992  61.3454990  19.7919997  70.1799992  62.0904990  20.2499997
  69.7946136  61.3654977  19.9638568  70.6009992  63.1014990  21.6039997
  71.4929992  62.9634990  21.9229997  70.6579992  63.8924990  21.0669997
  70.7307380  63.1894777  21.5750981  68.1109992  69.8784990  20.7689997
  67.8159992  70.7054990  21.1509997  67.4079992  69.2594990  20.9659997
  67.9756379  69.9079182  20.8478636  69.7549992  71.0664990  32.9309997
  68.8539992  71.2494990  32.6639997  69.7889992  71.3254990  33.8519997
  69.6363861  71.1265245  33.0189517  84.3509992  42.1754990  83.5599997
  83.4399992  42.2324990  83.8489997  84.8559992  42.1154990  84.3709997
  84.2946873  42.1751838  83.7091190  75.4859992  63.3104990  21.2989997
  74.9319992  62.9144990  20.6259997  75.5869992  64.2214990  21.0209997
  75.4238589  63.3793904  21.1693839  73.7809992  72.0964990  21.7639997
  73.4089992  71.2714990  22.0729997  74.0589992  71.9134990  20.8659997
  73.7675807  71.9587031  21.6850063  70.9419992  66.9044990  28.7849997
  70.0139992  66.6734990  28.7579997  71.3929992  66.1274990  28.4549997
  70.8758165  66.7677785  28.7366772  63.4849992  71.2334990  24.9179997
  64.0119992  72.0064990  24.7179997  62.6049992  71.4574990  24.6159997
  63.4382121  71.3697344  24.8497460  59.2399992  66.0954990  19.5049997
  59.8559992  66.7224990  19.8849997  58.3779992  66.4114990  19.7769997
  59.2077678  66.2239423  19.5937192  64.9119992  68.8964990  24.4939997
  64.6709992  69.8214990  24.5359997  64.1719992  68.4374990  24.8909997
  64.7789463  68.9610969  24.5534279  68.9709992  69.1444990  30.5099997
  68.5449992  68.9164990  31.3359997  69.5519992  68.4054990  30.3279997
  68.9912088  69.0134393  30.5984454  71.1739992  70.0734990  19.5839997
  71.5269992  69.6934990  20.3879997  70.2249992  69.9794990  19.6709997
  71.0940956  70.0087867  19.7058005  75.6769992  74.5524990  19.7849997
  76.4209992  75.1384990  19.6449997  74.9829992  75.1214990  20.1179997
  75.6849809  74.7095830  19.8108572  72.0399992  68.7454990  21.8109997
  71.7629992  68.0174990  22.3669997  72.9669992  68.8644990  22.0159997
  72.1274419  68.6619436  21.9148264  79.1789992  43.8044990  82.3869997
  78.2899992  43.9034990  82.0469997  79.4749992  42.9624990  82.0409997
  79.0974001  43.7042473  82.2937318  65.2649992  71.1854990  18.0309997
  65.5039992  70.4364990  17.4839997  64.9959992  70.7974990  18.8639997
  65.2613233  71.0306865  18.0687791  64.2019992  70.7554990  20.4869997
  64.3489992  70.2354990  21.2769997  64.1989992  71.6624990  20.7939997
  64.2217102  70.8068964  20.6365907  69.2709992  60.3224990  22.3739997
  69.4909992  60.7934990  21.5699997  69.8289992  60.7164990  23.0439997
  69.3766044  60.4402946  22.3545207  66.9399992  72.4524990  21.2369997
  66.1229992  72.9494990  21.2889997  67.4689992  72.9284990  20.5959997
  66.8998125  72.5847000  21.1575289  66.4709992  62.0504990  23.2089997
  67.2829992  62.5544990  23.2549997  66.2259992  61.9054990  24.1229997
  66.5491091  62.0999366  23.3388552  67.3549992  59.1314990  24.1469997
  67.0079992  59.7484990  24.7909997  68.0129992  59.6324990  23.6649997
  67.3964430  59.2836860  24.1700046  64.2779992  73.4964990  21.2179997
  64.4389992  74.2964990  20.7179997  64.0809992  73.8034990  22.1029997
  64.2733906  73.6473690  21.2692316  63.0119992  60.1944990  20.8339997
  62.9289992  61.0824990  21.1809997  63.9019992  59.9294990  21.0659997
  63.1209331  60.2801177  20.9128067  73.2109992  60.9434990  33.2279997
  72.2949992  61.2054990  33.1409997  73.5469992  60.9404990  32.3319997
  73.1308499  60.9790174  33.0948748  71.8129992  64.6934990  27.3239997
  71.0159992  64.2784990  26.9959997  72.2579992  64.0034990  27.8149997
  71.7640367  64.5433372  27.3454897  82.8319992  43.8044990  80.0429997
  83.7639992  43.9334990  80.2209997  82.6169992  44.4734990  79.3939997
  82.9304245  43.9126452  79.9795602  61.2709992  70.6214990  19.8939997
  61.8629992  71.3214990  20.1709997  61.7299992  70.1884990  19.1749997
  61.4141652  70.6587686  19.8346515  59.5869992  63.2864990  19.0099997
  59.5419992  64.2254990  19.1889997  58.6989992  63.0504990  18.7409997
  59.4608166  63.3831698  18.9981507  59.3249992  72.0084990  23.8439997
  58.4929992  72.4804990  23.8709997  59.8709992  72.5184990  23.2449997
  59.2848710  72.1420317  23.7667570  67.3029992  73.0484990  18.1689997
  66.6589992  72.4174990  18.4909997  68.0649992  72.5174990  17.9379997
  67.3178708  72.8903171  18.1818461  71.9069992  72.8654990  18.4029997
  72.1899992  72.0704990  18.8559997  72.6469992  73.0984990  17.8419997
  72.0457295  72.7882349  18.3891469  62.8619992  68.7744990  18.2609997
  62.9259992  67.9804990  18.7909997  63.5149992  68.6564990  17.5709997
  62.9590483  68.6497496  18.2403407  68.2139992  69.8214990  17.9969997
  67.9459992  70.0024990  18.8969997  68.0079992  68.8964990  17.8649997
  68.1493443  69.7211873  18.1026643  64.0109992  66.7474990  20.5669997
  63.5519992  66.2634990  21.2519997  64.2659992  66.0784990  19.9309997
  63.9825997  66.5908491  20.5748734  65.0819992  64.9904990  18.8289997
  64.9019992  64.8354990  17.9019997  66.0319992  65.0984990  18.8739997
  65.1857804  64.9838821  18.7081966  74.4719992  67.3444990  18.2749997
  74.1989992  66.9204990  17.4619997  74.5119992  68.2764990  18.0579997
  74.4400201  67.4123523  18.1343548  88.7559992  41.4104990  86.8239997
  88.0789992  41.5414990  87.4879997  88.2699992  41.2554990  86.0139997
  88.5977265  41.4074665  86.8053380  64.0519992  60.3644990  31.4979997
  64.5879992  60.8164990  30.8459997  63.1999992  60.2564990  31.0749997
  64.0101795  60.4117444  31.3516211  64.8579992  57.8214990  31.9289997
  64.7599992  58.7674990  31.8239997  64.1149992  57.4484990  31.4529997
  64.7442123  57.9006811  31.8503204  65.0799992  57.1154990  34.5999997
  65.7909992  56.4754990  34.5859997  64.9789992  57.3814990  33.6869997
  65.1636858  57.0638591  34.4745501  64.9799992  75.6804990  19.8299997
  65.9129992  75.8384990  19.9739997  64.7149992  76.3564990  19.2049997
  65.0719846  75.7934567  19.7652930  58.5479992  70.3174990  19.3129997
  59.4619992  70.3964990  19.5859997  58.5549992  69.6304990  18.6469997
  58.6740624  70.2354074  19.2603045  57.1969992  75.7104990  24.3899997
  56.5499992  75.2484990  23.8579997  57.5519992  75.0384990  24.9729997
  57.1563741  75.5564785  24.3959157  58.0669992  73.7904990  26.1949997
  57.7329992  72.9104990  26.3669997  58.2889992  74.1364990  27.0599997
  58.0512565  73.7167410  26.3354263  74.9309992  68.2134990  22.2499997
  75.7809992  68.6344990  22.3769997  74.9359992  67.4734990  22.8569997
  75.0481143  68.1711106  22.3494732  75.3249992  66.2674990  24.0729997
  74.5989992  65.7874990  24.4709997  75.9059992  66.4724990  24.8049997
  75.3042504  66.2295592  24.2264199  75.0839992  69.0524990  29.0209997
  75.9179992  68.6744990  28.7399997  75.1959992  69.9954990  28.9019997
  75.2131917  69.1282954  28.9664844  92.0429992  57.0814990  93.1009997
  92.2429992  57.5054990  92.2659997  92.6989992  57.4254990  93.7079997
  92.1589916  57.1859784  93.0687890  75.5929992  66.1684990  20.4639997
  75.0719992  66.5244990  19.7459997  75.5599992  66.8434990  21.1429997
  75.5170955  66.3085023  20.4572634  73.9419992  63.4074990  19.0149997
  74.0389992  64.0744990  18.3349997  73.8019992  62.5924990  18.5339997
  73.9363407  63.3885670  18.8568312  73.1119992  64.7884990  24.6359997
  72.9619992  63.8434990  24.6159997  72.7579992  65.0694990  25.4799997
  73.0436351  64.6971656  24.7473202  75.4649992  64.6614990  34.9599997
  74.6009992  64.2824990  34.7939997  76.0689992  63.9224990  34.8849997
  75.4285394  64.5098378  34.9271778  73.1899992  60.8154990  18.1329997
  73.7999992  60.4444990  18.7699997  72.3529992  60.3944990  18.3289997
  73.1603704  60.7077942  18.2467077  72.8219992  62.3704990  23.0989997
  73.1019992  61.4634990  23.2229997  73.5809992  62.8044990  22.7099997
  72.9629258  62.3050935  23.0633691  73.4339992  62.9524990  28.5349997
  74.3669992  63.1644990  28.4999997  73.1989992  63.0534990  29.4569997
  73.5299517  62.9951844  28.6549113  73.4629992  63.6894990  31.3109997
  72.6199992  63.9574990  31.6759997  73.9059992  64.5114990  31.0999997
  73.4074035  63.8373351  31.3324770  73.4359992  59.6334990  23.1469997
  73.6179992  59.1844990  23.9719997  72.8359992  59.0494990  22.6829997
  73.3798187  59.4930563  23.1972721  75.3019992  59.7014990  19.6749997
  75.7149992  58.9804990  19.1999997  75.9839992  60.3704990  19.7329997
  75.4506060  59.6933741  19.6179233  79.6409992  49.5554990  92.7089997
  80.3729992  49.8104990  93.2699997  78.8609992  49.7604990  93.2239997
  79.6357684  49.6181457  92.8554774  57.5829992  59.7064990  22.8019997
  56.6579992  59.9144990  22.6729997  58.0369992  60.1904990  22.1119997
  57.5176298  59.8004311  22.6910433  69.5999992  74.2164990  30.7469997
  68.6959992  74.3814990  30.4809997  70.0289992  75.0694990  30.6809997
  69.5342017  74.3544184  30.7016495  59.5099992  74.4734990  28.5069997
  59.4909992  74.0474990  29.3639997  60.3139992  74.1544990  28.0979997
  59.6161393  74.3720297  28.5690155  61.6509992  73.1834990  27.1619997
  61.4319992  72.2664990  27.3319997  62.4749992  73.3234990  27.6279997
  61.7324702  73.0770523  27.2482510  67.6969992  59.3174990  27.1549997
  67.0219992  58.6874990  27.4109997  68.2609992  58.8334990  26.5519997
  67.6809363  59.1658886  27.1084810  72.8389992  57.4244990  27.2679997
  73.4429992  57.9724990  26.7659997  71.9699992  57.7434990  27.0269997
  72.8040419  57.5425628  27.1667741  74.5659992  58.5634990  25.6009997
  75.1779992  58.0494990  25.0739997  74.9489992  59.4404990  25.6239997
  74.7013867  58.6117613  25.5320888  60.0229992  57.9514990  24.9769997
  59.2459992  57.7164990  24.4699997  60.5539992  57.1544990  24.9859997
  59.9883735  57.8116462  24.9088090  58.8599992  57.7494990  20.7809997
  59.2989992  58.3604990  20.1889997  58.2259992  58.2874990  21.2549997
  58.8343859  57.9059076  20.7640287  64.6029992  57.8774990  24.7899997
  65.4769992  58.2664990  24.7609997  64.4669992  57.6624990  25.7129997
  64.7041953  57.9016654  24.9107599  85.6709992  44.9624990  85.4469997
  86.2349992  44.4164990  84.8999997  85.5229992  44.4414990  86.2359997
  85.7283037  44.8171798  85.4787212  70.1589992  57.9074990  26.4399997
  70.2359992  58.0034990  25.4899997  69.8839992  57.0004990  26.5679997
  70.1323233  57.7979093  26.3273665  71.5129992  57.9334990  22.1319997
  70.8099992  58.5484990  21.9219997  71.0679992  57.0964990  22.2629997
  71.3566550  57.9044679  22.1209819  58.7609992  73.6974990  21.6779997
  58.0759992  73.6594990  21.0109997  58.7639992  74.6094990  21.9659997
  58.6676806  73.8156669  21.6256961  60.7209992  59.6654990  19.2229997
  61.2119992  59.0354990  18.6959997  61.3439992  59.9614990  19.8859997
  60.8725304  59.6192387  19.2404922  65.7469992  59.9584990  21.6799997
  65.9249992  59.3114990  22.3629997  65.6929992  60.7924990  22.1469997
  65.7640678  59.9826615  21.8366283  67.6249992  74.9064990  20.0759997
  68.4909992  75.2734990  19.8979997  67.3779992  74.4674990  19.2619997
  67.7101853  74.8974021  19.9415813  60.5789992  74.6174990  18.7029997
  60.3109992  74.9034990  19.5769997  61.3499992  74.0714990  18.8559997
  60.6465926  74.5827790  18.8431188  73.5519992  73.2204990  34.9049997
  72.7699992  73.0344990  34.3849997  73.4799992  74.1504990  35.1219997
  73.4352975  73.3206973  34.8631822  87.9579992  67.1074990  24.9359997
  88.0469992  68.0514990  24.8029997  87.3189992  66.8324990  24.2779997
  87.8838378  67.1993846  24.8289258  86.8909992  66.3624990  28.3549997
  86.8519992  65.7164990  29.0599997  86.5679992  65.8954990  27.5829997
  86.8420469  66.2110005  28.3472803  80.6729992  41.0994990  81.8649997
  80.3549992  40.1964990  81.8299997  81.4539992  41.1014990  81.3129997
  80.7351560  40.9761148  81.7854975  79.2589992  65.9764990  29.9479997
  79.2999992  65.3514990  30.6709997  79.9619992  66.6004990  30.1299997
  79.3596223  65.9752318  30.0716164  90.5969992  69.3014990  26.6559997
  90.1559992  68.5814990  27.1069997  90.5839992  70.0224990  27.2859997
  90.5349215  69.3004303  26.8028088  80.1829992  70.4264990  28.4829997
  79.8129992  69.6244990  28.1129997  81.1239992  70.2584990  28.5289997
  80.2595984  70.2939649  28.4385586  76.7929992  64.0864990  23.8749997
  76.3449992  64.9324990  23.8569997  76.2319992  63.5074990  23.3599997
  76.6558546  64.1239004  23.8028874  77.5029992  66.2484990  26.0009997
  77.7169992  65.4784990  26.5279997  78.2409992  66.3384990  25.3979997
  77.6320073  66.1553546  25.9915786  87.7079992  74.4054990  26.8679997
  88.3279992  73.7294990  26.5949997  87.4999992  74.1874990  27.7769997
  87.7647679  74.2835032  26.9534518  85.2799992  68.7944990  28.7609997
  85.5839992  68.1084990  28.1659997  86.0019992  68.9134990  29.3789997
  85.4191240  68.7167325  28.7630941  88.4209992  63.1884990  29.0879997
  88.5629992  62.2424990  29.1079997  88.3149992  63.3954990  28.1599997
  88.4261051  63.0869706  28.9652249  81.5759992  61.2904990  26.3609997
  81.6189992  62.1504990  25.9419997  81.1179992  60.7374990  25.7269997
  81.5200163  61.3334174  26.2180604  89.2979992  61.4214990  24.7609997
  89.9439992  61.0924990  25.3859997  89.8079992  61.9384990  24.1389997
  89.4554289  61.4464333  24.7623681  84.2969992  43.3514990  87.8609997
  83.4619992  43.8054990  87.9709997  84.8209992  43.6274990  88.6129997
  84.2535070  43.4509677  87.9777134  78.1959992  63.6874990  27.1229997
  78.8499992  63.1374990  27.5549997  78.2199992  63.4134990  26.2059997
  78.2887199  63.5752178  27.0581650  83.3519992  65.2374990  26.3379997
  83.9679992  64.7104990  26.8469997  82.7659992  64.5974990  25.9339997
  83.3570652  65.0788919  26.3530277  80.3859992  60.2084990  30.4349997
  80.1669992  60.7384990  29.6679997  79.7179992  60.4344990  31.0819997
  80.2656975  60.3115979  30.4175123  87.7549992  69.7084990  23.9789997
  87.4589992  69.3854990  23.1269997  87.4309992  70.6084990  24.0199997
  87.6707458  69.7859678  23.8680598  82.9549992  67.8834990  30.7219997
  82.2149992  68.4824990  30.8259997  83.6689992  68.4374990  30.4059997
  82.9503146  68.0402611  30.6935150  79.9799992  62.1004990  28.3869997
  80.5929992  62.7334990  28.7599997  80.4919992  61.6284990  27.7309997
  80.1331933  62.1233380  28.3493477  81.3619992  69.8484990  31.5089997
  81.3569992  70.7274990  31.1309997  80.5089992  69.7644990  31.9339997
  81.2459199  69.9575901  31.5146942  77.4839992  69.5194990  22.2909997
  77.2119992  69.7484990  21.4019997  77.5289992  70.3564990  22.7519997
  77.4528360  69.6641034  22.2316186  91.1089992  71.1404990  29.0039997
  90.1669992  71.1994990  29.1659997  91.3849992  72.0464990  28.8669997
  91.0175865  71.2710299  29.0076174  84.4119992  57.5134990  27.8869997
  84.2949992  56.5654990  27.8329997  83.5569992  57.8464990  28.1599997
  84.2803691  57.4285842  27.9165072  84.8409992  49.5644990  79.5459997
  84.0959992  49.0564990  79.2229997  84.7069992  49.6134990  80.4919997
  84.7208633  49.5015714  79.6297563  89.3609992  72.9214990  25.6289997
  89.7859992  72.2144990  25.1439997  89.6779992  73.7234990  25.2119997
  89.4620266  72.9330201  25.5062461  90.5199992  70.8224990  24.1379997
  90.2629992  70.1324990  23.5259997  90.5909992  70.3794990  24.9829997
  90.4944322  70.6681568  24.1685372  92.2059992  69.3894990  32.6149997
  92.3459992  68.7974990  31.8759997  92.3739992  70.2624990  32.2589997
  92.2478734  69.4264041  32.4656937  86.6789992  66.3514990  22.3879997
  85.9669992  66.8864990  22.0359997  87.3699992  66.4064990  21.7279997
  86.6749704  66.4321663  22.2505797  86.7329992  64.8084990  19.4259997
  87.4339992  64.8314990  20.0779997  87.0349992  64.1804990  18.7699997
  86.8698202  64.7267223  19.4265591  90.0849992  66.5604990  23.3389997
  89.3529992  66.7894990  23.9119997  90.5319992  65.8474990  23.7939997
  90.0452753  66.4953984  23.4789698  89.9819992  64.7354990  32.4069997
  90.0619992  65.4984990  32.9789997  89.3809992  65.0144990  31.7169997
  89.9116547  64.8777468  32.3920029  81.7299992  67.1914990  25.2219997
  81.3999992  66.8204990  24.4039997  82.3179992  66.5204990  25.5689997
  81.7643182  67.0500648  25.1569898  83.0969992  70.6194990  27.9029997
  83.0019992  70.0404990  27.1469997  83.8259992  70.2484990  28.3989997
  83.1826011  70.4900572  27.8666011  82.0969992  65.9594990  28.8549997
  82.6619992  66.0814990  28.0929997  82.4149992  66.5974990  29.4939997
  82.2173619  66.0624388  28.8370019  91.9909992  48.6974990  88.3319997
  92.6329992  49.1534990  87.7889997  91.1609992  48.8104990  87.8699997
  91.9667352  48.7753223  88.1950234  88.4059992  71.4634990  29.5889997
  88.1649992  72.1254990  30.2369997  88.2079992  70.6284990  30.0139997
  88.3462661  71.4412704  29.7351008  82.9769992  70.3594990  33.5729997
  82.6649992  71.1414990  34.0279997  82.3269992  70.2064990  32.8869997
  82.8464858  70.4457882  33.5425344  88.9559992  65.7234990  21.0249997
  89.5349992  65.8734990  21.7709997  89.3699992  66.1934990  20.3009997
  89.0913358  65.8075966  21.0293935  79.8969992  66.5574990  32.8009997
  79.9669992  67.2084990  33.4999997  79.0059992  66.6604990  32.4659997
  79.7861690  66.6604261  32.8513026  86.6819992  72.4594990  24.4599997
  87.1559992  72.7554990  25.2369997  86.1189992  73.1984990  24.2269997
  86.6707890  72.5998047  24.5348084  81.2159992  72.4304990  34.3359997
  81.2239992  72.2944990  33.3889997  80.2999992  72.3134990  34.5879997
  81.0932528  72.3960475  34.2403226  92.6539992  57.4734990  20.8369997
  91.7539992  57.6114990  21.1329997  92.9059992  58.3044990  20.4359997
  92.5647727  57.6048705  20.8232935  80.7199992  66.2604990  22.8109997
  80.4279992  67.0284990  22.3199997  80.0459992  65.6014990  22.6479997
  80.5888843  66.2764537  22.7217695  93.8439992  71.8394990  19.2139997
  93.9169992  72.7784990  19.3839997  94.7489992  71.5344990  19.1579997
  93.9764170  71.9268294  19.2297045  76.8129992  68.6234990  31.6259997
  76.3119992  68.5954990  30.8109997  76.8189992  67.7184990  31.9359997
  76.7451690  68.4972234  31.5562770  86.3609992  49.7484990  90.7829997
  86.0149992  49.3664990  91.5889997  86.1609992  50.6814990  90.8539997
  86.2865399  49.8223489  90.9030401  76.5639992  71.4044990  28.5099997
  77.5099992  71.2594990  28.4909997  76.4509992  72.1884990  29.0469997
  76.6783578  71.4906708  28.5800300  94.7609992  72.0704990  34.1929997
  94.7119992  71.1144990  34.1549997  93.9349992  72.3374990  34.5939997
  94.6425096  71.9758416  34.2420698  86.1539992  75.4164990  22.8749997
  86.0789992  75.2954990  21.9279997  86.1869992  76.3654990  22.9929997
  86.1482083  75.5282639  22.7614973  79.8079992  74.2054990  24.6559997
  79.9599992  73.8574990  25.5339997  78.9569992  73.8484990  24.3999997
  79.7138344  74.1095891  24.7416851  89.2559992  74.5704990  19.8769997
  89.6309992  73.8264990  19.4059997  89.2599992  74.3004990  20.7949997
  89.3078969  74.4320920  19.9366475  88.9249992  74.4964990  22.6259997
  87.9899992  74.5964990  22.8049997  89.2049992  73.7864990  23.2049997
  88.8349471  74.4142944  22.7286678  79.0619992  69.9474990  32.6689997
  79.2779992  69.5854990  33.5289997  78.2069992  69.5724990  32.4599997
  78.9759082  69.8473377  32.7582396  81.6809992  58.4174990  28.6649997
  80.8189992  58.3304990  28.2569997  81.6589992  59.2734990  29.0929997
  81.5600557  58.5213078  28.6670202  86.3439992  58.1394990  32.0399997
  86.7639992  57.7244990  32.7929997  85.4109992  57.9604990  32.1569997
  86.2753736  58.0584921  32.1588950  90.4329992  66.7554990  18.6539997
  90.4749992  66.5334990  17.7239997  91.2819992  67.1544990  18.8439997
  90.5535253  66.7790510  18.5523804  89.4569992  44.2454990  79.4059997
  90.3489992  44.1074990  79.7249997  89.5139992  45.0364990  78.8689997
  89.5867380  44.3334777  79.3770981  86.0059992  60.6314990  19.3249997
  85.7519992  60.6504990  20.2469997  85.7489992  59.7604990  19.0229997
  85.9364508  60.5163292  19.4104786  81.7719992  63.3824990  29.7599997
  81.1299992  63.3424990  30.4689997  81.8089992  64.3094990  29.5219997
  81.6891659  63.5022540  29.8248463  81.7689992  63.6034990  24.6719997
  80.8759992  63.2634990  24.6129997  82.2199992  63.2264990  23.9159997
  81.7077185  63.5060220  24.5617698  87.3049992  64.0194990  23.4889997
  86.8959992  64.8344990  23.1969997  88.0249992  63.8794990  22.8749997
  87.3464439  64.1120383  23.3660098  88.3089992  63.4654990  26.3029997
  88.1139992  64.0714990  25.5879997  88.4909992  62.6324990  25.8689997
  88.3069195  63.4357936  26.1464079  79.5219992  63.7034990  31.6269997
  79.4839992  64.1034990  32.4959997  79.0309992  62.8864990  31.7169997
  79.4504374  63.6478228  31.7580980  82.8879992  61.0774990  18.4259997
  82.4569992  60.6324990  19.1549997  82.1699992  61.4484990  17.9129997
  82.7319176  61.0667063  18.4564913  76.1299992  60.8194990  25.4779997
  76.7609992  60.7904990  26.1969997  76.5799992  60.3944990  24.7469997
  76.2771082  60.7581269  25.4776307  77.4039992  61.5654990  20.9019997
  77.8789992  62.1564990  20.3169997  76.6869992  62.0954990  21.2489997
  77.3720406  61.7181011  20.8688495  87.5729992  65.1034990  30.9739997
  87.8969992  64.4724990  30.3309997  87.1329992  64.5694990  31.6349997
  87.5578707  64.9448261  30.9753195  79.9659992  48.8594990  85.3149997
  80.7109992  48.8564990  84.7139997  80.0439992  48.0354990  85.7969997
  80.0784158  48.7477928  85.2979136  84.3509992  61.0314990  25.7579997
  83.4399992  61.0884990  26.0469997  84.8559992  60.9714990  26.5689997
  84.2946873  61.0311838  25.9071190  79.1789992  62.6604990  24.5849997
  78.2899992  62.7594990  24.2449997  79.4749992  61.8184990  24.2389997
  79.0974001  62.5602473  24.4917318  82.8319992  62.6604990  22.2419997
  83.7639992  62.7894990  22.4199997  82.6169992  63.3294990  21.5919997
  82.9304472  62.7685817  22.1784873  81.5059992  63.8544990  19.8079997
  80.9639992  63.4754990  19.1169997  82.3399992  64.0494990  19.3799997
  81.5444390  63.8289091  19.6554374  92.0429992  75.9374990  35.2989997
  92.2429992  76.3614990  34.4649997  92.6989992  76.2814990  35.9059997
  92.1589937  76.0419993  35.2668645  85.6709992  63.8184990  27.6449997
  86.2349992  63.2724990  27.0979997  85.5229992  63.2974990  28.4339997
  85.7283037  63.6731798  27.6767212  80.6729992  59.9554990  24.0639997
  80.3549992  59.0524990  24.0279997  81.4539992  59.9574990  23.5109997
  80.7351079  59.8322240  23.9842908  84.2969992  62.2074990  30.0589997
  83.4619992  62.6614990  30.1699997  84.8209992  62.4834990  30.8109997
  84.2536072  62.3068960  30.1758118  84.8409992  68.4204990  21.7439997
  84.0959992  67.9124990  21.4219997  84.7069992  68.4694990  22.6899997
  84.7209334  68.3576144  21.8278892  91.9909992  67.5534990  30.5309997
  92.6329992  68.0094990  29.9869997  91.1609992  67.6664990  30.0679997
  91.9666536  67.6311813  30.3939579  76.9739992  47.3194990  90.6299997
  77.1969992  46.9014990  91.4619997  76.3719992  46.7074990  90.2079997
  76.9230802  47.1795216  90.6867561  88.7389992  61.2344990  19.9429997
  87.7999992  61.3454990  19.7919997  89.0359992  62.0904990  20.2499997
  88.6506136  61.3654977  19.9638568  86.3609992  68.6044990  32.9809997
  86.0149992  68.2224990  33.7879997  86.1609992  69.5374990  33.0519997
  86.2865987  68.6784013  33.1010443  89.4569992  63.1014990  21.6039997
  90.3489992  62.9634990  21.9229997  89.5139992  63.8924990  21.0669997
  89.5867380  63.1894777  21.5750981  79.9659992  67.7154990  27.5139997
  80.7109992  67.7124990  26.9119997  80.0439992  66.8914990  27.9949997
  80.0783365  67.6037395  27.4967412  86.9669992  69.8784990  20.7689997
  86.6719992  70.7054990  21.1509997  86.2639992  69.2594990  20.9659997
  86.8316379  69.9079182  20.8478636  76.9739992  66.1754990  32.8289997
  77.1969992  65.7574990  33.6599997  76.3719992  65.5634990  32.4059997
  76.9231513  66.0354617  32.8856722  88.6109992  71.0664990  32.9309997
  87.7099992  71.2494990  32.6639997  88.6449992  71.3254990  33.8519997
  88.4923861  71.1265245  33.0189517  94.3419992  63.3104990  21.2989997
  93.7879992  62.9144990  20.6259997  94.4429992  64.2214990  21.0209997
  94.2798589  63.3793904  21.1693839  92.6369992  72.0964990  21.7639997
  92.2649992  71.2714990  22.0729997  92.9149992  71.9134990  20.8659997
  92.6235807  71.9587031  21.6850063  89.7979992  66.9044990  28.7849997
  88.8699992  66.6734990  28.7579997  90.2489992  66.1274990  28.4549997
  89.7318165  66.7677785  28.7366772  83.9909992  46.8364990  92.8429997
  83.6949992  46.6714990  91.9479997  84.9219992  46.6164990  92.8329997
  84.0763909  46.7841274  92.7190110  82.3409992  71.2334990  24.9179997
  82.8679992  72.0064990  24.7179997  81.4609992  71.4574990  24.6159997
  82.2942121  71.3697344  24.8497460  78.0959992  66.0954990  19.5049997
  78.7119992  66.7224990  19.8849997  77.2339992  66.4114990  19.7769997
  78.0637678  66.2239423  19.5937192  83.7679992  68.8964990  24.4939997
  83.5269992  69.8214990  24.5359997  83.0279992  68.4374990  24.8909997
  83.6349463  68.9610969  24.5534279  84.2829992  73.0454990  30.8089997
  84.6459992  73.8994990  30.5759997  84.8149992  72.7534990  31.5499997
  84.4045141  73.1228907  30.8772079  82.4509992  73.9174990  24.0399997
  81.5019992  74.0234990  24.0909997  82.8029992  74.7384990  24.3839997
  82.3685647  74.0430029  24.0934882  87.8269992  69.1444990  30.5099997
  87.4009992  68.9164990  31.3359997  88.4079992  68.4054990  30.3279997
  87.8472088  69.0134393  30.5984454  90.0299992  70.0734990  19.5839997
  90.3829992  69.6934990  20.3879997  89.0809992  69.9794990  19.6709997
  89.9500956  70.0087867  19.7058005  90.4859992  73.6964990  32.9789997
  89.8839992  73.1404990  32.4839997  90.7669992  74.3634990  32.3529997
  90.4415757  73.7105755  32.8265657  94.5329992  74.5524990  19.7849997
  95.2769992  75.1384990  19.6449997  93.8389992  75.1214990  20.1179997
  94.5409809  74.7095830  19.8108572  90.8959992  68.7454990  21.8109997
  90.6189992  68.0174990  22.3669997  91.8229992  68.8644990  22.0159997
  90.9834419  68.6619436  21.9148264  88.6109992  52.2104990  90.7329997
  87.7099992  52.3934990  90.4649997  88.6449992  52.4694990  91.6539997
  88.4923021  52.2705505  90.8208206  78.2589992  72.7334990  30.8219997
  78.4759992  71.8014990  30.7909997  78.5059992  73.0084990  31.7049997
  78.3220948  72.6430976  30.9371268  84.1209992  71.1854990  18.0309997
  84.3599992  70.4364990  17.4839997  83.8519992  70.7974990  18.8639997
  84.1173233  71.0306865  18.0687791  83.0579992  70.7554990  20.4869997
  83.2049992  70.2354990  21.2769997  83.0549992  71.6624990  20.7939997
  83.0777102  70.8068964  20.6365907  79.5109992  68.0074990  20.9979997
  78.8249992  68.3604990  21.5649997  80.0339992  68.7704990  20.7509997
  79.4878402  68.1588912  21.0421783  87.3419992  60.6704990  31.2769997
  88.0409992  60.7444990  31.9269997  86.9619992  59.8054990  31.4309997
  87.3862662  60.5637050  31.3867412  88.1269992  60.3224990  22.3739997
  88.3469992  60.7934990  21.5699997  88.6849992  60.7164990  23.0439997
  88.2326044  60.4402946  22.3545207  85.7959992  72.4524990  21.2369997
  84.9789992  72.9494990  21.2889997  86.3249992  72.9284990  20.5959997
  85.7558125  72.5847000  21.1575289  85.3269992  62.0504990  23.2089997
  86.1389992  62.5544990  23.2549997  85.0819992  61.9054990  24.1229997
  85.4051091  62.0999366  23.3388552  86.2109992  59.1314990  24.1469997
  85.8639992  59.7484990  24.7909997  86.8689992  59.6324990  23.6649997
  86.2524430  59.2836860  24.1700046  83.1339992  73.4964990  21.2179997
  83.2949992  74.2964990  20.7179997  82.9369992  73.8034990  22.1029997
  83.1293906  73.6473690  21.2692316  94.3419992  44.4544990  79.0999997
  93.7879992  44.0584990  78.4279997  94.4429992  45.3654990  78.8229997
  94.2797084  44.5233565  78.9704381  81.8679992  60.1944990  20.8339997
  81.7849992  61.0824990  21.1809997  82.7579992  59.9294990  21.0659997
  81.9769331  60.2801177  20.9128067  90.6689992  64.6934990  27.3239997
  89.8719992  64.2784990  26.9959997  91.1139992  64.0034990  27.8149997
  90.6200367  64.5433372  27.3454897  80.1269992  70.6214990  19.8939997
  80.7189992  71.3214990  20.1709997  80.5859992  70.1884990  19.1749997
  80.2701652  70.6587686  19.8346515  78.4429992  63.2864990  19.0099997
  78.3979992  64.2254990  19.1889997  77.5549992  63.0504990  18.7409997
  78.3168166  63.3831698  18.9981507  91.7559992  73.9494990  28.9459997
  91.5999992  74.6284990  28.2889997  92.6879992  74.0214990  29.1489997
  91.8607328  74.0521586  28.8835529  79.2509992  58.0674990  27.6829997
  79.0219992  58.1264990  26.7559997  78.8079992  57.2764990  27.9899997
  79.1597387  57.9686413  27.5975223  78.1809992  72.0084990  23.8439997
  77.3489992  72.4804990  23.8709997  78.7269992  72.5184990  23.2449997
  78.1408710  72.1420317  23.7667570  77.4699992  74.6204990  35.1739997
  78.0099992  74.4044990  35.9339997  76.9879992  73.8154990  34.9839997
  77.4788485  74.4820463  35.2524870  86.1589992  73.0484990  18.1689997
  85.5149992  72.4174990  18.4909997  86.9209992  72.5174990  17.9379997
  86.1738708  72.8903171  18.1818462  90.7629992  72.8654990  18.4029997
  91.0459992  72.0704990  18.8559997  91.5029992  73.0984990  17.8419997
  90.9017295  72.7882349  18.3891469  94.3049992  50.2554990  91.9369997
  93.4539992  50.4934990  91.5699997  94.8959992  50.2384990  91.1839997
  94.2682468  50.2858251  91.7848902  81.7179992  68.7744990  18.2609997
  81.7819992  67.9804990  18.7909997  82.3709992  68.6564990  17.5709997
  81.8150483  68.6497496  18.2403407  87.0699992  69.8214990  17.9969997
  86.8019992  70.0024990  18.8969997  86.8639992  68.8964990  17.8649997
  87.0053443  69.7211873  18.1026643  89.7669992  68.3164990  32.9439997
  90.5119992  68.9054990  32.8249997  89.0089992  68.8984990  33.0069997
  89.7665289  68.4757067  32.9362292  82.8669992  66.7474990  20.5669997
  82.4079992  66.2634990  21.2519997  83.1219992  66.0784990  19.9309997
  82.8385997  66.5908491  20.5748734  83.9379992  64.9904990  18.8289997
  83.7579992  64.8354990  17.9019997  84.8879992  65.0984990  18.8739997
  84.0417804  64.9838821  18.7081966  93.3279992  67.3444990  18.2749997
  93.0549992  66.9204990  17.4619997  93.3679992  68.2764990  18.0579997
  93.2960201  67.4123523  18.1343548  82.9079992  60.3644990  31.4979997
  83.4439992  60.8164990  30.8459997  82.0559992  60.2564990  31.0749997
  82.8661795  60.4117444  31.3516211  84.4899992  65.8044990  31.7369997
  85.2409992  65.6484990  31.1639997  84.1509992  66.6564990  31.4619997
  84.5469587  65.8983149  31.6214060  90.2219992  66.4084990  34.8429997
  89.9409992  67.1174990  34.2649997  91.1649992  66.3354990  34.6919997
  90.3109272  66.4956704  34.7434976  83.7139992  57.8214990  31.9289997
  83.6159992  58.7674990  31.8239997  82.9709992  57.4484990  31.4529997
  83.6002123  57.9006811  31.8503204  92.6369992  53.2404990  79.5649997
  92.2649992  52.4154990  79.8749997  92.9149992  53.0574990  78.6679997
  92.6235997  53.1026160  79.4861551  83.8359992  75.6804990  19.8299997
  84.7689992  75.8384990  19.9739997  83.5709992  76.3564990  19.2049997
  83.9279846  75.7934567  19.7652930  77.4039992  70.3174990  19.3129997
  78.3179992  70.3964990  19.5859997  77.4109992  69.6304990  18.6469997
  77.5300624  70.2354074  19.2603045  76.9229992  73.7904990  26.1949997
  76.5889992  72.9104990  26.3669997  77.1449992  74.1364990  27.0599997
  76.9072565  73.7167410  26.3354263  94.4719992  74.6004990  29.1759997
  94.4499992  74.7854990  30.1139997  95.1619992  75.1684990  28.8349997
  94.5623383  74.7027104  29.2584580  94.0349992  74.1674990  32.0969997
  93.5479992  73.4314990  31.7259997  94.5839992  73.7734990  32.7749997
  94.0426101  74.0136267  32.1379034  93.7869992  68.2134990  22.2499997
  94.6369992  68.6344990  22.3769997  93.7919992  67.4734990  22.8569997
  93.9041143  68.1711106  22.3494732  94.1809992  66.2674990  24.0729997
  93.4549992  65.7874990  24.4709997  94.7619992  66.4724990  24.8049997
  94.1602504  66.2295592  24.2264199  93.9399992  69.0524990  29.0209997
  94.7739992  68.6744990  28.7399997  94.0519992  69.9954990  28.9019997
  94.0691917  69.1282954  28.9664844  92.4259992  71.9304990  31.3279997
  91.7789992  72.2554990  31.9529997  91.9089992  71.4894990  30.6539997
  92.2674112  71.9154133  31.3225272  94.4489992  66.1684990  20.4639997
  93.9279992  66.5244990  19.7459997  94.4159992  66.8434990  21.1429997
  94.3730955  66.3085023  20.4572634  89.7979992  48.0484990  86.5869997
  88.8699992  47.8174990  86.5599997  90.2489992  47.2714990  86.2569997
  89.7318165  47.9117785  86.5386772  92.7979992  63.4074990  19.0149997
  92.8949992  64.0744990  18.3349997  92.6579992  62.5924990  18.5339997
  92.7923407  63.3885670  18.8568312  91.9679992  64.7884990  24.6359997
  91.8179992  63.8434990  24.6159997  91.6139992  65.0694990  25.4799997
  91.8996351  64.6971656  24.7473202  77.0029992  66.8664990  28.6469997
  77.1869992  66.7844990  27.7109997  77.8519992  66.7424990  29.0699997
  77.1430132  66.8385066  28.5761460  92.0459992  60.8154990  18.1329997
  92.6559992  60.4444990  18.7699997  91.2089992  60.3944990  18.3289997
  92.0163704  60.7077942  18.2467077  91.6779992  62.3704990  23.0989997
  91.9579992  61.4634990  23.2229997  92.4369992  62.8044990  22.7099997
  91.8189258  62.3050935  23.0633691  92.2919992  59.6334990  23.1469997
  92.4739992  59.1844990  23.9719997  91.6919992  59.0494990  22.6829997
  92.2358187  59.4930563  23.1972721  77.8219992  60.4494990  27.6789997
  78.2669992  59.6574990  27.9809997  78.2879992  61.1654990  28.1089997
  77.9459718  60.4379546  27.7785247  76.1259992  63.4484990  28.7479997
  76.6179992  63.2274990  27.9569997  76.4879992  64.2884990  29.0289997
  76.2422923  63.5318480  28.6777389  94.1579992  59.7014990  19.6749997
  94.5709992  58.9804990  19.1999997  94.8399992  60.3704990  19.7329997
  94.3066060  59.6933741  19.6179233  76.4389992  59.7064990  22.8019997
  75.5139992  59.9144990  22.6729997  76.8929992  60.1904990  22.1119997
  76.3736298  59.8004311  22.6910433  82.3409992  52.3774990  82.7199997
  82.8679992  53.1504990  82.5189997  81.4609992  52.6014990  82.4179997
  82.2941793  52.5136652  82.6516304  91.2099992  74.6904990  24.7479997
  91.8619992  74.3424990  24.1399997  91.7209992  75.1784990  25.3939997
  91.3682872  74.7088248  24.7520964  76.4029992  58.4444990  31.1459997
  75.7379992  58.1984990  31.7889997  75.9599992  59.0664990  30.5689997
  76.2521168  58.4949225  31.1559830  78.5949992  71.6194990  35.2909997
  77.7739992  71.7944990  34.8299997  78.3429992  71.5464990  36.2109997
  78.4485594  71.6335728  35.3523593  81.5489992  72.5934990  31.5489997
  81.1239992  73.4034990  31.2669997  82.4529992  72.6794990  31.2469997
  81.6130706  72.7159557  31.4695836  78.9509992  75.8504990  31.5969997
  78.2299992  76.2904990  31.1459997  78.5849992  75.5994990  32.4449997
  78.8029632  75.8767235  31.6499649  81.4179992  75.4504990  30.6259997
  80.5529992  75.5224990  31.0299997  81.3629992  75.9974990  29.8429997
  81.2922289  75.5343242  30.5753749  86.1289992  75.3384990  29.8019997
  85.6719992  75.8674990  29.1479997  86.2909992  75.9414990  30.5269997
  86.0883919  75.4923990  29.8105740  88.4559992  74.2164990  30.7469997
  87.5519992  74.3814990  30.4809997  88.8849992  75.0694990  30.6809997
  88.3902017  74.3544184  30.7016495  91.0599992  75.7864990  31.0419997
  90.8789992  76.7024990  30.8309997  91.2369992  75.3754990  30.1949997
  91.0591377  75.8563365  30.8987178  78.3659992  74.4734990  28.5069997
  78.3469992  74.0474990  29.3639997  79.1699992  74.1544990  28.0979997
  78.4721393  74.3720297  28.5690155  78.0959992  47.2394990  77.3069997
  78.7119992  47.8664990  77.6859997  77.2339992  47.5554990  77.5779997
  78.0638195  47.3680810  77.3955369  80.5069992  73.1834990  27.1619997
  80.2879992  72.2664990  27.3319997  81.3309992  73.3234990  27.6279997
  80.5884702  73.0770523  27.2482510  83.0439992  73.6534990  28.0109997
  83.2569992  72.7654990  27.7239997  83.1089992  73.6184990  28.9649997
  83.0819149  73.5273338  28.1007351  86.5529992  59.3174990  27.1549997
  85.8779992  58.6874990  27.4109997  87.1169992  58.8334990  26.5519997
  86.5369363  59.1658886  27.1084810  78.8789992  57.9514990  24.9769997
  78.1019992  57.7164990  24.4699997  79.4099992  57.1544990  24.9859997
  78.8443735  57.8116462  24.9088090  77.7159992  57.7494990  20.7809997
  78.1549992  58.3604990  20.1889997  77.0819992  58.2874990  21.2549997
  77.6903859  57.9059076  20.7640287  83.4589992  57.8774990  24.7899997
  84.3329992  58.2664990  24.7609997  83.3229992  57.6624990  25.7129997
  83.5601953  57.9016654  24.9107599  90.3689992  57.9334990  22.1319997
  89.6659992  58.5484990  21.9219997  89.9239992  57.0964990  22.2629997
  90.2126550  57.9044679  22.1209819  77.6169992  73.6974990  21.6779997
  76.9319992  73.6594990  21.0109997  77.6199992  74.6094990  21.9659997
  77.5236806  73.8156669  21.6256961  79.5769992  59.6654990  19.2229997
  80.0679992  59.0354990  18.6959997  80.1999992  59.9614990  19.8859997
  79.7285304  59.6192387  19.2404922  84.6029992  59.9584990  21.6799997
  84.7809992  59.3114990  22.3629997  84.5489992  60.7924990  22.1469997
  84.6200678  59.9826615  21.8366283  83.7679992  50.0404990  82.2959997
  83.5269992  50.9654990  82.3379997  83.0279992  49.5814990  82.6919997
  83.6348934  50.1050881  82.3553191  86.4809992  74.9064990  20.0759997
  87.3469992  75.2734990  19.8979997  86.2339992  74.4674990  19.2619997
  86.5661853  74.8974021  19.9415814  93.1899992  74.4694990  22.7549997
  92.9959992  73.7214990  22.1899997  93.1509992  75.2274990  22.1719997
  93.1581645  74.4695797  22.5988131  79.4349992  74.6174990  18.7029997
  79.1669992  74.9034990  19.5769997  80.2059992  74.0714990  18.8559997
  79.5025926  74.5827790  18.8431188  92.4079992  73.2204990  34.9049997
  91.6259992  73.0344990  34.3849997  92.3359992  74.1504990  35.1219997
  92.2912975  73.3206973  34.8631822 106.8139992  67.1074990  24.9359997
 106.9029992  68.0514990  24.8029997 106.1749992  66.8324990  24.2779997
 106.7398378  67.1993846  24.8289258 105.7469992  66.3624990  28.3549997
 105.7079992  65.7164990  29.0599997 105.4239992  65.8954990  27.5829997
 105.6980469  66.2110005  28.3472803 109.4529992  69.3014990  26.6559997
 109.0119992  68.5814990  27.1069997 109.4399992  70.0224990  27.2859997
 109.3909215  69.3004303  26.8028088  99.0389992  70.4264990  28.4829997
  98.6689992  69.6244990  28.1129997  99.9799992  70.2584990  28.5289997
  99.1155984  70.2939649  28.4385586  95.6489992  64.0864990  23.8749997
  95.2009992  64.9324990  23.8569997  95.0879992  63.5074990  23.3599997
  95.5118546  64.1239004  23.8028874  96.3589992  66.2484990  26.0009997
  96.5729992  65.4784990  26.5279997  97.0969992  66.3384990  25.3979997
  96.4880073  66.1553546  25.9915786  84.2829992  54.1894990  88.6109997
  84.6459992  55.0434990  88.3779997  84.8149992  53.8974990  89.3519997
  84.4045141  54.2668907  88.6792079 106.5639992  74.4054990  26.8679997
 107.1839992  73.7294990  26.5949997 106.3559992  74.1874990  27.7769997
 106.6207679  74.2835032  26.9534518 104.1359992  68.7944990  28.7609997
 104.4399992  68.1084990  28.1659997 104.8579992  68.9134990  29.3789997
 104.2751240  68.7167325  28.7630941 112.7989992  60.3964990  29.6209997
 112.8479992  61.0064990  30.3569997 113.2249992  60.8574990  28.8979997
 112.8632851  60.5423266  29.6240532 107.2769992  63.1884990  29.0879997
 107.4189992  62.2424990  29.1079997 107.1709992  63.3954990  28.1599997
 107.2821051  63.0869706  28.9652249 100.4319992  61.2904990  26.3609997
 100.4749992  62.1504990  25.9419997  99.9739992  60.7374990  25.7269997
 100.3760163  61.3334174  26.2180604 108.1539992  61.4214990  24.7609997
 108.7999992  61.0924990  25.3859997 108.6639992  61.9384990  24.1389997
 108.3114289  61.4464333  24.7623681  97.0519992  63.6874990  27.1229997
  97.7059992  63.1374990  27.5549997  97.0759992  63.4134990  26.2059997
  97.1447199  63.5752178  27.0581650 102.2079992  65.2374990  26.3379997
 102.8239992  64.7104990  26.8469997 101.6219992  64.5974990  25.9339997
 102.2130652  65.0788919  26.3530277 113.1909992  61.8744990  31.8569997
 112.5019992  62.5324990  31.7619997 113.2059992  61.6764990  32.7939997
 113.0987756  61.9377614  31.9705795 106.6109992  69.7084990  23.9789997
 106.3149992  69.3854990  23.1269997 106.2869992  70.6084990  24.0199997
 106.5267458  69.7859678  23.8680598  82.4509992  55.0614990  81.8409997
  81.5019992  55.1674990  81.8929997  82.8029992  55.8824990  82.1859997
  82.3686214  55.1869361  81.8947317 101.8109992  67.8834990  30.7219997
 101.0709992  68.4824990  30.8259997 102.5249992  68.4374990  30.4059997
 101.8063146  68.0402611  30.6935150 109.9179992  60.7124990  26.7419997
 109.7029992  59.9464990  27.2749997 110.5739992  61.1844990  27.2549997
 109.9772673  60.6715739  26.8841972  98.8359992  62.1004990  28.3869997
  99.4489992  62.7334990  28.7599997  99.3479992  61.6284990  27.7309997
  98.9891933  62.1233380  28.3493477 100.2179992  69.8484990  31.5089997
 100.2129992  70.7274990  31.1309997  99.3649992  69.7644990  31.9339997
 100.1019199  69.9575901  31.5146942  96.3399992  69.5194990  22.2909997
  96.0679992  69.7484990  21.4019997  96.3849992  70.3564990  22.7519997
  96.3088360  69.6641034  22.2316186 109.9649992  71.1404990  29.0039997
 109.0229992  71.1994990  29.1659997 110.2409992  72.0464990  28.8669997
 109.8735865  71.2710299  29.0076174 110.2649992  59.4274990  30.4209997
 109.5289992  60.0374990  30.3839997 110.9489992  59.8424990  29.8949997
 110.2565367  59.5672562  30.3448156 103.2679992  57.5134990  27.8869997
 103.1509992  56.5654990  27.8329997 102.4129992  57.8464990  28.1599997
 103.1363691  57.4285842  27.9165072 108.2169992  72.9214990  25.6289997
 108.6419992  72.2144990  25.1439997 108.5339992  73.7234990  25.2119997
 108.3180266  72.9330201  25.5062461 109.3759992  70.8224990  24.1379997
 109.1189992  70.1324990  23.5259997 109.4469992  70.3794990  24.9829997
 109.3504322  70.6681568  24.1685372  87.8269992  50.2884990  88.3119997
  87.4009992  50.0604990  89.1379997  88.4079992  49.5494990  88.1289997
  87.8471587  50.1574084  88.4004111 111.0619992  69.3894990  32.6149997
 111.2019992  68.7974990  31.8759997 111.2299992  70.2624990  32.2589997
 111.1038734  69.4264041  32.4656937 105.5349992  66.3514990  22.3879997
 104.8229992  66.8864990  22.0359997 106.2259992  66.4064990  21.7279997
 105.5309704  66.4321663  22.2505797 105.5889992  64.8084990  19.4259997
 106.2899992  64.8314990  20.0779997 105.8909992  64.1804990  18.7699997
 105.7258202  64.7267223  19.4265591 112.9039992  65.7294990  30.6809997
 112.2519992  66.4234990  30.7699997 113.3689992  65.9394990  29.8709997
 112.8775357  65.8529544  30.5837056 108.9409992  66.5604990  23.3389997
 108.2089992  66.7894990  23.9119997 109.3879992  65.8474990  23.7939997
 108.9012753  66.4953984  23.4789698 108.8379992  64.7354990  32.4069997
 108.9179992  65.4984990  32.9789997 108.2369992  65.0144990  31.7169997
 108.7676547  64.8777468  32.3920029 100.5859992  67.1914990  25.2219997
 100.2559992  66.8204990  24.4039997 101.1739992  66.5204990  25.5689997
 100.6203182  67.0500648  25.1569898 101.9529992  70.6194990  27.9029997
 101.8579992  70.0404990  27.1469997 102.6819992  70.2484990  28.3989997
 102.0386011  70.4900572  27.8666011 107.2619992  71.4634990  29.5889997
 107.0209992  72.1254990  30.2369997 107.0639992  70.6284990  30.0139997
 107.2022662  71.4412704  29.7351008 101.8329992  70.3594990  33.5729997
 101.5209992  71.1414990  34.0279997 101.1829992  70.2064990  32.8869997
 101.7024858  70.4457882  33.5425344  90.4859992  54.8404990  90.7809997
  89.8839992  54.2844990  90.2859997  90.7669992  55.5074990  90.1549997
  90.4415757  54.8545755  90.6285657 107.8119992  65.7234990  21.0249997
 108.3909992  65.8734990  21.7709997 108.2259992  66.1934990  20.3009997
 107.9473358  65.8075966  21.0293935 105.5379992  72.4594990  24.4599997
 106.0119992  72.7554990  25.2369997 104.9749992  73.1984990  24.2269997
 105.5267890  72.5998047  24.5348084 100.0719992  72.4304990  34.3359997
 100.0799992  72.2944990  33.3889997  99.1559992  72.3134990  34.5879997
  99.9492528  72.3960475  34.2403226 111.5099992  57.4734990  20.8369997
 110.6099992  57.6114990  21.1329997 111.7619992  58.3044990  20.4359997
 111.4207727  57.6048705  20.8232935  99.5759992  66.2604990  22.8109997
  99.2839992  67.0284990  22.3199997  98.9019992  65.6014990  22.6479997
  99.4448843  66.2764537  22.7217695 112.6999992  71.8394990  19.2139997
 112.7729992  72.7784990  19.3839997 113.6049992  71.5344990  19.1579997
 112.8324170  71.9268294  19.2297045  95.6689992  68.6234990  31.6259997
  95.1679992  68.5954990  30.8109997  95.6749992  67.7184990  31.9359997
  95.6011690  68.4972234  31.5562770  95.4199992  71.4044990  28.5099997
  96.3659992  71.2594990  28.4909997  95.3069992  72.1884990  29.0469997
  95.5343578  71.4906708  28.5800300 113.6169992  72.0704990  34.1929997
 113.5679992  71.1144990  34.1549997 112.7909992  72.3374990  34.5939997
 113.4985096  71.9758416  34.2420698 104.5959992  71.6444990  33.0689997
 104.6829992  72.4704990  33.5439997 103.7319992  71.3144990  33.3179997
 104.4911944  71.7129871  33.1676558  78.6079992  42.0734990  90.1879997
  77.7149992  42.4114990  90.1209997  78.5089992  41.2174990  90.6059997
  78.4725241  42.0040941  90.2352982 105.0099992  75.4164990  22.8749997
 104.9349992  75.2954990  21.9279997 105.0429992  76.3654990  22.9929997
 105.0042083  75.5282639  22.7614973  98.6639992  74.2054990  24.6559997
  98.8159992  73.8574990  25.5339997  97.8129992  73.8484990  24.3999997
  98.5698344  74.1095891  24.7416851 108.1119992  74.5704990  19.8769997
 108.4869992  73.8264990  19.4059997 108.1159992  74.3004990  20.7949997
 108.1638969  74.4320920  19.9366475 107.7809992  74.4964990  22.6259997
 106.8459992  74.5964990  22.8049997 108.0609992  73.7864990  23.2049997
 107.6909471  74.4142944  22.7286678  97.9179992  69.9474990  32.6689997
  98.1339992  69.5854990  33.5289997  97.0629992  69.5724990  32.4599997
  97.8319082  69.8473377  32.7582396 100.5369992  58.4174990  28.6649997
  99.6749992  58.3304990  28.2569997 100.5149992  59.2734990  29.0929997
 100.4160557  58.5213078  28.6670202 105.1999992  58.1394990  32.0399997
 105.6199992  57.7244990  32.7929997 104.2669992  57.9604990  32.1569997
 105.1313736  58.0584921  32.1588950 109.2889992  66.7554990  18.6539997
 109.3309992  66.5334990  17.7239997 110.1379992  67.1544990  18.8439997
 109.4095253  66.7790510  18.5523804 104.8619992  60.6314990  19.3249997
 104.6079992  60.6504990  20.2469997 104.6049992  59.7604990  19.0229997
 104.7924508  60.5163292  19.4104786 100.6249992  63.6034990  24.6719997
  99.7319992  63.2634990  24.6129997 101.0759992  63.2264990  23.9159997
 100.5637185  63.5060220  24.5617698  90.8959992  49.8894990  79.6119997
  90.6189992  49.1614990  80.1679997  91.8229992  50.0084990  79.8179997
  90.9834181  49.8060068  79.7158972 106.1609992  64.0194990  23.4889997
 105.7519992  64.8344990  23.1969997 106.8809992  63.8794990  22.8749997
 106.2024439  64.1120383  23.3660098 107.1649992  63.4654990  26.3029997
 106.9699992  64.0714990  25.5879997 107.3469992  62.6324990  25.8689997
 107.1629195  63.4357936  26.1464079 101.7439992  61.0774990  18.4259997
 101.3129992  60.6324990  19.1549997 101.0259992  61.4484990  17.9129997
 101.5879176  61.0667063  18.4564913  96.2599992  61.5654990  20.9019997
  96.7349992  62.1564990  20.3169997  95.5429992  62.0954990  21.2489997
  96.2280406  61.7181011  20.8688495 106.4289992  65.1034990  30.9739997
 106.7529992  64.4724990  30.3309997 105.9889992  64.5694990  31.6349997
 106.4138707  64.9448261  30.9753195 103.2069992  61.0314990  25.7579997
 102.2959992  61.0884990  26.0469997 103.7119992  60.9714990  26.5689997
 103.1506873  61.0311838  25.9071190  98.0349992  62.6604990  24.5849997
  97.1459992  62.7594990  24.2449997  98.3309992  61.8184990  24.2389997
  97.9534001  62.5602473  24.4917318 101.6879992  62.6604990  22.2419997
 102.6199992  62.7894990  22.4199997 101.4729992  63.3294990  21.5919997
 101.7864472  62.7685817  22.1784873 107.6119992  60.2664990  29.0219997
 106.9349992  60.3974990  29.6859997 107.1259992  60.1114990  28.2119997
 107.4537265  60.2634665  29.0033380 100.3619992  63.8544990  19.8079997
  99.8199992  63.4754990  19.1169997 101.1959992  64.0494990  19.3799997
 100.4004390  63.8289091  19.6554374  78.2589992  53.8774990  88.6229997
  78.4759992  52.9454990  88.5919997  78.5059992  54.1524990  89.5069997
  78.3220543  53.7870877  88.7381412 104.5269992  63.8184990  27.6449997
 105.0909992  63.2724990  27.0979997 104.3789992  63.2974990  28.4339997
 104.5843037  63.6731798  27.6767212  99.5289992  59.9554990  24.0639997
  99.2109992  59.0524990  24.0279997 100.3099992  59.9574990  23.5109997
  99.5911079  59.8322240  23.9842908 103.6969992  68.4204990  21.7439997
 102.9519992  67.9124990  21.4219997 103.5629992  68.4694990  22.6899997
 103.5769334  68.3576144  21.8278892 110.8469992  67.5534990  30.5309997
 111.4889992  68.0094990  29.9869997 110.0169992  67.6664990  30.0679997
 110.8226536  67.6311813  30.3939579 107.5949992  61.2344990  19.9429997
 106.6559992  61.3454990  19.7919997 107.8919992  62.0904990  20.2499997
 107.5066136  61.3654977  19.9638568 105.2169992  68.6044990  32.9809997
 104.8709992  68.2224990  33.7879997 105.0169992  69.5374990  33.0519997
 105.1425987  68.6784013  33.1010443 108.3129992  63.1014990  21.6039997
 109.2049992  62.9634990  21.9229997 108.3699992  63.8924990  21.0669997
 108.4427380  63.1894777  21.5750981  98.8219992  67.7154990  27.5139997
  99.5669992  67.7124990  26.9119997  98.8999992  66.8914990  27.9949997
  98.9343365  67.6037395  27.4967412 105.8229992  69.8784990  20.7689997
 105.5279992  70.7054990  21.1509997 105.1199992  69.2594990  20.9659997
 105.6876379  69.9079182  20.8478636 107.4669992  71.0664990  32.9309997
 106.5659992  71.2494990  32.6639997 107.5009992  71.3254990  33.8519997
 107.3483861  71.1265245  33.0189517  84.1209992  52.3294990  75.8329997
  84.3599992  51.5804990  75.2849997  83.8519992  51.9414990  76.6649997
  84.1172804  52.1746524  75.8706352 113.1979992  63.3104990  21.2989997
 112.6439992  62.9144990  20.6259997 113.2989992  64.2214990  21.0209997
 113.1358589  63.3793904  21.1693839 113.1609992  69.1114990  34.1359997
 112.3099992  69.3494990  33.7679997 113.7519992  69.0944990  33.3819997
 113.1243831  69.1417623  33.9838448 111.4929992  72.0964990  21.7639997
 111.1209992  71.2714990  22.0729997 111.7709992  71.9134990  20.8659997
 111.4795807  71.9587031  21.6850063 108.6539992  66.9044990  28.7849997
 107.7259992  66.6734990  28.7579997 109.1049992  66.1274990  28.4549997
 108.5878165  66.7677785  28.7366772 101.1969992  71.2334990  24.9179997
 101.7239992  72.0064990  24.7179997 100.3169992  71.4574990  24.6159997
 101.1502121  71.3697344  24.8497460  96.9519992  66.0954990  19.5049997
  97.5679992  66.7224990  19.8849997  96.0899992  66.4114990  19.7769997
  96.9197678  66.2239423  19.5937192 102.6239992  68.8964990  24.4939997
 102.3829992  69.8214990  24.5359997 101.8839992  68.4374990  24.8909997
 102.4909463  68.9610969  24.5534279 103.1389992  73.0454990  30.8089997
 103.5019992  73.8994990  30.5759997 103.6709992  72.7534990  31.5499997
 103.2605141  73.1228907  30.8772079 101.3069992  73.9174990  24.0399997
 100.3579992  74.0234990  24.0909997 101.6589992  74.7384990  24.3839997
 101.2245647  74.0430029  24.0934882 106.6829992  69.1444990  30.5099997
 106.2569992  68.9164990  31.3359997 107.2639992  68.4054990  30.3279997
 106.7032088  69.0134393  30.5984454  83.0579992  51.8994990  78.2889997
  83.2049992  51.3794990  79.0789997  83.0549992  52.8064990  78.5949997
  83.0777300  51.9508975  78.4385877 108.8859992  70.0734990  19.5839997
 109.2389992  69.6934990  20.3879997 107.9369992  69.9794990  19.6709997
 108.8060956  70.0087867  19.7058005 109.3419992  73.6964990  32.9789997
 108.7399992  73.1404990  32.4839997 109.6229992  74.3634990  32.3529997
 109.2975757  73.7105755  32.8265657 113.3889992  74.5524990  19.7849997
 114.1329992  75.1384990  19.6449997 112.6949992  75.1214990  20.1179997
 113.3969809  74.7095830  19.8108572 109.7519992  68.7454990  21.8109997
 109.4749992  68.0174990  22.3669997 110.6789992  68.8644990  22.0159997
 109.8394419  68.6619436  21.9148264  97.1149992  72.7334990  30.8219997
  97.3319992  71.8014990  30.7909997  97.3619992  73.0084990  31.7049997
  97.1780948  72.6430976  30.9371268 102.9769992  71.1854990  18.0309997
 103.2159992  70.4364990  17.4839997 102.7079992  70.7974990  18.8639997
 102.9733233  71.0306865  18.0687791 101.9139992  70.7554990  20.4869997
 102.0609992  70.2354990  21.2769997 101.9109992  71.6624990  20.7939997
 101.9337102  70.8068964  20.6365907  98.3669992  68.0074990  20.9979997
  97.6809992  68.3604990  21.5649997  98.8899992  68.7704990  20.7509997
  98.3438402  68.1588912  21.0421783 106.1979992  60.6704990  31.2769997
 106.8969992  60.7444990  31.9269997 105.8179992  59.8054990  31.4309997
 106.2422662  60.5637050  31.3867412 106.9829992  60.3224990  22.3739997
 107.2029992  60.7934990  21.5699997 107.5409992  60.7164990  23.0439997
 107.0886044  60.4402946  22.3545207  79.5109992  49.1514990  78.7989997
  78.8249992  49.5044990  79.3659997  80.0339992  49.9144990  78.5529997
  79.4879033  49.3028757  78.8432644 104.6519992  72.4524990  21.2369997
 103.8349992  72.9494990  21.2889997 105.1809992  72.9284990  20.5959997
 104.6118125  72.5847000  21.1575289 104.1829992  62.0504990  23.2089997
 104.9949992  62.5544990  23.2549997 103.9379992  61.9054990  24.1229997
 104.2611091  62.0999366  23.3388552 105.0669992  59.1314990  24.1469997
 104.7199992  59.7484990  24.7909997 105.7249992  59.6324990  23.6649997
 105.1084430  59.2836860  24.1700045 101.9899992  73.4964990  21.2179997
 102.1509992  74.2964990  20.7179997 101.7929992  73.8034990  22.1029997
 101.9853906  73.6473690  21.2692316 100.7239992  60.1944990  20.8339997
 100.6409992  61.0824990  21.1809997 101.6139992  59.9294990  21.0659997
 100.8329331  60.2801177  20.9128067 109.5249992  64.6934990  27.3239997
 108.7279992  64.2784990  26.9959997 109.9699992  64.0034990  27.8149997
 109.4760367  64.5433372  27.3454897  98.9829992  70.6214990  19.8939997
  99.5749992  71.3214990  20.1709997  99.4419992  70.1884990  19.1749997
  99.1261652  70.6587686  19.8346515  97.2989992  63.2864990  19.0099997
  97.2539992  64.2254990  19.1889997  96.4109992  63.0504990  18.7409997
  97.1728166  63.3831698  18.9981507 110.6119992  73.9494990  28.9459997
 110.4559992  74.6284990  28.2889997 111.5439992  74.0214990  29.1489997
 110.7167328  74.0521586  28.8835529  97.0369992  72.0084990  23.8439997
  96.2049992  72.4804990  23.8709997  97.5829992  72.5184990  23.2449997
  96.9968710  72.1420317  23.7667570  87.3419992  41.8144990  89.0779997
  88.0409992  41.8884990  89.7279997  86.9619992  40.9494990  89.2329997
  87.3862095  41.7077402  89.1877982  96.3259992  74.6204990  35.1739997
  96.8659992  74.4044990  35.9339997  95.8439992  73.8154990  34.9839997
  96.3348485  74.4820463  35.2524870 105.0149992  73.0484990  18.1689997
 104.3709992  72.4174990  18.4909997 105.7769992  72.5174990  17.9379997
 105.0298708  72.8903171  18.1818461 109.6189992  72.8654990  18.4029997
 109.9019992  72.0704990  18.8559997 110.3589992  73.0984990  17.8419997
 109.7577295  72.7882349  18.3891469 100.5739992  68.7744990  18.2609997
 100.6379992  67.9804990  18.7909997 101.2269992  68.6564990  17.5709997
 100.6710483  68.6497496  18.2403407 102.8879992  68.4004990  35.5609997
 102.5599992  68.6714990  34.7039997 103.0399992  67.4594990  35.4729997
 102.8636412  68.3104058  35.4317804 105.9259992  69.8214990  17.9969997
 105.6579992  70.0024990  18.8969997 105.7199992  68.8964990  17.8649997
 105.8613443  69.7211873  18.1026643 101.7229992  66.7474990  20.5669997
 101.2639992  66.2634990  21.2519997 101.9779992  66.0784990  19.9309997
 101.6945997  66.5908491  20.5748734 102.7939992  64.9904990  18.8289997
 102.6139992  64.8354990  17.9019997 103.7439992  65.0984990  18.8739997
 102.8977804  64.9838821  18.7081966 112.1839992  67.3444990  18.2749997
 111.9109992  66.9204990  17.4619997 112.2239992  68.2764990  18.0579997
 112.1520201  67.4123523  18.1343548 106.5499992  61.2704990  34.5679997
 105.6019992  61.3024990  34.6999997 106.8619992  60.6444990  35.2219997
 106.4625293  61.1902934  34.6744130  88.1269992  41.4664990  80.1749997
  88.3469992  41.9374990  79.3719997  88.6849992  41.8604990  80.8459997
  88.2325851  41.5843272  80.1556134 102.6919992  75.6804990  19.8299997
 103.6249992  75.8384990  19.9739997 102.4269992  76.3564990  19.2049997
 102.7839846  75.7934567  19.7652930  96.2599992  70.3174990  19.3129997
  97.1739992  70.3964990  19.5859997  96.2669992  69.6304990  18.6469997
  96.3860624  70.2354074  19.2603045  94.9089992  75.7104990  24.3899997
  94.2619992  75.2484990  23.8579997  95.2639992  75.0384990  24.9729997
  94.8683741  75.5564785  24.3959157  95.7789992  73.7904990  26.1949997
  95.4449992  72.9104990  26.3669997  96.0009992  74.1364990  27.0599997
  95.7632565  73.7167410  26.3354263 113.3279992  74.6004990  29.1759997
 113.3059992  74.7854990  30.1139997 114.0179992  75.1684990  28.8349997
 113.4183383  74.7027104  29.2584580 112.8909992  74.1674990  32.0969997
 112.4039992  73.4314990  31.7259997 113.4399992  73.7734990  32.7749997
 112.8986101  74.0136267  32.1379034 112.6429992  68.2134990  22.2499997
 113.4929992  68.6344990  22.3769997 112.6479992  67.4734990  22.8569997
 112.7601143  68.1711106  22.3494732 113.0369992  66.2674990  24.0729997
 112.3109992  65.7874990  24.4709997 113.6179992  66.4724990  24.8049997
 113.0162504  66.2295592  24.2264199 112.7959992  69.0524990  29.0209997
 113.6299992  68.6744990  28.7399997 112.9079992  69.9954990  28.9019997
 112.9251917  69.1282954  28.9664844 111.2819992  71.9304990  31.3279997
 110.6349992  72.2554990  31.9529997 110.7649992  71.4894990  30.6539997
 111.1234112  71.9154133  31.3225272  85.7959992  53.5964990  79.0379997
  84.9789992  54.0934990  79.0909997  86.3249992  54.0724990  78.3979997
  85.7557898  53.7288123  78.9587274 113.3049992  66.1684990  20.4639997
 112.7839992  66.5244990  19.7459997 113.2719992  66.8434990  21.1429997
 113.2290955  66.3085023  20.4572634 111.6539992  63.4074990  19.0149997
 111.7509992  64.0744990  18.3349997 111.5139992  62.5924990  18.5339997
 111.6483407  63.3885670  18.8568312 110.8239992  64.7884990  24.6359997
 110.6739992  63.8434990  24.6159997 110.4699992  65.0694990  25.4799997
 110.7556351  64.6971656  24.7473202  95.8589992  66.8664990  28.6469997
  96.0429992  66.7844990  27.7109997  96.7079992  66.7424990  29.0699997
  95.9990132  66.8385066  28.5761460 111.6799992  66.7584990  34.2749997
 112.2629992  66.0234990  34.4669997 112.2439992  67.5304990  34.3219997
 111.8359781  66.7623156  34.3076146 110.9019992  60.8154990  18.1329997
 111.5119992  60.4444990  18.7699997 110.0649992  60.3944990  18.3289997
 110.8723704  60.7077942  18.2467077 110.5339992  62.3704990  23.0989997
 110.8139992  61.4634990  23.2229997 111.2929992  62.8044990  22.7099997
 110.6749258  62.3050935  23.0633691 111.1459992  62.9524990  28.5349997
 112.0789992  63.1644990  28.4999997 110.9109992  63.0534990  29.4569997
 111.2419517  62.9951844  28.6549113 111.1749992  63.6894990  31.3109997
 110.3319992  63.9574990  31.6759997 111.6179992  64.5114990  31.0999997
 111.1194035  63.8373351  31.3324770 111.1479992  59.6334990  23.1469997
 111.3299992  59.1844990  23.9719997 110.5479992  59.0494990  22.6829997
 111.0918187  59.4930563  23.1972721  85.3269992  43.1944990  81.0099997
  86.1389992  43.6984990  81.0559997  85.0819992  43.0494990  81.9239997
  85.4051091  43.2439366  81.1398552 113.0139992  59.7014990  19.6749997
 113.4269992  58.9804990  19.1999997 113.6959992  60.3704990  19.7329997
 113.1626060  59.6933741  19.6179233 110.0659992  74.6904990  24.7479997
 110.7179992  74.3424990  24.1399997 110.5769992  75.1784990  25.3939997
 110.2242872  74.7088248  24.7520964 100.4049992  72.5934990  31.5489997
  99.9799992  73.4034990  31.2669997 101.3089992  72.6794990  31.2469997
 100.4690706  72.7159557  31.4695836 104.7159992  73.9924990  34.5089997
 104.9009992  73.6594990  35.3869997 105.5629992  74.3024990  34.1869997
 104.8557291  73.9888214  34.5856140  97.8069992  75.8504990  31.5969997
  97.0859992  76.2904990  31.1459997  97.4409992  75.5994990  32.4449997
  97.6589632  75.8767235  31.6499649 100.2739992  75.4504990  30.6259997
  99.4089992  75.5224990  31.0299997 100.2189992  75.9974990  29.8429997
 100.1482289  75.5343242  30.5753749 104.9849992  75.3384990  29.8019997
 104.5279992  75.8674990  29.1479997 105.1469992  75.9414990  30.5269997
 104.9443919  75.4923990  29.8105740 107.3119992  74.2164990  30.7469997
 106.4079992  74.3814990  30.4809997 107.7409992  75.0694990  30.6809997
 107.2462017  74.3544184  30.7016495 109.9159992  75.7864990  31.0419997
 109.7349992  76.7024990  30.8309997 110.0929992  75.3754990  30.1949997
 109.9151377  75.8563365  30.8987178  97.2219992  74.4734990  28.5069997
  97.2029992  74.0474990  29.3639997  98.0259992  74.1544990  28.0979997
  97.3281393  74.3720297  28.5690155  85.8629992  44.1804990  90.1949997
  85.9819992  44.7544990  90.9519997  86.5179992  43.4924990  90.3099997
  85.9678684  44.1660205  90.3141656  99.3629992  73.1834990  27.1619997
  99.1439992  72.2664990  27.3319997 100.1869992  73.3234990  27.6279997
  99.4444702  73.0770523  27.2482510 101.8999992  73.6534990  28.0109997
 102.1129992  72.7654990  27.7239997 101.9649992  73.6184990  28.9649997
 101.9379149  73.5273338  28.1007351 105.4089992  59.3174990  27.1549997
 104.7339992  58.6874990  27.4109997 105.9729992  58.8334990  26.5519997
 105.3929363  59.1658886  27.1084810 110.5509992  57.4244990  27.2679997
 111.1549992  57.9724990  26.7659997 109.6819992  57.7434990  27.0269997
 110.5160419  57.5425628  27.1667741 112.2779992  58.5634990  25.6009997
 112.8899992  58.0494990  25.0739997 112.6609992  59.4404990  25.6239997
 112.4133867  58.6117613  25.5320888  97.7349992  57.9514990  24.9769997
  96.9579992  57.7164990  24.4699997  98.2659992  57.1544990  24.9859997
  97.7003735  57.8116462  24.9088090  96.5719992  57.7494990  20.7809997
  97.0109992  58.3604990  20.1889997  95.9379992  58.2874990  21.2549997
  96.5463859  57.9059076  20.7640287 102.3149992  57.8774990  24.7899997
 103.1889992  58.2664990  24.7609997 102.1789992  57.6624990  25.7129997
 102.4161953  57.9016654  24.9107599 107.8709992  57.9074990  26.4399997
 107.9479992  58.0034990  25.4899997 107.5959992  57.0004990  26.5679997
 107.8443233  57.7979093  26.3273665 109.2249992  57.9334990  22.1319997
 108.5219992  58.5484990  21.9219997 108.7799992  57.0964990  22.2629997
 109.0686550  57.9044679  22.1209819  86.2109992  40.2754990  81.9479997
  85.8639992  40.8924990  82.5929997  86.8689992  40.7764990  81.4669997
  86.2525290  40.4276384  81.9711635  96.4729992  73.6974990  21.6779997
  95.7879992  73.6594990  21.0109997  96.4759992  74.6094990  21.9659997
  96.3796806  73.8156669  21.6256961  98.4329992  59.6654990  19.2229997
  98.9239992  59.0354990  18.6959997  99.0559992  59.9614990  19.8859997
  98.5845304  59.6192387  19.2404922 103.4589992  59.9584990  21.6799997
 103.6369992  59.3114990  22.3629997 103.4049992  60.7924990  22.1469997
 103.4760678  59.9826615  21.8366283 105.3369992  74.9064990  20.0759997
 106.2029992  75.2734990  19.8979997 105.0899992  74.4674990  19.2619997
 105.4221853  74.8974021  19.9415814 112.0459992  74.4694990  22.7549997
 111.8519992  73.7214990  22.1899997 112.0069992  75.2274990  22.1719997
 112.0141645  74.4695797  22.5988131  98.2909992  74.6174990  18.7029997
  98.0229992  74.9034990  19.5769997  99.0619992  74.0714990  18.8559997
  98.3585926  74.5827790  18.8431188 111.2639992  73.2204990  34.9049997
 110.4819992  73.0344990  34.3849997 111.1919992  74.1504990  35.1219997
 111.1472975  73.3206973  34.8631822 125.6699992  67.1074990  24.9359997
 125.7589992  68.0514990  24.8029997 125.0309992  66.8324990  24.2779997
 125.5958378  67.1993846  24.8289258 124.6029992  66.3624990  28.3549997
 124.5639992  65.7164990  29.0599997 124.2799992  65.8954990  27.5829997
 124.5540469  66.2110005  28.3472803 116.9709992  65.9764990  29.9479997
 117.0119992  65.3514990  30.6709997 117.6739992  66.6004990  30.1299997
 117.0716223  65.9752318  30.0716164  83.1339992  54.6404990  79.0199997
  83.2949992  55.4404990  78.5189997  82.9369992  54.9474990  79.9049997
  83.1293919  54.7914140  79.0710988 128.3089992  69.3014990  26.6559997
 127.8679992  68.5814990  27.1069997 128.2959992  70.0224990  27.2859997
 128.2469215  69.3004303  26.8028088 117.8949992  70.4264990  28.4829997
 117.5249992  69.6244990  28.1129997 118.8359992  70.2584990  28.5289997
 117.9715984  70.2939649  28.4385586 114.5049992  64.0864990  23.8749997
 114.0569992  64.9324990  23.8569997 113.9439992  63.5074990  23.3599997
 114.3678546  64.1239004  23.8028874 115.2149992  66.2484990  26.0009997
 115.4289992  65.4784990  26.5279997 115.9529992  66.3384990  25.3979997
 115.3440073  66.1553546  25.9915786 125.4199992  74.4054990  26.8679997
 126.0399992  73.7294990  26.5949997 125.2119992  74.1874990  27.7769997
 125.4767679  74.2835032  26.9534518 122.9919992  68.7944990  28.7609997
 123.2959992  68.1084990  28.1659997 123.7139992  68.9134990  29.3789997
 123.1311240  68.7167325  28.7630941 131.6549992  60.3964990  29.6209997
 131.7039992  61.0064990  30.3569997 132.0809992  60.8574990  28.8979997
 131.7192851  60.5423266  29.6240532 126.1329992  63.1884990  29.0879997
 126.2749992  62.2424990  29.1079997 126.0269992  63.3954990  28.1599997
 126.1381051  63.0869706  28.9652249 119.2879992  61.2904990  26.3609997
 119.3309992  62.1504990  25.9419997 118.8299992  60.7374990  25.7269997
 119.2320163  61.3334174  26.2180604 127.0099992  61.4214990  24.7609997
 127.6559992  61.0924990  25.3859997 127.5199992  61.9384990  24.1389997
 127.1674289  61.4464333  24.7623681  92.0669992  42.0874990  91.0299997
  91.1509992  42.3494990  90.9419997  92.4029992  42.0844990  90.1329997
  91.9869789  42.1229637  90.8967829 115.9079992  63.6874990  27.1229997
 116.5619992  63.1374990  27.5549997 115.9319992  63.4134990  26.2059997
 116.0007199  63.5752178  27.0581650 121.0639992  65.2374990  26.3379997
 121.6799992  64.7104990  26.8469997 120.4779992  64.5974990  25.9339997
 121.0690652  65.0788919  26.3530277 132.0469992  61.8744990  31.8569997
 131.3579992  62.5324990  31.7619997 132.0619992  61.6764990  32.7939997
 131.9547756  61.9377614  31.9705795 118.0979992  60.2084990  30.4349997
 117.8789992  60.7384990  29.6679997 117.4299992  60.4344990  31.0819997
 117.9776975  60.3115979  30.4175123 125.4669992  69.7084990  23.9789997
 125.1709992  69.3854990  23.1269997 125.1429992  70.6084990  24.0199997
 125.3827458  69.7859678  23.8680598 120.6669992  67.8834990  30.7219997
 119.9269992  68.4824990  30.8259997 121.3809992  68.4374990  30.4059997
 120.6623146  68.0402611  30.6935150 128.7739992  60.7124990  26.7419997
 128.5589992  59.9464990  27.2749997 129.4299992  61.1844990  27.2549997
 128.8332673  60.6715739  26.8841972 117.6919992  62.1004990  28.3869997
 118.3049992  62.7334990  28.7599997 118.2039992  61.6284990  27.7309997
 117.8451933  62.1233380  28.3493477 119.0739992  69.8484990  31.5089997
 119.0689992  70.7274990  31.1309997 118.2209992  69.7644990  31.9339997
 118.9579199  69.9575901  31.5146942 115.1959992  69.5194990  22.2909997
 114.9239992  69.7484990  21.4019997 115.2409992  70.3564990  22.7519997
 115.1648360  69.6641034  22.2316186  90.6689992  45.8374990  85.1259997
  89.8719992  45.4224990  84.7969997  91.1139992  45.1474990  85.6169997
  90.6200317  45.6873197  85.1473556 128.8209992  71.1404990  29.0039997
 127.8789992  71.1994990  29.1659997 129.0969992  72.0464990  28.8669997
 128.7295865  71.2710299  29.0076174 129.1209992  59.4274990  30.4209997
 128.3849992  60.0374990  30.3839997 129.8049992  59.8424990  29.8949997
 129.1125367  59.5672562  30.3448156 122.1239992  57.5134990  27.8869997
 122.0069992  56.5654990  27.8329997 121.2689992  57.8464990  28.1599997
 121.9923691  57.4285842  27.9165072 127.0729992  72.9214990  25.6289997
 127.4979992  72.2144990  25.1439997 127.3899992  73.7234990  25.2119997
 127.1740266  72.9330201  25.5062461 128.2319992  70.8224990  24.1379997
 127.9749992  70.1324990  23.5259997 128.3029992  70.3794990  24.9829997
 128.2064322  70.6681568  24.1685372 129.9179992  69.3894990  32.6149997
 130.0579992  68.7974990  31.8759997 130.0859992  70.2624990  32.2589997
 129.9598734  69.4264041  32.4656937 124.3909992  66.3514990  22.3879997
 123.6789992  66.8864990  22.0359997 125.0819992  66.4064990  21.7279997
 124.3869704  66.4321663  22.2505797 124.4449992  64.8084990  19.4259997
 125.1459992  64.8314990  20.0779997 124.7469992  64.1804990  18.7699997
 124.5818202  64.7267223  19.4265591 131.7599992  65.7294990  30.6809997
 131.1079992  66.4234990  30.7699997 132.2249992  65.9394990  29.8709997
 131.7335357  65.8529544  30.5837056 127.7969992  66.5604990  23.3389997
 127.0649992  66.7894990  23.9119997 128.2439992  65.8474990  23.7939997
 127.7572753  66.4953984  23.4789698  80.1269992  51.7654990  77.6959997
  80.7189992  52.4654990  77.9719997  80.5859992  51.3324990  76.9769997
  80.2701172  51.8027370  77.6365163 127.6939992  64.7354990  32.4069997
 127.7739992  65.4984990  32.9789997 127.0929992  65.0144990  31.7169997
 127.6236547  64.8777468  32.3920029 119.4419992  67.1914990  25.2219997
 119.1119992  66.8204990  24.4039997 120.0299992  66.5204990  25.5689997
 119.4763182  67.0500648  25.1569898 120.8089992  70.6194990  27.9029997
 120.7139992  70.0404990  27.1469997 121.5379992  70.2484990  28.3989997
 120.8946011  70.4900572  27.8666011 119.8089992  65.9594990  28.8549997
 120.3739992  66.0814990  28.0929997 120.1269992  66.5974990  29.4939997
 119.9293619  66.0624388  28.8370019 126.1179992  71.4634990  29.5889997
 125.8769992  72.1254990  30.2369997 125.9199992  70.6284990  30.0139997
 126.0582662  71.4412704  29.7351008 126.6679992  65.7234990  21.0249997
 127.2469992  65.8734990  21.7709997 127.0819992  66.1934990  20.3009997
 126.8033358  65.8075966  21.0293935 117.6089992  66.5574990  32.8009997
 117.6789992  67.2084990  33.4999997 116.7179992  66.6604990  32.4659997
 117.4981690  66.6604261  32.8513026 124.3939992  72.4594990  24.4599997
 124.8679992  72.7554990  25.2369997 123.8309992  73.1984990  24.2269997
 124.3827890  72.5998047  24.5348084 130.3659992  57.4734990  20.8369997
 129.4659992  57.6114990  21.1329997 130.6179992  58.3044990  20.4359997
 130.2767727  57.6048705  20.8232935 118.4319992  66.2604990  22.8109997
 118.1399992  67.0284990  22.3199997 117.7579992  65.6014990  22.6479997
 118.3008843  66.2764537  22.7217695  91.7559992  55.0934990  86.7479997
  91.5999992  55.7724990  86.0909997  92.6879992  55.1654990  86.9509997
  91.8607328  55.1961586  86.6855529 131.5559992  71.8394990  19.2139997
 131.6289992  72.7784990  19.3839997 132.4609992  71.5344990  19.1579997
 131.6884170  71.9268294  19.2297045 114.5249992  68.6234990  31.6259997
 114.0239992  68.5954990  30.8109997 114.5309992  67.7184990  31.9359997
 114.4571690  68.4972234  31.5562770 114.2759992  71.4044990  28.5099997
 115.2219992  71.2594990  28.4909997 114.1629992  72.1884990  29.0469997
 114.3903578  71.4906708  28.5800300 123.4519992  71.6444990  33.0689997
 123.5389992  72.4704990  33.5439997 122.5879992  71.3144990  33.3179997
 123.3471944  71.7129871  33.1676558 123.8659992  75.4164990  22.8749997
 123.7909992  75.2954990  21.9279997 123.8989992  76.3654990  22.9929997
 123.8602083  75.5282639  22.7614973 117.5199992  74.2054990  24.6559997
 117.6719992  73.8574990  25.5339997 116.6689992  73.8484990  24.3999997
 117.4258344  74.1095891  24.7416851 126.9679992  74.5704990  19.8769997
 127.3429992  73.8264990  19.4059997 126.9719992  74.3004990  20.7949997
 127.0198969  74.4320920  19.9366475 126.6369992  74.4964990  22.6259997
 125.7019992  74.5964990  22.8049997 126.9169992  73.7864990  23.2049997
 126.5469471  74.4142944  22.7286678 116.7739992  69.9474990  32.6689997
 116.9899992  69.5854990  33.5289997 115.9189992  69.5724990  32.4599997
 116.6879082  69.8473377  32.7582396 119.3929992  58.4174990  28.6649997
 118.5309992  58.3304990  28.2569997 119.3709992  59.2734990  29.0929997
 119.2720557  58.5213078  28.6670202  79.2509992  39.2114990  85.4849997
  79.0219992  39.2704990  84.5579997  78.8079992  38.4204990  85.7919997
  79.1597387  39.1126413  85.3995223 127.3819992  61.8944990  32.8929997
 126.8679992  61.7694990  33.6909997 127.2269992  62.8074990  32.6489997
 127.2907802  62.0007433  32.9691504 128.1449992  66.7554990  18.6539997
 128.1869992  66.5334990  17.7239997 128.9939992  67.1544990  18.8439997
 128.2655253  66.7790510  18.5523804 123.7179992  60.6314990  19.3249997
 123.4639992  60.6504990  20.2469997 123.4609992  59.7604990  19.0229997
 123.6484508  60.5163292  19.4104786 119.4839992  63.3824990  29.7599997
 118.8419992  63.3424990  30.4689997 119.5209992  64.3094990  29.5219997
 119.4011659  63.5022540  29.8248463 119.4809992  63.6034990  24.6719997
 118.5879992  63.2634990  24.6129997 119.9319992  63.2264990  23.9159997
 119.4197185  63.5060220  24.5617698 125.0169992  64.0194990  23.4889997
 124.6079992  64.8344990  23.1969997 125.7369992  63.8794990  22.8749997
 125.0584439  64.1120383  23.3660098 124.1189992  64.1954990  34.9769997
 123.5559992  63.4904990  35.2979997 124.9449992  64.0744990  35.4449997
 124.1536674  64.0827176  35.0841734 126.0209992  63.4654990  26.3029997
 125.8259992  64.0714990  25.5879997 126.2029992  62.6324990  25.8689997
 126.0189195  63.4357936  26.1464079 120.5999992  61.0774990  18.4259997
 120.1689992  60.6324990  19.1549997 119.8819992  61.4484990  17.9129997
 120.4439176  61.0667063  18.4564913 113.8419992  60.8194990  25.4779997
 114.4729992  60.7904990  26.1969997 114.2919992  60.3944990  24.7469997
 113.9891082  60.7581269  25.4776307  78.1809992  53.1524990  81.6459997
  77.3489992  53.6244990  81.6729997  78.7269992  53.6624990  81.0469997
  78.1408710  53.2860317  81.5687570 115.1159992  61.5654990  20.9019997
 115.5909992  62.1564990  20.3169997 114.3989992  62.0954990  21.2489997
 115.0840406  61.7181011  20.8688495 125.2849992  65.1034990  30.9739997
 125.6089992  64.4724990  30.3309997 124.8449992  64.5694990  31.6349997
 125.2698707  64.9448261  30.9753195 122.0629992  61.0314990  25.7579997
 121.1519992  61.0884990  26.0469997 122.5679992  60.9714990  26.5689997
 122.0066873  61.0311838  25.9071190 116.8909992  62.6604990  24.5849997
 116.0019992  62.7594990  24.2449997 117.1869992  61.8184990  24.2389997
 116.8094001  62.5602473  24.4917318 120.5439992  62.6604990  22.2419997
 121.4759992  62.7894990  22.4199997 120.3289992  63.3294990  21.5919997
 120.6424472  62.7685817  22.1784873 126.4679992  60.2664990  29.0219997
 125.7909992  60.3974990  29.6859997 125.9819992  60.1114990  28.2119997
 126.3097265  60.2634665  29.0033380 119.2179992  63.8544990  19.8079997
 118.6759992  63.4754990  19.1169997 120.0519992  64.0494990  19.3799997
 119.2564390  63.8289091  19.6554374 117.3529992  68.4114990  34.9069997
 118.0849992  68.6664990  35.4689997 116.5729992  68.6164990  35.4229997
 117.3476526  68.4740438  35.0535168 123.3829992  63.8184990  27.6449997
 123.9469992  63.2724990  27.0979997 123.2349992  63.2974990  28.4339997
 123.4403037  63.6731798  27.6767212 118.3849992  59.9554990  24.0639997
 118.0669992  59.0524990  24.0279997 119.1659992  59.9574990  23.5109997
 118.4471079  59.8322240  23.9842908  77.4699992  55.7644990  92.9759997
  78.0099992  55.5484990  93.7349997  76.9879992  54.9594990  92.7859997
  77.4789101  55.6260216  93.0544364 122.0089992  62.2074990  30.0589997
 121.1739992  62.6614990  30.1699997 122.5329992  62.4834990  30.8109997
 121.9656072  62.3068960  30.1758118 122.5529992  68.4204990  21.7439997
 121.8079992  67.9124990  21.4219997 122.4189992  68.4694990  22.6899997
 122.4329334  68.3576144  21.8278892 129.7029992  67.5534990  30.5309997
 130.3449992  68.0094990  29.9869997 128.8729992  67.6664990  30.0679997
 129.6786536  67.6311813  30.3939579 126.4509992  61.2344990  19.9429997
 125.5119992  61.3454990  19.7919997 126.7479992  62.0904990  20.2499997
 126.3626136  61.3654977  19.9638568 124.0729992  68.6044990  32.9809997
 123.7269992  68.2224990  33.7879997 123.8729992  69.5374990  33.0519997
 123.9985987  68.6784013  33.1010443 127.1689992  63.1014990  21.6039997
 128.0609992  62.9634990  21.9229997 127.2259992  63.8924990  21.0669997
 127.2987380  63.1894777  21.5750981 117.6779992  67.7154990  27.5139997
 118.4229992  67.7124990  26.9119997 117.7559992  66.8914990  27.9949997
 117.7903365  67.6037395  27.4967412 124.6789992  69.8784990  20.7689997
 124.3839992  70.7054990  21.1509997 123.9759992  69.2594990  20.9659997
 124.5436379  69.9079182  20.8478636 114.6859992  66.1754990  32.8289997
 114.9089992  65.7574990  33.6599997 114.0839992  65.5634990  32.4059997
 114.6351513  66.0354617  32.8856722 121.7029992  65.6924990  35.0419997
 121.4069992  65.5274990  34.1459997 122.6339992  65.4724990  35.0309997
 121.7884401  65.6401891  34.9180189  82.0669992  54.6844990  94.5959997
  82.8349992  54.2254990  94.9369997  82.0459992  54.4584990  93.6659997
  82.1692135  54.5911680  94.5169473 126.3229992  71.0664990  32.9309997
 125.4219992  71.2494990  32.6639997 126.3569992  71.3254990  33.8519997
 126.2043861  71.1265245  33.0189517 132.0539992  63.3104990  21.2989997
 131.4999992  62.9144990  20.6259997 132.1549992  64.2214990  21.0209997
 131.9918589  63.3793904  21.1693839 130.3489992  72.0964990  21.7639997
 129.9769992  71.2714990  22.0729997 130.6269992  71.9134990  20.8659997
 130.3355807  71.9587031  21.6850063 127.5099992  66.9044990  28.7849997
 126.5819992  66.6734990  28.7579997 127.9609992  66.1274990  28.4549997
 127.4438165  66.7677785  28.7366772 120.0529992  71.2334990  24.9179997
 120.5799992  72.0064990  24.7179997 119.1729992  71.4574990  24.6159997
 120.0062121  71.3697344  24.8497460 115.8079992  66.0954990  19.5049997
 116.4239992  66.7224990  19.8849997 114.9459992  66.4114990  19.7769997
 115.7757678  66.2239423  19.5937192 121.4799992  68.8964990  24.4939997
 121.2389992  69.8214990  24.5359997 120.7399992  68.4374990  24.8909997
 121.3469463  68.9610969  24.5534279 121.9949992  73.0454990  30.8089997
 122.3579992  73.8994990  30.5759997 122.5269992  72.7534990  31.5499997
 122.1165141  73.1228907  30.8772079 120.1629992  73.9174990  24.0399997
 119.2139992  74.0234990  24.0909997 120.5149992  74.7384990  24.3839997
 120.0805647  74.0430029  24.0934882 125.5389992  69.1444990  30.5099997
 125.1129992  68.9164990  31.3359997 126.1199992  68.4054990  30.3279997
 125.5592088  69.0134393  30.5984454  88.6439992  53.0644990  93.3249997
  88.2929992  52.2074990  93.5679997  89.3699992  53.2064990  93.9319997
  88.6941590  52.9665189  93.4402889 127.7419992  70.0734990  19.5839997
 128.0949992  69.6934990  20.3879997 126.7929992  69.9794990  19.6709997
 127.6620956  70.0087867  19.7058005 128.1979992  73.6964990  32.9789997
 127.5959992  73.1404990  32.4839997 128.4789992  74.3634990  32.3529997
 128.1535757  73.7105755  32.8265657 132.2449992  74.5524990  19.7849997
 132.9889992  75.1384990  19.6449997 131.5509992  75.1214990  20.1179997
 132.2529809  74.7095830  19.8108572 128.6079992  68.7454990  21.8109997
 128.3309992  68.0174990  22.3669997 129.5349992  68.8644990  22.0159997
 128.6954419  68.6619436  21.9148264 115.9709992  72.7334990  30.8219997
 116.1879992  71.8014990  30.7909997 116.2179992  73.0084990  31.7049997
 116.0340948  72.6430976  30.9371268 121.8329992  71.1854990  18.0309997
 122.0719992  70.4364990  17.4839997 121.5639992  70.7974990  18.8639997
 121.8293233  71.0306865  18.0687791 120.7699992  70.7554990  20.4869997
 120.9169992  70.2354990  21.2769997 120.7669992  71.6624990  20.7939997
 120.7897102  70.8068964  20.6365907 117.2229992  68.0074990  20.9979997
 116.5369992  68.3604990  21.5649997 117.7459992  68.7704990  20.7509997
 117.1998402  68.1588912  21.0421784 125.0539992  60.6704990  31.2769997
 125.7529992  60.7444990  31.9269997 124.6739992  59.8054990  31.4309997
 125.0982662  60.5637050  31.3867412 125.8389992  60.3224990  22.3739997
 126.0589992  60.7934990  21.5699997 126.3969992  60.7164990  23.0439997
 125.9446044  60.4402946  22.3545207  77.3769992  49.5754990  93.9299997
  77.5209992  48.6734990  93.6439997  76.6039992  49.8614990  93.4419997
  77.2922854  49.4906876  93.8249363 123.5079992  72.4524990  21.2369997
 122.6909992  72.9494990  21.2889997 124.0369992  72.9284990  20.5959997
 123.4678125  72.5847000  21.1575289 123.0389992  62.0504990  23.2089997
 123.8509992  62.5544990  23.2549997 122.7939992  61.9054990  24.1229997
 123.1171091  62.0999366  23.3388552 123.5749992  63.0364990  32.3929997
 123.6939992  63.6104990  33.1499997 124.2299992  62.3484990  32.5079997
 123.6798684  63.0220205  32.5121656 123.9229992  59.1314990  24.1469997
 123.5759992  59.7484990  24.7909997 124.5809992  59.6324990  23.6649997
 123.9644430  59.2836860  24.1700046 120.8459992  73.4964990  21.2179997
 121.0069992  74.2964990  20.7179997 120.6489992  73.8034990  22.1029997
 120.8413906  73.6473690  21.2692316 119.5799992  60.1944990  20.8339997
 119.4969992  61.0824990  21.1809997 120.4699992  59.9294990  21.0659997
 119.6889331  60.2801177  20.9128067 129.7789992  60.9434990  33.2279997
 128.8629992  61.2054990  33.1409997 130.1149992  60.9404990  32.3319997
 129.6988499  60.9790174  33.0948748 128.3809992  64.6934990  27.3239997
 127.5839992  64.2784990  26.9959997 128.8259992  64.0034990  27.8149997
 128.3320367  64.5433372  27.3454897 117.8389992  70.6214990  19.8939997
 118.4309992  71.3214990  20.1709997 118.2979992  70.1884990  19.1749997
 117.9821652  70.6587686  19.8346515 116.1549992  63.2864990  19.0099997
 116.1099992  64.2254990  19.1889997 115.2669992  63.0504990  18.7409997
 116.0288166  63.3831698  18.9981507  81.7179992  49.9184990  76.0619997
  81.7819992  49.1244990  76.5929997  82.3709992  49.8004990  75.3729997
  81.8151168  49.7937748  76.0415119 129.4679992  73.9494990  28.9459997
 129.3119992  74.6284990  28.2889997 130.3999992  74.0214990  29.1489997
 129.5727328  74.0521586  28.8835529 116.9629992  58.0674990  27.6829997
 116.7339992  58.1264990  26.7559997 116.5199992  57.2764990  27.9899997
 116.8717387  57.9686412  27.5975223 115.8929992  72.0084990  23.8439997
 115.0609992  72.4804990  23.8709997 116.4389992  72.5184990  23.2449997
 115.8528710  72.1420317  23.7667570 115.1819992  74.6204990  35.1739997
 115.7219992  74.4044990  35.9339997 114.6999992  73.8154990  34.9839997
 115.1908485  74.4820463  35.2524870 123.8709992  73.0484990  18.1689997
 123.2269992  72.4174990  18.4909997 124.6329992  72.5174990  17.9379997
 123.8858708  72.8903171  18.1818461 128.4749992  72.8654990  18.4029997
 128.7579992  72.0704990  18.8559997 129.2149992  73.0984990  17.8419997
 128.6137295  72.7882349  18.3891469 119.4299992  68.7744990  18.2609997
 119.4939992  67.9804990  18.7909997 120.0829992  68.6564990  17.5709997
 119.5270483  68.6497496  18.2403407 124.7819992  69.8214990  17.9969997
 124.5139992  70.0024990  18.8969997 124.5759992  68.8964990  17.8649997
 124.7173443  69.7211873  18.1026643 127.4789992  68.3164990  32.9439997
 128.2239992  68.9054990  32.8249997 126.7209992  68.8984990  33.0069997
 127.4785289  68.4757067  32.9362292 120.5789992  66.7474990  20.5669997
 120.1199992  66.2634990  21.2519997 120.8339992  66.0784990  19.9309997
 120.5505997  66.5908491  20.5748734  84.0319992  49.5444990  93.3629997
  83.7039992  49.8154990  92.5049997  84.1839992  48.6034990  93.2749997
  84.0076970  49.4543694  93.2337953 119.8679992  64.6404990  32.9229997
 119.2499992  65.3144990  33.2029997 120.2119992  64.9614990  32.0889997
 119.8298078  64.7762298  32.8486609 121.6499992  64.9904990  18.8289997
 121.4699992  64.8354990  17.9019997 122.5999992  65.0984990  18.8739997
 121.7537804  64.9838821  18.7081966 131.0399992  67.3444990  18.2749997
 130.7669992  66.9204990  17.4619997 131.0799992  68.2764990  18.0579997
 131.0080201  67.4123523  18.1343548 120.6199992  60.3644990  31.4979997
 121.1559992  60.8164990  30.8459997 119.7679992  60.2564990  31.0749997
 120.5781795  60.4117444  31.3516211 122.2019992  65.8044990  31.7369997
 122.9529992  65.6484990  31.1639997 121.8629992  66.6564990  31.4619997
 122.2589587  65.8983149  31.6214060 121.4259992  57.8214990  31.9289997
 121.3279992  58.7674990  31.8239997 120.6829992  57.4484990  31.4529997
 121.3122123  57.9006811  31.8503204 122.6899992  62.1424990  35.4929997
 122.4539992  61.9234990  36.3939997 121.9069992  61.9354990  34.9829997
 122.5518382  62.0845340  35.5473991 121.5479992  75.6804990  19.8299997
 122.4809992  75.8384990  19.9739997 121.2829992  76.3564990  19.2049997
 121.6399846  75.7934567  19.7652930 115.1159992  70.3174990  19.3129997
 116.0299992  70.3964990  19.5859997 115.1229992  69.6304990  18.6469997
 115.2420624  70.2354074  19.2603045 113.7649992  75.7104990  24.3899997
 113.1179992  75.2484990  23.8579997 114.1199992  75.0384990  24.9729997
 113.7243741  75.5564785  24.3959157  89.7669992  49.4604990  90.7459997
  90.5119992  50.0494990  90.6259997  89.0089992  50.0424990  90.8089997
  89.7665185  49.6197000  90.7380940 114.6349992  73.7904990  26.1949997
 114.3009992  72.9104990  26.3669997 114.8569992  74.1364990  27.0599997
 114.6192564  73.7167410  26.3354263 132.1839992  74.6004990  29.1759997
 132.1619992  74.7854990  30.1139997 132.8739992  75.1684990  28.8349997
 132.2743383  74.7027104  29.2584580 131.4989992  68.2134990  22.2499997
 132.3489992  68.6344990  22.3769997 131.5039992  67.4734990  22.8569997
 131.6161143  68.1711106  22.3494732 131.8929992  66.2674990  24.0729997
 131.1669992  65.7874990  24.4709997 132.4739992  66.4724990  24.8049997
 131.8722504  66.2295592  24.2264199 131.6519992  69.0524990  29.0209997
 132.4859992  68.6744990  28.7399997 131.7639992  69.9954990  28.9019997
 131.7811917  69.1282954  28.9664844 130.1379992  71.9304990  31.3279997
 129.4909992  72.2554990  31.9529997 129.6209992  71.4894990  30.6539997
 129.9794112  71.9154133  31.3225272 132.1609992  66.1684990  20.4639997
 131.6399992  66.5244990  19.7459997 132.1279992  66.8434990  21.1429997
 132.0850955  66.3085023  20.4572634 130.5099992  63.4074990  19.0149997
 130.6069992  64.0744990  18.3349997 130.3699992  62.5924990  18.5339997
 130.5043407  63.3885670  18.8568312 129.6799992  64.7884990  24.6359997
 129.5299992  63.8434990  24.6159997 129.3259992  65.0694990  25.4799997
 129.6116351  64.6971656  24.7473202 114.7149992  66.8664990  28.6469997
 114.8989992  66.7844990  27.7109997 115.5639992  66.7424990  29.0699997
 114.8550132  66.8385066  28.5761460  78.2089992  46.7754990  93.3499997
  78.6169992  45.9184990  93.2289997  77.9489992  46.7894990  94.2709997
  78.2297082  46.6600596  93.4579469 130.5359992  66.7584990  34.2749997
 131.1189992  66.0234990  34.4669997 131.0999992  67.5304990  34.3219997
 130.6919781  66.7623156  34.3076146 129.7579992  60.8154990  18.1329997
 130.3679992  60.4444990  18.7699997 128.9209992  60.3944990  18.3289997
 129.7283704  60.7077942  18.2467077 129.3899992  62.3704990  23.0989997
 129.6699992  61.4634990  23.2229997 130.1489992  62.8044990  22.7099997
 129.5309258  62.3050935  23.0633691 130.0019992  62.9524990  28.5349997
 130.9349992  63.1644990  28.4999997 129.7669992  63.0534990  29.4569997
 130.0979517  62.9951844  28.6549113 130.0309992  63.6894990  31.3109997
 129.1879992  63.9574990  31.6759997 130.4739992  64.5114990  31.0999997
 129.9754035  63.8373351  31.3324770 130.0039992  59.6334990  23.1469997
 130.1859992  59.1844990  23.9719997 129.4039992  59.0494990  22.6829997
 129.9478187  59.4930563  23.1972721 115.5339992  60.4494990  27.6789997
 115.9789992  59.6574990  27.9809997 115.9999992  61.1654990  28.1089997
 115.6579718  60.4379546  27.7785247 113.8379992  63.4484990  28.7479997
 114.3299992  63.2274990  27.9569997 114.1999992  64.2884990  29.0289997
 113.9542923  63.5318480  28.6777389 131.8699992  59.7014990  19.6749997
 132.2829992  58.9804990  19.1999997 132.5519992  60.3704990  19.7329997
 132.0186060  59.6933741  19.6179233 114.1509992  59.7064990  22.8019997
 113.2259992  59.9144990  22.6729997 114.6049992  60.1904990  22.1119997
 114.0856298  59.8004311  22.6910433  82.8669992  47.8914990  78.3679997
  82.4079992  47.4074990  79.0539997  83.1219992  47.2224990  77.7319997
  82.8386178  47.7348511  78.3759785 128.9219992  74.6904990  24.7479997
 129.5739992  74.3424990  24.1399997 129.4329992  75.1784990  25.3939997
 129.0802872  74.7088248  24.7520964 114.1149992  58.4444990  31.1459997
 113.4499992  58.1984990  31.7889997 113.6719992  59.0664990  30.5689997
 113.9641168  58.4949225  31.1559830 130.8349992  57.8684990  32.8319997
 130.0219992  58.1934990  32.4449997 131.0679992  57.1074990  32.2989997
 130.7551347  57.8101891  32.7069824 116.6629992  75.8504990  31.5969997
 115.9419992  76.2904990  31.1459997 116.2969992  75.5994990  32.4449997
 116.5149632  75.8767235  31.6499649 119.1299992  75.4504990  30.6259997
 118.2649992  75.5224990  31.0299997 119.0749992  75.9974990  29.8429997
 119.0042289  75.5343242  30.5753749 123.8409992  75.3384990  29.8019997
 123.3839992  75.8674990  29.1479997 124.0029992  75.9414990  30.5269997
 123.8003919  75.4923990  29.8105740 126.1679992  74.2164990  30.7469997
 125.2639992  74.3814990  30.4809997 126.5969992  75.0694990  30.6809997
 126.1022017  74.3544184  30.7016495 128.7719992  75.7864990  31.0419997
 128.5909992  76.7024990  30.8309997 128.9489992  75.3754990  30.1949997
 128.7711377  75.8563365  30.8987178 116.0779992  74.4734990  28.5069997
 116.0589992  74.0474990  29.3639997 116.8819992  74.1544990  28.0979997
 116.1841393  74.3720297  28.5690155 118.2189992  73.1834990  27.1619997
 117.9999992  72.2664990  27.3319997 119.0429992  73.3234990  27.6279997
 118.3004702  73.0770523  27.2482510  82.1559992  45.7844990  90.7239997
  81.5379992  46.4584990  91.0049997  82.4999992  46.1054990  89.8909997
  82.1178181  45.9203233  90.6498266 120.7559992  73.6534990  28.0109997
 120.9689992  72.7654990  27.7239997 120.8209992  73.6184990  28.9649997
 120.7939149  73.5273338  28.1007351 124.2649992  59.3174990  27.1549997
 123.5899992  58.6874990  27.4109997 124.8289992  58.8334990  26.5519997
 124.2489363  59.1658886  27.1084810 129.4069992  57.4244990  27.2679997
 130.0109992  57.9724990  26.7659997 128.5379992  57.7434990  27.0269997
 129.3720419  57.5425628  27.1667741 131.1339992  58.5634990  25.6009997
 131.7459992  58.0494990  25.0739997 131.5169992  59.4404990  25.6239997
 131.2693867  58.6117613  25.5320888 116.5909992  57.9514990  24.9769997
 115.8139992  57.7164990  24.4699997 117.1219992  57.1544990  24.9859997
 116.5563735  57.8116462  24.9088090 115.4279992  57.7494990  20.7809997
 115.8669992  58.3604990  20.1889997 114.7939992  58.2874990  21.2549997
 115.4023859  57.9059076  20.7640287 121.1709992  57.8774990  24.7899997
 122.0449992  58.2664990  24.7609997 121.0349992  57.6624990  25.7129997
 121.2721953  57.9016654  24.9107599 126.7269992  57.9074990  26.4399997
 126.8039992  58.0034990  25.4899997 126.4519992  57.0004990  26.5679997
 126.7003233  57.7979093  26.3273665 128.0809992  57.9334990  22.1319997
 127.3779992  58.5484990  21.9219997 127.6359992  57.0964990  22.2629997
 127.9246550  57.9044679  22.1209819 115.3289992  73.6974990  21.6779997
 114.6439992  73.6594990  21.0109997 115.3319992  74.6094990  21.9659997
 115.2356806  73.8156669  21.6256961  87.1759992  48.2554990  94.0019997
  88.1289992  48.3394990  93.9739997  87.0159992  47.5434990  94.6209997
  87.2848161  48.1707198  94.0818689 117.2889992  59.6654990  19.2229997
 117.7799992  59.0354990  18.6959997 117.9119992  59.9614990  19.8859997
 117.4405304  59.6192387  19.2404922 122.3149992  59.9584990  21.6799997
 122.4929992  59.3114990  22.3629997 122.2609992  60.7924990  22.1469997
 122.3320678  59.9826615  21.8366283 124.1929992  74.9064990  20.0759997
 125.0589992  75.2734990  19.8979997 123.9459992  74.4674990  19.2619997
 124.2781853  74.8974021  19.9415814 130.9019992  74.4694990  22.7549997
 130.7079992  73.7214990  22.1899997 130.8629992  75.2274990  22.1719997
 130.8701645  74.4695797  22.5988131 117.1469992  74.6174990  18.7029997
 116.8789992  74.9034990  19.5769997 117.9179992  74.0714990  18.8559997
 117.2145926  74.5827790  18.8431188 135.8269992  65.9764990  29.9479997
 135.8679992  65.3514990  30.6709997 136.5299992  66.6004990  30.1299997
 135.9276223  65.9752318  30.0716164 136.7509992  70.4264990  28.4829997
 136.3809992  69.6244990  28.1129997 137.6919992  70.2584990  28.5289997
 136.8275984  70.2939649  28.4385586 133.3609992  64.0864990  23.8749997
 132.9129992  64.9324990  23.8569997 132.7999992  63.5074990  23.3599997
 133.2238546  64.1239004  23.8028874 134.0709992  66.2484990  26.0009997
 134.2849992  65.4784990  26.5279997 134.8089992  66.3384990  25.3979997
 134.2000073  66.1553546  25.9915786 138.1439992  61.2904990  26.3609997
 138.1869992  62.1504990  25.9419997 137.6859992  60.7374990  25.7269997
 138.0880163  61.3334174  26.2180604  82.4959992  43.1394990  91.8069997
  82.6459992  42.4104990  91.2039997  82.4979992  43.9164990  91.2479997
  82.5167664  43.1448971  91.6490525 134.7639992  63.6874990  27.1229997
 135.4179992  63.1374990  27.5549997 134.7879992  63.4134990  26.2059997
 134.8567199  63.5752179  27.0581650 136.9539992  60.2084990  30.4349997
 136.7349992  60.7384990  29.6679997 136.2859992  60.4344990  31.0819997
 136.8336975  60.3115979  30.4175123 139.5229992  67.8834990  30.7219997
 138.7829992  68.4824990  30.8259997 140.2369992  68.4374990  30.4059997
 139.5183146  68.0402611  30.6935150 136.5479992  62.1004990  28.3869997
 137.1609992  62.7334990  28.7599997 137.0599992  61.6284990  27.7309997
 136.7011933  62.1233380  28.3493477 137.9299992  69.8484990  31.5089997
 137.9249992  70.7274990  31.1309997 137.0769992  69.7644990  31.9339997
 137.8139199  69.9575901  31.5146942 134.0519992  69.5194990  22.2909997
 133.7799992  69.7484990  21.4019997 134.0969992  70.3564990  22.7519997
 134.0208360  69.6641034  22.2316186 138.2979992  67.1914990  25.2219997
 137.9679992  66.8204990  24.4039997 138.8859992  66.5204990  25.5689997
 138.3323182  67.0500648  25.1569898 138.6649992  65.9594990  28.8549997
 139.2299992  66.0814990  28.0929997 138.9829992  66.5974990  29.4939997
 138.7853619  66.0624388  28.8370019 139.5449992  70.3594990  33.5729997
 139.2329992  71.1414990  34.0279997 138.8949992  70.2064990  32.8869997
 139.4144858  70.4457882  33.5425344 136.4649992  66.5574990  32.8009997
 136.5349992  67.2084990  33.4999997 135.5739992  66.6604990  32.4659997
 136.3541690  66.6604261  32.8513026  82.9079992  41.5084990  89.2989997
  83.4439992  41.9604990  88.6469997  82.0559992  41.4004990  88.8769997
  82.8661648  41.5557883  89.1526395 137.7839992  72.4304990  34.3359997
 137.7919992  72.2944990  33.3889997 136.8679992  72.3134990  34.5879997
 137.6612528  72.3960475  34.2403226 137.2879992  66.2604990  22.8109997
 136.9959992  67.0284990  22.3199997 136.6139992  65.6014990  22.6479997
 137.1568843  66.2764537  22.7217695 133.3809992  68.6234990  31.6259997
 132.8799992  68.5954990  30.8109997 133.3869992  67.7184990  31.9359997
 133.3131690  68.4972234  31.5562770 133.1319992  71.4044990  28.5099997
 134.0779992  71.2594990  28.4909997 133.0189992  72.1884990  29.0469997
 133.2463578  71.4906708  28.5800300 136.3759992  74.2054990  24.6559997
 136.5279992  73.8574990  25.5339997 135.5249992  73.8484990  24.3999997
 136.2818344  74.1095891  24.7416851 135.6299992  69.9474990  32.6689997
 135.8459992  69.5854990  33.5289997 134.7749992  69.5724990  32.4599997
 135.5439082  69.8473377  32.7582396 138.2489992  58.4174990  28.6649997
 137.3869992  58.3304990  28.2569997 138.2269992  59.2734990  29.0929997
 138.1280557  58.5213078  28.6670202 138.3399992  63.3824990  29.7599997
 137.6979992  63.3424990  30.4689997 138.3769992  64.3094990  29.5219997
 138.2571659  63.5022540  29.8248463 138.3369992  63.6034990  24.6719997
 137.4439992  63.2634990  24.6129997 138.7879992  63.2264990  23.9159997
 138.2757185  63.5060220  24.5617698 136.0899992  63.7034990  31.6269997
 136.0519992  64.1034990  32.4959997 135.5989992  62.8864990  31.7169997
 136.0184374  63.6478228  31.7580980  84.4899992  46.9484990  89.5389997
  85.2409992  46.7924990  88.9659997  84.1509992  47.8004990  89.2629997
  84.5469052  47.0422745  89.4233469 139.4559992  61.0774990  18.4259997
 139.0249992  60.6324990  19.1549997 138.7379992  61.4484990  17.9129997
 139.2999176  61.0667063  18.4564913 132.6979992  60.8194990  25.4779997
 133.3289992  60.7904990  26.1969997 133.1479992  60.3944990  24.7469997
 132.8451082  60.7581269  25.4776307 133.9719992  61.5654990  20.9019997
 134.4469992  62.1564990  20.3169997 133.2549992  62.0954990  21.2489997
 133.9400406  61.7181011  20.8688495 135.7469992  62.6604990  24.5849997
 134.8579992  62.7594990  24.2449997 136.0429992  61.8184990  24.2389997
 135.6654001  62.5602473  24.4917318 139.3999992  62.6604990  22.2419997
 140.3319992  62.7894990  22.4199997 139.1849992  63.3294990  21.5919997
 139.4984472  62.7685817  22.1784873 138.0739992  63.8544990  19.8079997
 137.5319992  63.4754990  19.1169997 138.9079992  64.0494990  19.3799997
 138.1124390  63.8289091  19.6554374 136.2089992  68.4114990  34.9069997
 136.9409992  68.6664990  35.4689997 135.4289992  68.6164990  35.4229997
 136.2036526  68.4740438  35.0535168 137.2409992  59.9554990  24.0639997
 136.9229992  59.0524990  24.0279997 138.0219992  59.9574990  23.5109997
 137.3031079  59.8322240  23.9842908 136.5339992  67.7154990  27.5139997
 137.2789992  67.7124990  26.9119997 136.6119992  66.8914990  27.9949997
 136.6463366  67.6037395  27.4967412 133.5419992  66.1754990  32.8289997
 133.7649992  65.7574990  33.6599997 132.9399992  65.5634990  32.4059997
 133.4911513  66.0354617  32.8856722  88.9059992  44.7634990  94.5669997
  89.0979992  43.8324990  94.4559997  89.7629992  45.1884990  94.5569997
  89.0482320  44.6934743  94.5504433 138.9089992  71.2334990  24.9179997
 139.4359992  72.0064990  24.7179997 138.0289992  71.4574990  24.6159997
 138.8622121  71.3697344  24.8497460 134.6639992  66.0954990  19.5049997
 135.2799992  66.7224990  19.8849997 133.8019992  66.4114990  19.7769997
 134.6317678  66.2239423  19.5937192 139.0189992  73.9174990  24.0399997
 138.0699992  74.0234990  24.0909997 139.3709992  74.7384990  24.3839997
 138.9365647  74.0430029  24.0934882 135.1759992  60.9294990  32.3869997
 134.2829992  61.2674990  32.3189997 135.0769992  60.0734990  32.8049997
 135.0404752  60.8600986  32.4341644 134.8269992  72.7334990  30.8219997
 135.0439992  71.8014990  30.7909997 135.0739992  73.0084990  31.7049997
 134.8900948  72.6430976  30.9371268 136.0789992  68.0074990  20.9979997
 135.3929992  68.3604990  21.5649997 136.6019992  68.7704990  20.7509997
 136.0558402  68.1588912  21.0421783 138.4359992  60.1944990  20.8339997
 138.3529992  61.0824990  21.1809997 139.3259992  59.9294990  21.0659997
 138.5449331  60.2801177  20.9128067 136.6949992  70.6214990  19.8939997
 137.2869992  71.3214990  20.1709997 137.1539992  70.1884990  19.1749997
 136.8381652  70.6587686  19.8346515 135.0109992  63.2864990  19.0099997
 134.9659992  64.2254990  19.1889997 134.1229992  63.0504990  18.7409997
 134.8848166  63.3831698  18.9981507 135.8189992  58.0674990  27.6829997
 135.5899992  58.1264990  26.7559997 135.3759992  57.2764990  27.9899997
 135.7277387  57.9686412  27.5975223  90.2219992  47.5524990  92.6449997
  89.9409992  48.2614990  92.0669997  91.1649992  47.4794990  92.4939997
  90.3109272  47.6396704  92.5454976 134.7489992  72.0084990  23.8439997
 133.9169992  72.4804990  23.8709997 135.2949992  72.5184990  23.2449997
 134.7088710  72.1420317  23.7667570 138.2859992  68.7744990  18.2609997
 138.3499992  67.9804990  18.7909997 138.9389992  68.6564990  17.5709997
 138.3830483  68.6497496  18.2403407 134.7769992  65.6314990  35.5479997
 135.1849992  64.7744990  35.4269997 134.5169992  65.6454990  36.4689997
 134.7977082  65.5160596  35.6559469 139.4349992  66.7474990  20.5669997
 138.9759992  66.2634990  21.2519997 139.6899992  66.0784990  19.9309997
 139.4065997  66.5908491  20.5748734 138.7239992  64.6404990  32.9229997
 138.1059992  65.3144990  33.2029997 139.0679992  64.9614990  32.0889997
 138.6858078  64.7762298  32.8486609 139.0639992  61.9954990  34.0049997
 139.2139992  61.2664990  33.4029997 139.0659992  62.7724990  33.4459997
 139.0847967  62.0007720  33.8470523 139.4759992  60.3644990  31.4979997
 140.0119992  60.8164990  30.8459997 138.6239992  60.2564990  31.0749997
 139.4341795  60.4117444  31.3516211 133.9719992  70.3174990  19.3129997
 134.8859992  70.3964990  19.5859997 133.9789992  69.6304990  18.6469997
 134.0980624  70.2354074  19.2603045 132.6209992  75.7104990  24.3899997
 131.9739992  75.2484990  23.8579997 132.9759992  75.0384990  24.9729997
 132.5803741  75.5564785  24.3959157 133.4909992  73.7904990  26.1949997
 133.1569992  72.9104990  26.3669997 133.7129992  74.1364990  27.0599997
 133.4752565  73.7167410  26.3354263  80.9739992  44.3374990  93.7179997
  80.2069992  43.8044990  93.5079997  81.6529992  44.0274990  93.1189997
  80.9608292  44.2226360  93.6082693 133.5709992  66.8664990  28.6469997
 133.7549992  66.7844990  27.7109997 134.4199992  66.7424990  29.0699997
 133.7110132  66.8385066  28.5761460 134.3899992  60.4494990  27.6789997
 134.8349992  59.6574990  27.9809997 134.8559992  61.1654990  28.1089997
 134.5139718  60.4379546  27.7785247 132.6939992  63.4484990  28.7479997
 133.1859992  63.2274990  27.9569997 133.0559992  64.2884990  29.0289997
 132.8102923  63.5318480  28.6777389 133.0069992  59.7064990  22.8019997
 132.0819992  59.9144990  22.6729997 133.4609992  60.1904990  22.1119997
 132.9416298  59.8004311  22.6910433 132.9709992  58.4444990  31.1459997
 132.3059992  58.1984990  31.7889997 132.5279992  59.0664990  30.5689997
 132.8201168  58.4949225  31.1559830 138.1169992  72.5934990  31.5489997
 137.6919992  73.4034990  31.2669997 139.0209992  72.6794990  31.2469997
 138.1810706  72.7159557  31.4695836 135.5189992  75.8504990  31.5969997
 134.7979992  76.2904990  31.1459997 135.1529992  75.5994990  32.4449997
 135.3709632  75.8767235  31.6499649 137.9859992  75.4504990  30.6259997
 137.1209992  75.5224990  31.0299997 137.9309992  75.9974990  29.8429997
 137.8602289  75.5343242  30.5753749 134.9339992  74.4734990  28.5069997
 134.9149992  74.0474990  29.3639997 135.7379992  74.1544990  28.0979997
 135.0401393  74.3720297  28.5690155 137.0749992  73.1834990  27.1619997
 136.8559992  72.2664990  27.3319997 137.8989992  73.3234990  27.6279997
 137.1564702  73.0770523  27.2482510  83.7139992  38.9654990  89.7309997
  83.6159992  39.9114990  89.6249997  82.9709992  38.5924990  89.2549997
  83.6002363  39.0445987  89.6522029 135.4469992  57.9514990  24.9769997
 134.6699992  57.7164990  24.4699997 135.9779992  57.1544990  24.9859997
 135.4123735  57.8116462  24.9088090 134.2839992  57.7494990  20.7809997
 134.7229992  58.3604990  20.1889997 133.6499992  58.2874990  21.2549997
 134.2583859  57.9059076  20.7640287 134.1849992  73.6974990  21.6779997
 133.4999992  73.6594990  21.0109997 134.1879992  74.6094990  21.9659997
 134.0916806  73.8156669  21.6256961 136.1449992  59.6654990  19.2229997
 136.6359992  59.0354990  18.6959997 136.7679992  59.9614990  19.8859997
 136.2965304  59.6192387  19.2404922 136.0029992  74.6174990  18.7029997
 135.7349992  74.9034990  19.5769997 136.7739992  74.0714990  18.8559997
 136.0705926  74.5827790  18.8431188  12.5339992  85.9634990  24.9359997
  12.6229992  86.9074990  24.8029997  11.8949992  85.6884990  24.2779997
  12.4598378  86.0553846  24.8289258  11.4669992  85.2184990  28.3549997
  11.4279992  84.5724990  29.0599997  11.1439992  84.7514990  27.5829997
  11.4180469  85.0670005  28.3472803   3.8349992  84.8324990  29.9479997
   3.8759992  84.2074990  30.6709997   4.5379992  85.4564990  30.1299997
   3.9356223  84.8312318  30.0716164  15.1729992  88.1574990  26.6559997
  14.7319992  87.4374990  27.1069997  15.1599992  88.8784990  27.2859997
  15.1109215  88.1564303  26.8028088   4.7589992  89.2824990  28.4829997
   4.3889992  88.4804990  28.1129997   5.6999992  89.1144990  28.5289997
   4.8355984  89.1499649  28.4385586  84.9779992  43.2864990  93.2939997
  84.7419992  43.0674990  94.1959997  84.1949992  43.0794990  92.7849997
  84.8398444  43.2285688  93.3484518   1.3689992  82.9424990  23.8749997
   0.9209992  83.7884990  23.8569997   0.8079992  82.3634990  23.3599997
   1.2318546  82.9799004  23.8028874   2.0789992  85.1044990  26.0009997
   2.2929992  84.3344990  26.5279997   2.8169992  85.1944990  25.3979997
   2.2080073  85.0113546  25.9915786  12.2839992  93.2614990  26.8679997
  12.9039992  92.5854990  26.5949997  12.0759992  93.0434990  27.7769997
  12.3407679  93.1395032  26.9534518   9.8559992  87.6504990  28.7609997
  10.1599992  86.9644990  28.1659997  10.5779992  87.7694990  29.3789997
   9.9951240  87.5727325  28.7630941  18.5189992  79.2524990  29.6209997
  18.5679992  79.8624990  30.3569997  18.9449992  79.7134990  28.8979997
  18.5832851  79.3983266  29.6240532  12.9969992  82.0444990  29.0879997
  13.1389992  81.0984990  29.1079997  12.8909992  82.2514990  28.1599997
  13.0021051  81.9429706  28.9652249   6.1519992  80.1464990  26.3609997
   6.1949992  81.0064990  25.9419997   5.6939992  79.5934990  25.7269997
   6.0960163  80.1894174  26.2180604  13.8739992  80.2774990  24.7609997
  14.5199992  79.9484990  25.3859997  14.3839992  80.7944990  24.1389997
  14.0314289  80.3024333  24.7623681   2.7719992  82.5434990  27.1229997
   3.4259992  81.9934990  27.5549997   2.7959992  82.2694990  26.2059997
   2.8647199  82.4312178  27.0581650   7.9279992  84.0934990  26.3379997
   8.5439992  83.5664990  26.8469997   7.3419992  83.4534990  25.9339997
   7.9330652  83.9348919  26.3530277  87.6939992  42.4144990  92.3699997
  86.7459992  42.4464990  92.5019997  88.0059992  41.7884990  93.0239997
  87.6065293  42.3342934  92.4764130  18.9109992  80.7304990  31.8569997
  18.2219992  81.3884990  31.7619997  18.9259992  80.5324990  32.7939997
  18.8187756  80.7937614  31.9705795   4.9619992  79.0644990  30.4349997
   4.7429992  79.5944990  29.6679997   4.2939992  79.2904990  31.0819997
   4.8416975  79.1675979  30.4175123  12.3309992  88.5644990  23.9789997
  12.0349992  88.2414990  23.1269997  12.0069992  89.4644990  24.0199997
  12.2467458  88.6419678  23.8680598   7.5309992  86.7394990  30.7219997
   6.7909992  87.3384990  30.8259997   8.2449992  87.2934990  30.4059997
   7.5263146  86.8962611  30.6935150  15.6379992  79.5684990  26.7419997
  15.4229992  78.8024990  27.2749997  16.2939992  80.0404990  27.2549997
  15.6972673  79.5275739  26.8841972   4.5559992  80.9564990  28.3869997
   5.1689992  81.5894990  28.7599997   5.0679992  80.4844990  27.7309997
   4.7091933  80.9793380  28.3493477   5.9379992  88.7044990  31.5089997
   5.9329992  89.5834990  31.1309997   5.0849992  88.6204990  31.9339997
   5.8219199  88.8135901  31.5146942   2.0599992  88.3754990  22.2909997
   1.7879992  88.6044990  21.4019997   2.1049992  89.2124990  22.7519997
   2.0288360  88.5201034  22.2316186  15.6849992  89.9964990  29.0039997
  14.7429992  90.0554990  29.1659997  15.9609992  90.9024990  28.8669997
  15.5935865  90.1270299  29.0076174  15.9849992  78.2834990  30.4209997
  15.2489992  78.8934990  30.3839997  16.6689992  78.6984990  29.8949997
  15.9765367  78.4232562  30.3448156  89.3279992  41.0484990  94.3749997
  89.2309992  40.0964990  94.3689997  89.0059992  41.3164990  95.2359997
  89.2712229  40.9544706  94.4905108   8.9879992  76.3694990  27.8869997
   8.8709992  75.4214990  27.8329997   8.1329992  76.7024990  28.1599997
   8.8563691  76.2845842  27.9165072  13.9369992  91.7774990  25.6289997
  14.3619992  91.0704990  25.1439997  14.2539992  92.5794990  25.2119997
  14.0380266  91.7890201  25.5062461  15.0959992  89.6784990  24.1379997
  14.8389992  88.9884990  23.5259997  15.1669992  89.2354990  24.9829997
  15.0704322  89.5241568  24.1685372  16.7819992  88.2454990  32.6149997
  16.9219992  87.6534990  31.8759997  16.9499992  89.1184990  32.2589997
  16.8238734  88.2824041  32.4656937  11.2549992  85.2074990  22.3879997
  10.5429992  85.7424990  22.0359997  11.9459992  85.2624990  21.7279997
  11.2509704  85.2881663  22.2505797  11.3089992  83.6644990  19.4259997
  12.0099992  83.6874990  20.0779997  11.6109992  83.0364990  18.7699997
  11.4458202  83.5827223  19.4265591  18.6239992  84.5854990  30.6809997
  17.9719992  85.2794990  30.7699997  19.0889992  84.7954990  29.8709997
  18.5975357  84.7089544  30.5837056  14.6609992  85.4164990  23.3389997
  13.9289992  85.6454990  23.9119997  15.1079992  84.7034990  23.7939997
  14.6212753  85.3513984  23.4789698   6.3059992  86.0474990  25.2219997
   5.9759992  85.6764990  24.4039997   6.8939992  85.3764990  25.5689997
   6.3403182  85.9060648  25.1569898   7.6729992  89.4754990  27.9029997
   7.5779992  88.8964990  27.1469997   8.4019992  89.1044990  28.3989997
   7.7586011  89.3460572  27.8666011  79.1549992  42.2574990  93.4229997
  79.3659992  41.5514990  92.8119997  79.0429992  41.8204990  94.2669997
  79.1687674  42.1016376  93.4534199   6.6729992  84.8154990  28.8549997
   7.2379992  84.9374990  28.0929997   6.9909992  85.4534990  29.4939997
   6.7933619  84.9184388  28.8370019  12.9819992  90.3194990  29.5889997
  12.7409992  90.9814990  30.2369997  12.7839992  89.4844990  30.0139997
  12.9222662  90.2972704  29.7351008  13.5319992  84.5794990  21.0249997
  14.1109992  84.7294990  21.7709997  13.9459992  85.0494990  20.3009997
  13.6673358  84.6635966  21.0293935   4.4729992  85.4134990  32.8009997
   4.5429992  86.0644990  33.4999997   3.5819992  85.5164990  32.4659997
   4.3621690  85.5164261  32.8513026  11.2579992  91.3154990  24.4599997
  11.7319992  91.6114990  25.2369997  10.6949992  92.0544990  24.2269997
  11.2467890  91.4558047  24.5348084  17.2299992  76.3294990  20.8369997
  16.3299992  76.4674990  21.1329997  17.4819992  77.1604990  20.4359997
  17.1407727  76.4608705  20.8232935   5.2959992  85.1164990  22.8109997
   5.0039992  85.8844990  22.3199997   4.6219992  84.4574990  22.6479997
   5.1648843  85.1324537  22.7217695  18.4199992  90.6954990  19.2139997
  18.4929992  91.6344990  19.3839997  19.3249992  90.3904990  19.1579997
  18.5524170  90.7828294  19.2297045   1.3889992  87.4794990  31.6259997
   0.8879992  87.4514990  30.8109997   1.3949992  86.5744990  31.9359997
   1.3211690  87.3532234  31.5562770   1.1399992  90.2604990  28.5099997
   2.0859992  90.1154990  28.4909997   1.0269992  91.0444990  29.0469997
   1.2543578  90.3466708  28.5800300  83.9359992  38.2594990  92.4019997
  84.6469992  37.6194990  92.3879997  83.8349992  38.5254990  91.4879997
  84.0196732  38.2078451  92.2765475  19.3369992  90.9264990  34.1929997
  19.2879992  89.9704990  34.1549997  18.5109992  91.1934990  34.5939997
  19.2185096  90.8318416  34.2420698  10.3159992  90.5004990  33.0689997
  10.4029992  91.3264990  33.5439997   9.4519992  90.1704990  33.3179997
  10.2111944  90.5689871  33.1676558  10.7299992  94.2724990  22.8749997
  10.6549992  94.1514990  21.9279997  10.7629992  95.2214990  22.9929997
  10.7242083  94.3842639  22.7614973   4.3839992  93.0614990  24.6559997
   4.5359992  92.7134990  25.5339997   3.5329992  92.7044990  24.3999997
   4.2898344  92.9655891  24.7416851  13.8319992  93.4264990  19.8769997
  14.2069992  92.6824990  19.4059997  13.8359992  93.1564990  20.7949997
  13.8838969  93.2880920  19.9366475  13.5009992  93.3524990  22.6259997
  12.5659992  93.4524990  22.8049997  13.7809992  92.6424990  23.2049997
  13.4109471  93.2702944  22.7286678   3.6379992  88.8034990  32.6689997
   3.8539992  88.4414990  33.5289997   2.7829992  88.4284990  32.4599997
   3.5519082  88.7033377  32.7582396   6.2569992  77.2734990  28.6649997
   5.3949992  77.1864990  28.2569997   6.2349992  78.1294990  29.0929997
   6.1360557  77.3773078  28.6670202  10.9199992  76.9954990  32.0399997
  11.3399992  76.5804990  32.7929997   9.9869992  76.8164990  32.1569997
  10.8513736  76.9144921  32.1588950  14.2459992  80.7504990  32.8929997
  13.7319992  80.6254990  33.6909997  14.0909992  81.6634990  32.6489997
  14.1547802  80.8567433  32.9691504  84.2889992  39.9414990  94.4559997
  84.1579992  39.4664990  93.6349997  83.6899992  40.6864990  94.3999997
  84.1901524  39.9771968  94.3361553  15.0089992  85.6114990  18.6539997
  15.0509992  85.3894990  17.7239997  15.8579992  86.0104990  18.8439997
  15.1295253  85.6350510  18.5523804  10.5819992  79.4874990  19.3249997
  10.3279992  79.5064990  20.2469997  10.3249992  78.6164990  19.0229997
  10.5124508  79.3723292  19.4104786   6.3479992  82.2384990  29.7599997
   5.7059992  82.1984990  30.4689997   6.3849992  83.1654990  29.5219997
   6.2651659  82.3582540  29.8248463   6.3449992  82.4594990  24.6719997
   5.4519992  82.1194990  24.6129997   6.7959992  82.0824990  23.9159997
   6.2837185  82.3620220  24.5617698  11.8809992  82.8754990  23.4889997
  11.4719992  83.6904990  23.1969997  12.6009992  82.7354990  22.8749997
  11.9224439  82.9680383  23.3660098  12.8849992  82.3214990  26.3029997
  12.6899992  82.9274990  25.5879997  13.0669992  81.4884990  25.8689997
  12.8829195  82.2917936  26.1464079   4.0979992  82.5594990  31.6269997
   4.0599992  82.9594990  32.4959997   3.6069992  81.7424990  31.7169997
   4.0264374  82.5038228  31.7580980   7.4639992  79.9334990  18.4259997
   7.0329992  79.4884990  19.1549997   6.7459992  80.3044990  17.9129997
   7.3079176  79.9227063  18.4564913   0.7059992  79.6754990  25.4779997
   1.3369992  79.6464990  26.1969997   1.1559992  79.2504990  24.7469997
   0.8531082  79.6141269  25.4776307   1.9799992  80.4214990  20.9019997
   2.4549992  81.0124990  20.3169997   1.2629992  80.9514990  21.2489997
   1.9480406  80.5741011  20.8688495  83.8359992  56.8244990  77.6319997
  84.7689992  56.9824990  77.7759997  83.5709992  57.5004990  77.0069997
  83.9279846  56.9374567  77.5672930  12.1489992  83.9594990  30.9739997
  12.4729992  83.3284990  30.3309997  11.7089992  83.4254990  31.6349997
  12.1338707  83.8008261  30.9753195   8.9269992  79.8874990  25.7579997
   8.0159992  79.9444990  26.0469997   9.4319992  79.8274990  26.5689997
   8.8706873  79.8871838  25.9071190   3.7549992  81.5164990  24.5849997
   2.8659992  81.6154990  24.2449997   4.0509992  80.6744990  24.2389997
   3.6734001  81.4162473  24.4917318   7.4079992  81.5164990  22.2419997
   8.3399992  81.6454990  22.4199997   7.1929992  82.1854990  21.5919997
   7.5064472  81.6245817  22.1784873  13.3319992  79.1224990  29.0219997
  12.6549992  79.2534990  29.6859997  12.8459992  78.9674990  28.2119997
  13.1737265  79.1194665  29.0033380   6.0819992  82.7104990  19.8079997
   5.5399992  82.3314990  19.1169997   6.9159992  82.9054990  19.3799997
   6.1204390  82.6849091  19.6554374   4.2169992  87.2674990  34.9069997
   4.9489992  87.5224990  35.4689997   3.4369992  87.4724990  35.4229997
   4.2116526  87.3300438  35.0535168  10.2469992  82.6744990  27.6449997
  10.8109992  82.1284990  27.0979997  10.0989992  82.1534990  28.4339997
  10.3043037  82.5291798  27.6767212   5.2489992  78.8114990  24.0639997
   4.9309992  77.9084990  24.0279997   6.0299992  78.8134990  23.5109997
   5.3111079  78.6882240  23.9842908   8.8729992  81.0634990  30.0589997
   8.0379992  81.5174990  30.1699997   9.3969992  81.3394990  30.8109997
   8.8296072  81.1628960  30.1758118  77.4039992  51.4614990  77.1149997
  78.3179992  51.5404990  77.3879997  77.4109992  50.7744990  76.4479997
  77.5300769  51.3794735  77.0622366   9.4169992  87.2764990  21.7439997
   8.6719992  86.7684990  21.4219997   9.2829992  87.3254990  22.6899997
   9.2969334  87.2136144  21.8278892  16.5669992  86.4094990  30.5309997
  17.2089992  86.8654990  29.9869997  15.7369992  86.5224990  30.0679997
  16.5426536  86.4871813  30.3939579  13.3149992  80.0904990  19.9429997
  12.3759992  80.2014990  19.7919997  13.6119992  80.9464990  20.2499997
  13.2266136  80.2214977  19.9638568  10.9369992  87.4604990  32.9809997
  10.5909992  87.0784990  33.7879997  10.7369992  88.3934990  33.0519997
  10.8625987  87.5344013  33.1010443  14.0329992  81.9574990  21.6039997
  14.9249992  81.8194990  21.9229997  14.0899992  82.7484990  21.0669997
  14.1627380  82.0454777  21.5750981   4.5419992  86.5714990  27.5139997
   5.2869992  86.5684990  26.9119997   4.6199992  85.7474990  27.9949997
   4.6543366  86.4597395  27.4967412  11.5429992  88.7344990  20.7689997
  11.2479992  89.5614990  21.1509997  10.8399992  88.1154990  20.9659997
  11.4076379  88.7639182  20.8478636   1.5499992  85.0314990  32.8289997
   1.7729992  84.6134990  33.6599997   0.9479992  84.4194990  32.4059997
   1.4991513  84.8914617  32.8856722   8.5669992  84.5484990  35.0419997
   8.2709992  84.3834990  34.1459997   9.4979992  84.3284990  35.0309997
   8.6524401  84.4961891  34.9180189  13.1869992  89.9224990  32.9309997
  12.2859992  90.1054990  32.6639997  13.2209992  90.1814990  33.8519997
  13.0683861  89.9825245  33.0189517  76.0529992  56.8544990  82.1919997
  75.4059992  56.3924990  81.6589997  76.4079992  56.1824990  82.7749997
  76.0123861  56.7004707  82.1977939  18.9179992  82.1664990  21.2989997
  18.3639992  81.7704990  20.6259997  19.0189992  83.0774990  21.0209997
  18.8558589  82.2353904  21.1693839  18.8809992  87.9674990  34.1359997
  18.0299992  88.2054990  33.7679997  19.4719992  87.9504990  33.3819997
  18.8443831  87.9977623  33.9838448  17.2129992  90.9524990  21.7639997
  16.8409992  90.1274990  22.0729997  17.4909992  90.7694990  20.8659997
  17.1995807  90.8147031  21.6850063  14.3739992  85.7604990  28.7849997
  13.4459992  85.5294990  28.7579997  14.8249992  84.9834990  28.4549997
  14.3078165  85.6237785  28.7366772   6.9169992  90.0894990  24.9179997
   7.4439992  90.8624990  24.7179997   6.0369992  90.3134990  24.6159997
   6.8702121  90.2257344  24.8497460   2.6719992  84.9514990  19.5049997
   3.2879992  85.5784990  19.8849997   1.8099992  85.2674990  19.7769997
   2.6397678  85.0799423  19.5937192   8.3439992  87.7524990  24.4939997
   8.1029992  88.6774990  24.5359997   7.6039992  87.2934990  24.8909997
   8.2109463  87.8170969  24.5534279   8.8589992  91.9014990  30.8089997
   9.2219992  92.7554990  30.5759997   9.3909992  91.6094990  31.5499997
   8.9805141  91.9788907  30.8772079   7.0269992  92.7734990  24.0399997
   6.0779992  92.8794990  24.0909997   7.3789992  93.5944990  24.3839997
   6.9445647  92.8990029  24.0934882  12.4029992  88.0004990  30.5099997
  11.9769992  87.7724990  31.3359997  12.9839992  87.2614990  30.3279997
  12.4232088  87.8694393  30.5984454  76.9229992  54.9344990  83.9969997
  76.5889992  54.0544990  84.1689997  77.1449992  55.2804990  84.8609997
  76.9072677  54.8607366  84.1374252  14.6059992  88.9294990  19.5839997
  14.9589992  88.5494990  20.3879997  13.6569992  88.8354990  19.6709997
  14.5260956  88.8647867  19.7058005  19.1089992  93.4084990  19.7849997
  19.8529992  93.9944990  19.6449997  18.4149992  93.9774990  20.1179997
  19.1169809  93.5655830  19.8108572   3.1839992  79.7854990  32.3869997
   2.2909992  80.1234990  32.3189997   3.0849992  78.9294990  32.8049997
   3.0484752  79.7160986  32.4341644  15.4719992  87.6014990  21.8109997
  15.1949992  86.8734990  22.3669997  16.3989992  87.7204990  22.0159997
  15.5594419  87.5179436  21.9148264   2.8349992  91.5894990  30.8219997
   3.0519992  90.6574990  30.7909997   3.0819992  91.8644990  31.7049997
   2.8980948  91.4990976  30.9371268   8.6969992  90.0414990  18.0309997
   8.9359992  89.2924990  17.4839997   8.4279992  89.6534990  18.8639997
   8.6933233  89.8866865  18.0687791   7.6339992  89.6114990  20.4869997
   7.7809992  89.0914990  21.2769997   7.6309992  90.5184990  20.7939997
   7.6537102  89.6628964  20.6365907   4.0869992  86.8634990  20.9979997
   3.4009992  87.2164990  21.5649997   4.6099992  87.6264990  20.7509997
   4.0638402  87.0148912  21.0421784  11.9179992  79.5264990  31.2769997
  12.6169992  79.6004990  31.9269997  11.5379992  78.6614990  31.4309997
  11.9622662  79.4197050  31.3867412  12.7029992  79.1784990  22.3739997
  12.9229992  79.6494990  21.5699997  13.2609992  79.5724990  23.0439997
  12.8086044  79.2962946  22.3545207  94.4719992  55.7444990  86.9769997
  94.4499992  55.9294990  87.9159997  95.1619992  56.3124990  86.6359997
  94.5623439  55.8466898  87.0594774  10.3719992  91.3084990  21.2369997
   9.5549992  91.8054990  21.2889997  10.9009992  91.7844990  20.5959997
  10.3318125  91.4407000  21.1575289   9.9029992  80.9064990  23.2089997
  10.7149992  81.4104990  23.2549997   9.6579992  80.7614990  24.1229997
   9.9811091  80.9559366  23.3388552  10.4389992  81.8924990  32.3929997
  10.5579992  82.4664990  33.1499997  11.0939992  81.2044990  32.5079997
  10.5438684  81.8780205  32.5121656  10.7869992  77.9874990  24.1469997
  10.4399992  78.6044990  24.7909997  11.4449992  78.4884990  23.6649997
  10.8284430  78.1396860  24.1700046   7.7099992  92.3524990  21.2179997
   7.8709992  93.1524990  20.7179997   7.5129992  92.6594990  22.1029997
   7.7053906  92.5033690  21.2692316   6.4439992  79.0504990  20.8339997
   6.3609992  79.9384990  21.1809997   7.3339992  78.7854990  21.0659997
   6.5529331  79.1361177  20.9128067  16.6429992  79.7994990  33.2279997
  15.7269992  80.0614990  33.1409997  16.9789992  79.7964990  32.3319997
  16.5628499  79.8350174  33.0948748  15.2449992  83.5494990  27.3239997
  14.4479992  83.1344990  26.9959997  15.6899992  82.8594990  27.8149997
  15.1960367  83.3993372  27.3454897   4.7029992  89.4774990  19.8939997
   5.2949992  90.1774990  20.1709997   5.1619992  89.0444990  19.1749997
   4.8461652  89.5147686  19.8346515   3.0189992  82.1424990  19.0099997
   2.9739992  83.0814990  19.1889997   2.1309992  81.9064990  18.7409997
   2.8928166  82.2391698  18.9981507  94.0349992  55.3114990  89.8989997
  93.5479992  54.5754990  89.5279997  94.5839992  54.9174990  90.5769997
  94.0426101  55.1576267  89.9399034  16.3319992  92.8054990  28.9459997
  16.1759992  93.4844990  28.2889997  17.2639992  92.8774990  29.1489997
  16.4367328  92.9081586  28.8835529   3.8269992  76.9234990  27.6829997
   3.5979992  76.9824990  26.7559997   3.3839992  76.1324990  27.9899997
   3.7357387  76.8246412  27.5975223   2.7569992  90.8644990  23.8439997
   1.9249992  91.3364990  23.8709997   3.3029992  91.3744990  23.2449997
   2.7168710  90.9980317  23.7667570   2.0459992  93.4764990  35.1739997
   2.5859992  93.2604990  35.9339997   1.5639992  92.6714990  34.9839997
   2.0548485  93.3380463  35.2524870  10.7349992  91.9044990  18.1689997
  10.0909992  91.2734990  18.4909997  11.4969992  91.3734990  17.9379997
  10.7498708  91.7463171  18.1818461  15.3389992  91.7214990  18.4029997
  15.6219992  90.9264990  18.8559997  16.0789992  91.9544990  17.8419997
  15.4777295  91.6442349  18.3891469   6.2939992  87.6304990  18.2609997
   6.3579992  86.8364990  18.7909997   6.9469992  87.5124990  17.5709997
   6.3910483  87.5057496  18.2403407  11.6459992  88.6774990  17.9969997
  11.3779992  88.8584990  18.8969997  11.4399992  87.7524990  17.8649997
  11.5813443  88.5771873  18.1026643  14.3429992  87.1724990  32.9439997
  15.0879992  87.7614990  32.8249997  13.5849992  87.7544990  33.0069997
  14.3425289  87.3317067  32.9362292   2.7849992  84.4874990  35.5479997
   3.1929992  83.6304990  35.4269997   2.5249992  84.5014990  36.4689997
   2.8057082  84.3720596  35.6559469  92.4859992  51.1014990  94.5369997
  91.6199992  50.9964990  94.9309997  92.8619992  51.8594990  94.9839997
  92.4183768  51.1896151  94.6513258   7.4429992  85.6034990  20.5669997
   6.9839992  85.1194990  21.2519997   7.6979992  84.9344990  19.9309997
   7.4145997  85.4468491  20.5748734   6.7319992  83.4964990  32.9229997
   6.1139992  84.1704990  33.2029997   7.0759992  83.8174990  32.0889997
   6.6938078  83.6322298  32.8486609   8.5139992  83.8464990  18.8289997
   8.3339992  83.6914990  17.9019997   9.4639992  83.9544990  18.8739997
   8.6177804  83.8398821  18.7081966  17.9039992  86.2004990  18.2749997
  17.6309992  85.7764990  17.4619997  17.9439992  87.1324990  18.0579997
  17.8720201  86.2683523  18.1343548   7.4839992  79.2204990  31.4979997
   8.0199992  79.6724990  30.8459997   6.6319992  79.1124990  31.0749997
   7.4421795  79.2677444  31.3516211   9.0659992  84.6604990  31.7369997
   9.8169992  84.5044990  31.1639997   8.7269992  85.5124990  31.4619997
   9.1229587  84.7543149  31.6214060   8.2899992  76.6774990  31.9289997
   8.1919992  77.6234990  31.8239997   7.5469992  76.3044990  31.4529997
   8.1762123  76.7566811  31.8503204  12.2699992  80.1264990  34.5679997
  11.3219992  80.1584990  34.6999997  12.5819992  79.5004990  35.2219997
  12.1825293  80.0462934  34.6744130   8.5119992  75.9714990  34.5999997
   9.2229992  75.3314990  34.5859997   8.4109992  76.2374990  33.6869997
   8.5956858  75.9198591  34.4745501   8.4119992  94.5364990  19.8299997
   9.3449992  94.6944990  19.9739997   8.1469992  95.2124990  19.2049997
   8.5039846  94.6494567  19.7652930  93.7869992  49.3574990  80.0509997
  94.6369992  49.7784990  80.1789997  93.7919992  48.6174990  80.6589997
  93.9039745  49.3151347  80.1506479   1.9799992  89.1734990  19.3129997
   2.8939992  89.2524990  19.5859997   1.9869992  88.4864990  18.6469997
   2.1060624  89.0914074  19.2603045   0.6289992  94.5664990  24.3899997
  -0.0180008  94.1044990  23.8579997   0.9839992  93.8944990  24.9729997
   0.5883741  94.4124785  24.3959157   1.4989992  92.6464990  26.1949997
   1.1649992  91.7664990  26.3669997   1.7209992  92.9924990  27.0599997
   1.4832565  92.5727410  26.3354263  19.0479992  93.4564990  29.1759997
  19.0259992  93.6414990  30.1139997  19.7379992  94.0244990  28.8349997
  19.1383383  93.5587104  29.2584580  18.6109992  93.0234990  32.0969997
  18.1239992  92.2874990  31.7259997  19.1599992  92.6294990  32.7749997
  18.6186101  92.8696267  32.1379034  18.3629992  87.0694990  22.2499997
  19.2129992  87.4904990  22.3769997  18.3679992  86.3294990  22.8569997
  18.4801143  87.0271106  22.3494732  18.7569992  85.1234990  24.0729997
  18.0309992  84.6434990  24.4709997  19.3379992  85.3284990  24.8049997
  18.7362504  85.0855592  24.2264199  18.5159992  87.9084990  29.0209997
  19.3499992  87.5304990  28.7399997  18.6279992  88.8514990  28.9019997
  18.6451917  87.9842954  28.9664844  17.0019992  90.7864990  31.3279997
  16.3549992  91.1114990  31.9529997  16.4849992  90.3454990  30.6539997
  16.8434112  90.7714133  31.3225272  19.0249992  85.0244990  20.4639997
  18.5039992  85.3804990  19.7459997  18.9919992  85.6994990  21.1429997
  18.9490955  85.1645023  20.4572634  94.1809992  47.4114990  81.8749997
  93.4549992  46.9314990  82.2729997  94.7619992  47.6164990  82.6069997
  94.1602504  47.3735592  82.0284199  17.3739992  82.2634990  19.0149997
  17.4709992  82.9304990  18.3349997  17.2339992  81.4484990  18.5339997
  17.3683407  82.2445670  18.8568312  16.5439992  83.6444990  24.6359997
  16.3939992  82.6994990  24.6159997  16.1899992  83.9254990  25.4799997
  16.4756351  83.5531656  24.7473202   1.5789992  85.7224990  28.6469997
   1.7629992  85.6404990  27.7109997   2.4279992  85.5984990  29.0699997
   1.7190132  85.6945066  28.5761460  17.3999992  85.6144990  34.2749997
  17.9829992  84.8794990  34.4669997  17.9639992  86.3864990  34.3219997
  17.5559781  85.6183156  34.3076146  16.6219992  79.6714990  18.1329997
  17.2319992  79.3004990  18.7699997  15.7849992  79.2504990  18.3289997
  16.5923704  79.5637942  18.2467077  16.2539992  81.2264990  23.0989997
  16.5339992  80.3194990  23.2229997  17.0129992  81.6604990  22.7099997
  16.3949258  81.1610935  23.0633691  16.8659992  81.8084990  28.5349997
  17.7989992  82.0204990  28.4999997  16.6309992  81.9094990  29.4569997
  16.9619517  81.8511844  28.6549113  16.8949992  82.5454990  31.3109997
  16.0519992  82.8134990  31.6759997  17.3379992  83.3674990  31.0999997
  16.8394035  82.6933351  31.3324770   1.1759992  80.9924990  34.7869997
   2.0959992  80.8704990  35.0239997   0.7269992  80.2424990  35.1769997
   1.2410500  80.8744576  34.8721016  16.8679992  78.4894990  23.1469997
  17.0499992  78.0404990  23.9719997  16.2679992  77.9054990  22.6829997
  16.8118187  78.3490563  23.1972721  93.9399992  50.1964990  86.8229997
  94.7739992  49.8184990  86.5419997  94.0519992  51.1394990  86.7039997
  94.0691917  50.2722954  86.7684844   2.3979992  79.3054990  27.6789997
   2.8429992  78.5134990  27.9809997   2.8639992  80.0214990  28.1089997
   2.5219718  79.2939546  27.7785247   0.7019992  82.3044990  28.7479997
   1.1939992  82.0834990  27.9569997   1.0639992  83.1444990  29.0289997
   0.8182923  82.3878480  28.6777389  18.7339992  78.5574990  19.6749997
  19.1469992  77.8364990  19.1999997  19.4159992  79.2264990  19.7329997
  18.8826060  78.5493741  19.6179233   1.0149992  78.5624990  22.8019997
   0.0899992  78.7704990  22.6729997   1.4689992  79.0464990  22.1119997
   0.9496298  78.6564311  22.6910433  15.7859992  93.5464990  24.7479997
  16.4379992  93.1984990  24.1399997  16.2969992  94.0344990  25.3939997
  15.9442872  93.5648248  24.7520964   0.9789992  77.3004990  31.1459997
   0.3139992  77.0544990  31.7889997   0.5359992  77.9224990  30.5689997
   0.8281168  77.3509225  31.1559830   6.1249992  91.4494990  31.5489997
   5.6999992  92.2594990  31.2669997   7.0289992  91.5354990  31.2469997
   6.1890706  91.5719557  31.4695836   3.5269992  94.7064990  31.5969997
   2.8059992  95.1464990  31.1459997   3.1609992  94.4554990  32.4449997
   3.3789632  94.7327235  31.6499649   5.9939992  94.3064990  30.6259997
   5.1289992  94.3784990  31.0299997   5.9389992  94.8534990  29.8429997
   5.8682289  94.3903242  30.5753749  10.7049992  94.1944990  29.8019997
  10.2479992  94.7234990  29.1479997  10.8669992  94.7974990  30.5269997
  10.6643919  94.3483990  29.8105740  92.4259992  53.0744990  89.1299997
  91.7789992  53.3994990  89.7549997  91.9089992  52.6334990  88.4549997
  92.2674068  53.0594726  89.1244918  13.0319992  93.0724990  30.7469997
  12.1279992  93.2374990  30.4809997  13.4609992  93.9254990  30.6809997
  12.9662017  93.2104184  30.7016495  15.6359992  94.6424990  31.0419997
  15.4549992  95.5584990  30.8309997  15.8129992  94.2314990  30.1949997
  15.6351377  94.7123365  30.8987178   2.9419992  93.3294990  28.5069997
   2.9229992  92.9034990  29.3639997   3.7459992  93.0104990  28.0979997
   3.0481393  93.2280297  28.5690155   5.0829992  92.0394990  27.1619997
   4.8639992  91.1224990  27.3319997   5.9069992  92.1794990  27.6279997
   5.1644702  91.9330523  27.2482510   7.6199992  92.5094990  28.0109997
   7.8329992  91.6214990  27.7239997   7.6849992  92.4744990  28.9649997
   7.6579149  92.3833338  28.1007351  11.1289992  78.1734990  27.1549997
  10.4539992  77.5434990  27.4109997  11.6929992  77.6894990  26.5519997
  11.1129363  78.0218886  27.1084810  16.2709992  76.2804990  27.2679997
  16.8749992  76.8284990  26.7659997  15.4019992  76.5994990  27.0269997
  16.2360419  76.3985628  27.1667741  17.9979992  77.4194990  25.6009997
  18.6099992  76.9054990  25.0739997  18.3809992  78.2964990  25.6239997
  18.1333867  77.4677613  25.5320888   3.4549992  76.8074990  24.9769997
   2.6779992  76.5724990  24.4699997   3.9859992  76.0104990  24.9859997
   3.4203735  76.6676462  24.9088090   2.2919992  76.6054990  20.7809997
   2.7309992  77.2164990  20.1889997   1.6579992  77.1434990  21.2549997
   2.2663859  76.7619076  20.7640287  94.4489992  47.3124990  78.2659997
  93.9279992  47.6684990  77.5469997  94.4159992  47.9874990  78.9439997
  94.3731525  47.4525273  78.2591408   8.0349992  76.7334990  24.7899997
   8.9089992  77.1224990  24.7609997   7.8989992  76.5184990  25.7129997
   8.1361953  76.7576654  24.9107599  13.5909992  76.7634990  26.4399997
  13.6679992  76.8594990  25.4899997  13.3159992  75.8564990  26.5679997
  13.5643233  76.6539093  26.3273665  14.9449992  76.7894990  22.1319997
  14.2419992  77.4044990  21.9219997  14.4999992  75.9524990  22.2629997
  14.7886550  76.7604679  22.1209819   2.1929992  92.5534990  21.6779997
   1.5079992  92.5154990  21.0109997   2.1959992  93.4654990  21.9659997
   2.0996806  92.6716669  21.6256961   4.1529992  78.5214990  19.2229997
   4.6439992  77.8914990  18.6959997   4.7759992  78.8174990  19.8859997
   4.3045304  78.4752387  19.2404922   9.1789992  78.8144990  21.6799997
   9.3569992  78.1674990  22.3629997   9.1249992  79.6484990  22.1469997
   9.1960678  78.8386615  21.8366283  11.0569992  93.7624990  20.0759997
  11.9229992  94.1294990  19.8979997  10.8099992  93.3234990  19.2619997
  11.1421853  93.7534021  19.9415813  17.7659992  93.3254990  22.7549997
  17.5719992  92.5774990  22.1899997  17.7269992  94.0834990  22.1719997
  17.7341645  93.3255797  22.5988131   4.0109992  93.4734990  18.7029997
   3.7429992  93.7594990  19.5769997   4.7819992  92.9274990  18.8559997
   4.0785926  93.4387790  18.8431188  31.3899992  85.9634990  24.9359997
  31.4789992  86.9074990  24.8029997  30.7509992  85.6884990  24.2779997
  31.3158378  86.0553846  24.8289258  92.7979992  44.5514990  76.8169997
  92.8949992  45.2184990  76.1369997  92.6579992  43.7364990  76.3349997
  92.7923428  44.5325667  76.6588311  30.3229992  85.2184990  28.3549997
  30.2839992  84.5724990  29.0599997  29.9999992  84.7514990  27.5829997
  30.2740469  85.0670005  28.3472803  22.6909992  84.8324990  29.9479997
  22.7319992  84.2074990  30.6709997  23.3939992  85.4564990  30.1299997
  22.7916223  84.8312318  30.0716164  34.0289992  88.1574990  26.6559997
  33.5879992  87.4374990  27.1069997  34.0159992  88.8784990  27.2859997
  33.9669215  88.1564303  26.8028088  23.6149992  89.2824990  28.4829997
  23.2449992  88.4804990  28.1129997  24.5559992  89.1144990  28.5289997
  23.6915984  89.1499649  28.4385586  20.2249992  82.9424990  23.8749997
  19.7769992  83.7884990  23.8569997  19.6639992  82.3634990  23.3599997
  20.0878546  82.9799004  23.8028874  20.9349992  85.1044990  26.0009997
  21.1489992  84.3344990  26.5279997  21.6729992  85.1944990  25.3979997
  21.0640073  85.0113546  25.9915786  31.1399992  93.2614990  26.8679997
  31.7599992  92.5854990  26.5949997  30.9319992  93.0434990  27.7769997
  31.1967679  93.1395032  26.9534518  28.7119992  87.6504990  28.7609997
  29.0159992  86.9644990  28.1659997  29.4339992  87.7694990  29.3789997
  28.8511240  87.5727325  28.7630941  37.3749992  79.2524990  29.6209997
  37.4239992  79.8624990  30.3569997  37.8009992  79.7134990  28.8979997
  37.4392851  79.3983266  29.6240532  31.8529992  82.0444990  29.0879997
  31.9949992  81.0984990  29.1079997  31.7469992  82.2514990  28.1599997
  31.8581051  81.9429706  28.9652249  91.9679992  45.9324990  82.4379997
  91.8179992  44.9874990  82.4179997  91.6139992  46.2134990  83.2819997
  91.8996351  45.8411656  82.5493202  25.0079992  80.1464990  26.3609997
  25.0509992  81.0064990  25.9419997  24.5499992  79.5934990  25.7269997
  24.9520163  80.1894174  26.2180604  32.7299992  80.2774990  24.7609997
  33.3759992  79.9484990  25.3859997  33.2399992  80.7944990  24.1389997
  32.8874289  80.3024333  24.7623681  21.6279992  82.5434990  27.1229997
  22.2819992  81.9934990  27.5549997  21.6519992  82.2694990  26.2059997
  21.7207199  82.4312178  27.0581650  26.7839992  84.0934990  26.3379997
  27.3999992  83.5664990  26.8469997  26.1979992  83.4534990  25.9339997
  26.7890652  83.9348919  26.3530277  37.7669992  80.7304990  31.8569997
  37.0779992  81.3884990  31.7619997  37.7819992  80.5324990  32.7939997
  37.6747756  80.7937614  31.9705795  23.8179992  79.0644990  30.4349997
  23.5989992  79.5944990  29.6679997  23.1499992  79.2904990  31.0819997
  23.6976975  79.1675979  30.4175123  31.1869992  88.5644990  23.9789997
  30.8909992  88.2414990  23.1269997  30.8629992  89.4644990  24.0199997
  31.1027458  88.6419678  23.8680598  26.3869992  86.7394990  30.7219997
  25.6469992  87.3384990  30.8259997  27.1009992  87.2934990  30.4059997
  26.3823146  86.8962611  30.6935150  34.4939992  79.5684990  26.7419997
  34.2789992  78.8024990  27.2749997  35.1499992  80.0404990  27.2549997
  34.5532673  79.5275739  26.8841972  23.4119992  80.9564990  28.3869997
  24.0249992  81.5894990  28.7599997  23.9239992  80.4844990  27.7309997
  23.5651933  80.9793380  28.3493477  77.0029992  48.0104990  86.4479997
  77.1869992  47.9284990  85.5129997  77.8519992  47.8864990  86.8719997
  77.1430259  47.9824915  86.3771771  24.7939992  88.7044990  31.5089997
  24.7889992  89.5834990  31.1309997  23.9409992  88.6204990  31.9339997
  24.6779199  88.8135901  31.5146942  20.9159992  88.3754990  22.2909997
  20.6439992  88.6044990  21.4019997  20.9609992  89.2124990  22.7519997
  20.8848360  88.5201034  22.2316186  34.5409992  89.9964990  29.0039997
  33.5989992  90.0554990  29.1659997  34.8169992  90.9024990  28.8669997
  34.4495865  90.1270299  29.0076174  34.8409992  78.2834990  30.4209997
  34.1049992  78.8934990  30.3839997  35.5249992  78.6984990  29.8949997
  34.8325367  78.4232562  30.3448156  27.8439992  76.3694990  27.8869997
  27.7269992  75.4214990  27.8329997  26.9889992  76.7024990  28.1599997
  27.7123691  76.2845842  27.9165072  32.7929992  91.7774990  25.6289997
  33.2179992  91.0704990  25.1439997  33.1099992  92.5794990  25.2119997
  32.8940266  91.7890201  25.5062461  33.9519992  89.6784990  24.1379997
  33.6949992  88.9884990  23.5259997  34.0229992  89.2354990  24.9829997
  33.9264322  89.5241568  24.1685372  35.6379992  88.2454990  32.6149997
  35.7779992  87.6534990  31.8759997  35.8059992  89.1184990  32.2589997
  35.6798734  88.2824041  32.4656937  30.1109992  85.2074990  22.3879997
  29.3989992  85.7424990  22.0359997  30.8019992  85.2624990  21.7279997
  30.1069704  85.2881663  22.2505797  30.1649992  83.6644990  19.4259997
  30.8659992  83.6874990  20.0779997  30.4669992  83.0364990  18.7699997
  30.3018202  83.5827223  19.4265591  92.8239992  47.9024990  92.0769997
  93.4069992  47.1674990  92.2679997  93.3879992  48.6744990  92.1229997
  92.9800326  47.9062746  92.1093579  37.4799992  84.5854990  30.6809997
  36.8279992  85.2794990  30.7699997  37.9449992  84.7954990  29.8709997
  37.4535357  84.7089544  30.5837056  33.5169992  85.4164990  23.3389997
  32.7849992  85.6454990  23.9119997  33.9639992  84.7034990  23.7939997
  33.4772753  85.3513984  23.4789698  33.4139992  83.5914990  32.4069997
  33.4939992  84.3544990  32.9789997  32.8129992  83.8704990  31.7169997
  33.3436547  83.7337468  32.3920029  25.1619992  86.0474990  25.2219997
  24.8319992  85.6764990  24.4039997  25.7499992  85.3764990  25.5689997
  25.1963182  85.9060648  25.1569898  26.5289992  89.4754990  27.9029997
  26.4339992  88.8964990  27.1469997  27.2579992  89.1044990  28.3989997
  26.6146011  89.3460572  27.8666011  25.5289992  84.8154990  28.8549997
  26.0939992  84.9374990  28.0929997  25.8469992  85.4534990  29.4939997
  25.6493619  84.9184388  28.8370019  31.8379992  90.3194990  29.5889997
  31.5969992  90.9814990  30.2369997  31.6399992  89.4844990  30.0139997
  31.7782662  90.2972704  29.7351008  32.3879992  84.5794990  21.0249997
  32.9669992  84.7294990  21.7709997  32.8019992  85.0494990  20.3009997
  32.5233358  84.6635966  21.0293935  23.3289992  85.4134990  32.8009997
  23.3989992  86.0644990  33.4999997  22.4379992  85.5164990  32.4659997
  23.2181690  85.5164261  32.8513026  30.1139992  91.3154990  24.4599997
  30.5879992  91.6114990  25.2369997  29.5509992  92.0544990  24.2269997
  30.1027890  91.4558047  24.5348084  94.3209992  45.8054990  92.7609997
  93.4569992  45.4264990  92.5959997  94.9249992  45.0664990  92.6869997
  94.2844912  45.6537937  92.7284360  36.0859992  76.3294990  20.8369997
  35.1859992  76.4674990  21.1329997  36.3379992  77.1604990  20.4359997
  35.9967727  76.4608705  20.8232935  24.1519992  85.1164990  22.8109997
  23.8599992  85.8844990  22.3199997  23.4779992  84.4574990  22.6479997
  24.0208843  85.1324537  22.7217695  37.2759992  90.6954990  19.2139997
  37.3489992  91.6344990  19.3839997  38.1809992  90.3904990  19.1579997
  37.4084170  90.7828294  19.2297045  20.2449992  87.4794990  31.6259997
  19.7439992  87.4514990  30.8109997  20.2509992  86.5744990  31.9359997
  20.1771690  87.3532234  31.5562770  19.9959992  90.2604990  28.5099997
  20.9419992  90.1154990  28.4909997  19.8829992  91.0444990  29.0469997
  20.1103578  90.3466708  28.5800300  29.5859992  94.2724990  22.8749997
  29.5109992  94.1514990  21.9279997  29.6189992  95.2214990  22.9929997
  29.5802083  94.3842639  22.7614973  23.2399992  93.0614990  24.6559997
  23.3919992  92.7134990  25.5339997  22.3889992  92.7044990  24.3999997
  23.1458344  92.9655891  24.7416851  32.6879992  93.4264990  19.8769997
  33.0629992  92.6824990  19.4059997  32.6919992  93.1564990  20.7949997
  32.7398969  93.2880920  19.9366475  32.3569992  93.3524990  22.6259997
  31.4219992  93.4524990  22.8049997  32.6369992  92.6424990  23.2049997
  32.2669471  93.2702944  22.7286678  22.4939992  88.8034990  32.6689997
  22.7099992  88.4414990  33.5289997  21.6389992  88.4284990  32.4599997
  22.4079082  88.7033377  32.7582396  91.6779992  43.5144990  80.8999997
  91.9579992  42.6074990  81.0249997  92.4369992  43.9484990  80.5109997
  91.8189471  43.4490654  80.8645052  25.1129992  77.2734990  28.6649997
  24.2509992  77.1864990  28.2569997  25.0909992  78.1294990  29.0929997
  24.9920557  77.3773078  28.6670202  29.7759992  76.9954990  32.0399997
  30.1959992  76.5804990  32.7929997  28.8429992  76.8164990  32.1569997
  29.7073736  76.9144921  32.1588950  33.1019992  80.7504990  32.8929997
  32.5879992  80.6254990  33.6909997  32.9469992  81.6634990  32.6489997
  33.0107802  80.8567433  32.9691504  33.8649992  85.6114990  18.6539997
  33.9069992  85.3894990  17.7239997  34.7139992  86.0104990  18.8439997
  33.9855253  85.6350510  18.5523804  29.4379992  79.4874990  19.3249997
  29.1839992  79.5064990  20.2469997  29.1809992  78.6164990  19.0229997
  29.3684508  79.3723292  19.4104786  25.2039992  82.2384990  29.7599997
  24.5619992  82.1984990  30.4689997  25.2409992  83.1654990  29.5219997
  25.1211659  82.3582540  29.8248463  25.2009992  82.4594990  24.6719997
  24.3079992  82.1194990  24.6129997  25.6519992  82.0824990  23.9159997
  25.1397185  82.3620220  24.5617698  30.7369992  82.8754990  23.4889997
  30.3279992  83.6904990  23.1969997  31.4569992  82.7354990  22.8749997
  30.7784439  82.9680383  23.3660098  31.7409992  82.3214990  26.3029997
  31.5459992  82.9274990  25.5879997  31.9229992  81.4884990  25.8689997
  31.7389195  82.2917936  26.1464079  22.9539992  82.5594990  31.6269997
  22.9159992  82.9594990  32.4959997  22.4629992  81.7424990  31.7169997
  22.8824374  82.5038228  31.7580980  92.2899992  44.0964990  86.3359997
  93.2229992  44.3084990  86.3019997  92.0549992  44.1974990  87.2589997
  92.3858357  44.1391303  86.4560232  26.3199992  79.9334990  18.4259997
  25.8889992  79.4884990  19.1549997  25.6019992  80.3044990  17.9129997
  26.1639176  79.9227063  18.4564913  19.5619992  79.6754990  25.4779997
  20.1929992  79.6464990  26.1969997  20.0119992  79.2504990  24.7469997
  19.7091082  79.6141269  25.4776307  20.8359992  80.4214990  20.9019997
  21.3109992  81.0124990  20.3169997  20.1189992  80.9514990  21.2489997
  20.8040406  80.5741011  20.8688495  31.0049992  83.9594990  30.9739997
  31.3289992  83.3284990  30.3309997  30.5649992  83.4254990  31.6349997
  30.9898707  83.8008261  30.9753195  27.7829992  79.8874990  25.7579997
  26.8719992  79.9444990  26.0469997  28.2879992  79.8274990  26.5689997
  27.7266873  79.8871838  25.9071190  22.6109992  81.5164990  24.5849997
  21.7219992  81.6154990  24.2449997  22.9069992  80.6744990  24.2389997
  22.5294001  81.4162473  24.4917318  26.2639992  81.5164990  22.2419997
  27.1959992  81.6454990  22.4199997  26.0489992  82.1854990  21.5919997
  26.3624472  81.6245817  22.1784873  32.1879992  79.1224990  29.0219997
  31.5109992  79.2534990  29.6859997  31.7019992  78.9674990  28.2119997
  32.0297265  79.1194665  29.0033380  24.9379992  82.7104990  19.8079997
  24.3959992  82.3314990  19.1169997  25.7719992  82.9054990  19.3799997
  24.9764390  82.6849091  19.6554374  29.1029992  82.6744990  27.6449997
  29.6669992  82.1284990  27.0979997  28.9549992  82.1534990  28.4339997
  29.1603037  82.5291798  27.6767212  92.3189992  44.8334990  89.1119997
  91.4759992  45.1014990  89.4779997  92.7619992  45.6554990  88.9009997
  92.2634358  44.9813294  89.1335999  24.1049992  78.8114990  24.0639997
  23.7869992  77.9084990  24.0279997  24.8859992  78.8134990  23.5109997
  24.1671079  78.6882240  23.9842908  27.7289992  81.0634990  30.0589997
  26.8939992  81.5174990  30.1699997  28.2529992  81.3394990  30.8109997
  27.6856072  81.1628960  30.1758118  28.2729992  87.2764990  21.7439997
  27.5279992  86.7684990  21.4219997  28.1389992  87.3254990  22.6899997
  28.1529334  87.2136144  21.8278892  35.4229992  86.4094990  30.5309997
  36.0649992  86.8654990  29.9869997  34.5929992  86.5224990  30.0679997
  35.3986536  86.4871813  30.3939579  32.1709992  80.0904990  19.9429997
  31.2319992  80.2014990  19.7919997  32.4679992  80.9464990  20.2499997
  32.0826136  80.2214977  19.9638568  29.7929992  87.4604990  32.9809997
  29.4469992  87.0784990  33.7879997  29.5929992  88.3934990  33.0519997
  29.7185987  87.5344013  33.1010443  32.8889992  81.9574990  21.6039997
  33.7809992  81.8194990  21.9229997  32.9459992  82.7484990  21.0669997
  33.0187380  82.0454777  21.5750981  23.3979992  86.5714990  27.5139997
  24.1429992  86.5684990  26.9119997  23.4759992  85.7474990  27.9949997
  23.5103365  86.4597395  27.4967412  30.3989992  88.7344990  20.7689997
  30.1039992  89.5614990  21.1509997  29.6959992  88.1154990  20.9659997
  30.2636379  88.7639182  20.8478636  20.4059992  85.0314990  32.8289997
  20.6289992  84.6134990  33.6599997  19.8039992  84.4194990  32.4059997
  20.3551513  84.8914617  32.8856722  76.5999992  43.2804990  92.5889997
  77.5199992  43.1584990  92.8249997  76.1509992  42.5304990  92.9779997
  76.6651561  43.1623720  92.6739015  32.0429992  89.9224990  32.9309997
  31.1419992  90.1054990  32.6639997  32.0769992  90.1814990  33.8519997
  31.9243861  89.9825245  33.0189517  37.7739992  82.1664990  21.2989997
  37.2199992  81.7704990  20.6259997  37.8749992  83.0774990  21.0209997
  37.7118589  82.2353904  21.1693839  37.7369992  87.9674990  34.1359997
  36.8859992  88.2054990  33.7679997  38.3279992  87.9504990  33.3819997
  37.7003831  87.9977623  33.9838448  36.0689992  90.9524990  21.7639997
  35.6969992  90.1274990  22.0729997  36.3469992  90.7694990  20.8659997
  36.0555807  90.8147031  21.6850063  33.2299992  85.7604990  28.7849997
  32.3019992  85.5294990  28.7579997  33.6809992  84.9834990  28.4549997
  33.1638165  85.6237785  28.7366772  25.7729992  90.0894990  24.9179997
  26.2999992  90.8624990  24.7179997  24.8929992  90.3134990  24.6159997
  25.7262121  90.2257344  24.8497460  21.5279992  84.9514990  19.5049997
  22.1439992  85.5784990  19.8849997  20.6659992  85.2674990  19.7769997
  21.4957678  85.0799423  19.5937192  27.1999992  87.7524990  24.4939997
  26.9589992  88.6774990  24.5359997  26.4599992  87.2934990  24.8909997
  27.0669463  87.8170969  24.5534279  27.7149992  91.9014990  30.8089997
  28.0779992  92.7554990  30.5759997  28.2469992  91.6094990  31.5499997
  27.8365141  91.9788907  30.8772079  25.8829992  92.7734990  24.0399997
  24.9339992  92.8794990  24.0909997  26.2349992  93.5944990  24.3839997
  25.8005647  92.8990029  24.0934882  94.6019992  38.8134990  94.4659997
  94.9519992  38.1594990  93.8599997  94.7489992  39.6504990  94.0259997
  94.6697192  38.8372545  94.3236712  31.2589992  88.0004990  30.5099997
  30.8329992  87.7724990  31.3359997  31.8399992  87.2614990  30.3279997
  31.2792088  87.8694393  30.5984454  33.4619992  88.9294990  19.5839997
  33.8149992  88.5494990  20.3879997  32.5129992  88.8354990  19.6709997
  33.3820956  88.8647867  19.7058005  33.9179992  92.5524990  32.9789997
  33.3159992  91.9964990  32.4839997  34.1989992  93.2194990  32.3529997
  33.8735757  92.5665755  32.8265657  37.9649992  93.4084990  19.7849997
  38.7089992  93.9944990  19.6449997  37.2709992  93.9774990  20.1179997
  37.9729809  93.5655830  19.8108572  34.3279992  87.6014990  21.8109997
  34.0509992  86.8734990  22.3669997  35.2549992  87.7204990  22.0159997
  34.4154419  87.5179436  21.9148264  21.6909992  91.5894990  30.8219997
  21.9079992  90.6574990  30.7909997  21.9379992  91.8644990  31.7049997
  21.7540948  91.4990976  30.9371268  27.5529992  90.0414990  18.0309997
  27.7919992  89.2924990  17.4839997  27.2839992  89.6534990  18.8639997
  27.5493233  89.8866865  18.0687791  26.4899992  89.6114990  20.4869997
  26.6369992  89.0914990  21.2769997  26.4869992  90.5184990  20.7939997
  26.5097102  89.6628964  20.6365907  22.9429992  86.8634990  20.9979997
  22.2569992  87.2164990  21.5649997  23.4659992  87.6264990  20.7509997
  22.9198402  87.0148912  21.0421783  30.7739992  79.5264990  31.2769997
  31.4729992  79.6004990  31.9269997  30.3939992  78.6614990  31.4309997
  30.8182662  79.4197050  31.3867412  92.2919992  40.7774990  80.9489997
  92.4739992  40.3284990  81.7739997  91.6919992  40.1934990  80.4849997
  92.2358187  40.6370563  80.9992721  31.5589992  79.1784990  22.3739997
  31.7789992  79.6494990  21.5699997  32.1169992  79.5724990  23.0439997
  31.6646044  79.2962946  22.3545207  29.2279992  91.3084990  21.2369997
  28.4109992  91.8054990  21.2889997  29.7569992  91.7844990  20.5959997
  29.1878125  91.4407000  21.1575289  28.7589992  80.9064990  23.2089997
  29.5709992  81.4104990  23.2549997  28.5139992  80.7614990  24.1229997
  28.8371091  80.9559366  23.3388552  29.2949992  81.8924990  32.3929997
  29.4139992  82.4664990  33.1499997  29.9499992  81.2044990  32.5079997
  29.3998684  81.8780205  32.5121656  29.6429992  77.9874990  24.1469997
  29.2959992  78.6044990  24.7909997  30.3009992  78.4884990  23.6649997
  29.6844430  78.1396860  24.1700046  26.5659992  92.3524990  21.2179997
  26.7269992  93.1524990  20.7179997  26.3689992  92.6594990  22.1029997
  26.5613906  92.5033690  21.2692316  25.2999992  79.0504990  20.8339997
  25.2169992  79.9384990  21.1809997  26.1899992  78.7854990  21.0659997
  25.4089331  79.1361177  20.9128067  35.4989992  79.7994990  33.2279997
  34.5829992  80.0614990  33.1409997  35.8349992  79.7964990  32.3319997
  35.4188499  79.8350174  33.0948748  34.1009992  83.5494990  27.3239997
  33.3039992  83.1344990  26.9959997  34.5459992  82.8594990  27.8149997
  34.0520367  83.3993372  27.3454897  23.5589992  89.4774990  19.8939997
  24.1509992  90.1774990  20.1709997  24.0179992  89.0444990  19.1749997
  23.7021652  89.5147686  19.8346515  77.8219992  41.5934990  85.4799997
  78.2669992  40.8014990  85.7819997  78.2879992  42.3094990  85.9109997
  77.9459059  41.5819485  85.5796061  21.8749992  82.1424990  19.0099997
  21.8299992  83.0814990  19.1889997  20.9869992  81.9064990  18.7409997
  21.7488166  82.2391698  18.9981507  35.1879992  92.8054990  28.9459997
  35.0319992  93.4844990  28.2889997  36.1199992  92.8774990  29.1489997
  35.2927328  92.9081586  28.8835529  22.6829992  76.9234990  27.6829997
  22.4539992  76.9824990  26.7559997  22.2399992  76.1324990  27.9899997
  22.5917387  76.8246412  27.5975223  21.6129992  90.8644990  23.8439997
  20.7809992  91.3364990  23.8709997  22.1589992  91.3744990  23.2449997
  21.5728710  90.9980317  23.7667570  20.9019992  93.4764990  35.1739997
  21.4419992  93.2604990  35.9339997  20.4199992  92.6714990  34.9839997
  20.9108485  93.3380463  35.2524870  29.5909992  91.9044990  18.1689997
  28.9469992  91.2734990  18.4909997  30.3529992  91.3734990  17.9379997
  29.6058708  91.7463171  18.1818462  34.1949992  91.7214990  18.4029997
  34.4779992  90.9264990  18.8559997  34.9349992  91.9544990  17.8419997
  34.3337295  91.6442349  18.3891469  25.1499992  87.6304990  18.2609997
  25.2139992  86.8364990  18.7909997  25.8029992  87.5124990  17.5709997
  25.2470483  87.5057496  18.2403407  30.5019992  88.6774990  17.9969997
  30.2339992  88.8584990  18.8969997  30.2959992  87.7524990  17.8649997
  30.4373443  88.5771873  18.1026643  33.1989992  87.1724990  32.9439997
  33.9439992  87.7614990  32.8249997  32.4409992  87.7544990  33.0069997
  33.1985289  87.3317067  32.9362292  76.1259992  44.5924990  86.5489997
  76.6179992  44.3714990  85.7589997  76.4879992  45.4324990  86.8299997
  76.2423428  44.6758220  86.4787918  21.6409992  84.4874990  35.5479997
  22.0489992  83.6304990  35.4269997  21.3809992  84.5014990  36.4689997
  21.6617082  84.3720596  35.6559469  26.2989992  85.6034990  20.5669997
  25.8399992  85.1194990  21.2519997  26.5539992  84.9344990  19.9309997
  26.2705997  85.4468491  20.5748734  25.5879992  83.4964990  32.9229997
  24.9699992  84.1704990  33.2029997  25.9319992  83.8174990  32.0889997
  25.5498078  83.6322298  32.8486609  27.3699992  83.8464990  18.8289997
  27.1899992  83.6914990  17.9019997  28.3199992  83.9544990  18.8739997
  27.4737804  83.8398821  18.7081966  36.7599992  86.2004990  18.2749997
  36.4869992  85.7764990  17.4619997  36.7999992  87.1324990  18.0579997
  36.7280201  86.2683523  18.1343548  26.3399992  79.2204990  31.4979997
  26.8759992  79.6724990  30.8459997  25.4879992  79.1124990  31.0749997
  26.2981795  79.2677444  31.3516211  27.9219992  84.6604990  31.7369997
  28.6729992  84.5044990  31.1639997  27.5829992  85.5124990  31.4619997
  27.9789587  84.7543149  31.6214060  27.1459992  76.6774990  31.9289997
  27.0479992  77.6234990  31.8239997  26.4029992  76.3044990  31.4529997
  27.0322123  76.7566811  31.8503204  27.2679992  94.5364990  19.8299997
  28.2009992  94.6944990  19.9739997  27.0029992  95.2124990  19.2049997
  27.3599846  94.6494567  19.7652930  20.8359992  89.1734990  19.3129997
  21.7499992  89.2524990  19.5859997  20.8429992  88.4864990  18.6469997
  20.9620624  89.0914074  19.2603045  94.1219992  40.9224990  92.8149997
  93.2049992  41.1934990  92.7789997  94.2449992  40.3874990  92.0309997
  94.0130828  40.8872711  92.7040767  19.4849992  94.5664990  24.3899997
  18.8379992  94.1044990  23.8579997  19.8399992  93.8944990  24.9729997
  19.4443741  94.4124785  24.3959157  20.3549992  92.6464990  26.1949997
  20.0209992  91.7664990  26.3669997  20.5769992  92.9924990  27.0599997
  20.3392565  92.5727410  26.3354263  37.9039992  93.4564990  29.1759997
  37.8819992  93.6414990  30.1139997  38.5939992  94.0244990  28.8349997
  37.9943383  93.5587104  29.2584580  37.4669992  93.0234990  32.0969997
  36.9799992  92.2874990  31.7259997  38.0159992  92.6294990  32.7749997
  37.4746101  92.8696267  32.1379034  37.2189992  87.0694990  22.2499997
  38.0689992  87.4904990  22.3769997  37.2239992  86.3294990  22.8569997
  37.3361143  87.0271106  22.3494732  37.6129992  85.1234990  24.0729997
  36.8869992  84.6434990  24.4709997  38.1939992  85.3284990  24.8049997
  37.5922504  85.0855592  24.2264199  37.3719992  87.9084990  29.0209997
  38.2059992  87.5304990  28.7399997  37.4839992  88.8514990  28.9019997
  37.5011917  87.9842954  28.9664844  35.8579992  90.7864990  31.3279997
  35.2109992  91.1114990  31.9529997  35.3409992  90.3454990  30.6539997
  35.6994112  90.7714133  31.3225272  37.8809992  85.0244990  20.4639997
  37.3599992  85.3804990  19.7459997  37.8479992  85.6994990  21.1429997
  37.8050955  85.1645023  20.4572634  36.2299992  82.2634990  19.0149997
  36.3269992  82.9304990  18.3349997  36.0899992  81.4484990  18.5339997
  36.2243407  82.2445670  18.8568312  76.4389992  40.8504990  80.6039997
  75.5139992  41.0584990  80.4739997  76.8929992  41.3344990  79.9139997
  76.3737401  40.9443895  80.4929433  35.3999992  83.6444990  24.6359997
  35.2499992  82.6994990  24.6159997  35.0459992  83.9254990  25.4799997
  35.3316351  83.5531656  24.7473202  20.4349992  85.7224990  28.6469997
  20.6189992  85.6404990  27.7109997  21.2839992  85.5984990  29.0699997
  20.5750132  85.6945066  28.5761460  36.2559992  85.6144990  34.2749997
  36.8389992  84.8794990  34.4669997  36.8199992  86.3864990  34.3219997
  36.4119781  85.6183156  34.3076146  35.4779992  79.6714990  18.1329997
  36.0879992  79.3004990  18.7699997  34.6409992  79.2504990  18.3289997
  35.4483704  79.5637942  18.2467077  35.1099992  81.2264990  23.0989997
  35.3899992  80.3194990  23.2229997  35.8689992  81.6604990  22.7099997
  35.2509258  81.1610935  23.0633691  35.7219992  81.8084990  28.5349997
  36.6549992  82.0204990  28.4999997  35.4869992  81.9094990  29.4569997
  35.8179517  81.8511844  28.6549113  35.7509992  82.5454990  31.3109997
  34.9079992  82.8134990  31.6759997  36.1939992  83.3674990  31.0999997
  35.6954035  82.6933351  31.3324770  20.0319992  80.9924990  34.7869997
  20.9519992  80.8704990  35.0239997  19.5829992  80.2424990  35.1769997
  20.0970500  80.8744576  34.8721016  35.7239992  78.4894990  23.1469997
  35.9059992  78.0404990  23.9719997  35.1239992  77.9054990  22.6829997
  35.6678187  78.3490563  23.1972721  21.2539992  79.3054990  27.6789997
  21.6989992  78.5134990  27.9809997  21.7199992  80.0214990  28.1089997
  21.3779718  79.2939546  27.7785247  91.2099992  55.8344990  82.5489997
  91.8619992  55.4864990  81.9409997  91.7209992  56.3224990  83.1949997
  91.3682872  55.8528248  82.5530964  19.5579992  82.3044990  28.7479997
  20.0499992  82.0834990  27.9569997  19.9199992  83.1444990  29.0289997
  19.6742923  82.3878480  28.6777389  37.5539992  78.6344990  35.0129997
  36.6369992  78.9054990  34.9769997  37.6769992  78.0994990  34.2289997
  37.4450828  78.5992711  34.9020767  37.5899992  78.5574990  19.6749997
  38.0029992  77.8364990  19.1999997  38.2719992  79.2264990  19.7329997
  37.7386060  78.5493741  19.6179233  19.8709992  78.5624990  22.8019997
  18.9459992  78.7704990  22.6729997  20.3249992  79.0464990  22.1119997
  19.8056298  78.6564311  22.6910433  34.6419992  93.5464990  24.7479997
  35.2939992  93.1984990  24.1399997  35.1529992  94.0344990  25.3939997
  34.8002872  93.5648248  24.7520964  19.8349992  77.3004990  31.1459997
  19.1699992  77.0544990  31.7889997  19.3919992  77.9224990  30.5689997
  19.6841168  77.3509225  31.1559830  24.9809992  91.4494990  31.5489997
  24.5559992  92.2594990  31.2669997  25.8849992  91.5354990  31.2469997
  25.0450706  91.5719557  31.4695836  36.5549992  76.7244990  32.8319997
  35.7419992  77.0494990  32.4449997  36.7879992  75.9634990  32.2989997
  36.4751347  76.6661891  32.7069824  22.3829992  94.7064990  31.5969997
  21.6619992  95.1464990  31.1459997  22.0169992  94.4554990  32.4449997
  22.2349632  94.7327235  31.6499649  24.8499992  94.3064990  30.6259997
  23.9849992  94.3784990  31.0299997  24.7949992  94.8534990  29.8429997
  24.7242289  94.3903242  30.5753749  76.4029992  39.5884990  88.9479997
  75.7379992  39.3424990  89.5909997  75.9599992  40.2104990  88.3709997
  76.2521168  39.6389225  88.9579830  29.5609992  94.1944990  29.8019997
  29.1039992  94.7234990  29.1479997  29.7229992  94.7974990  30.5269997
  29.5203919  94.3483990  29.8105740  31.8879992  93.0724990  30.7469997
  30.9839992  93.2374990  30.4809997  32.3169992  93.9254990  30.6809997
  31.8222017  93.2104184  30.7016495  34.4919992  94.6424990  31.0419997
  34.3109992  95.5584990  30.8309997  34.6689992  94.2314990  30.1949997
  34.4911377  94.7123365  30.8987178  21.7979992  93.3294990  28.5069997
  21.7789992  92.9034990  29.3639997  22.6019992  93.0104990  28.0979997
  21.9041393  93.2280297  28.5690155  23.9389992  92.0394990  27.1619997
  23.7199992  91.1224990  27.3319997  24.7629992  92.1794990  27.6279997
  24.0204702  91.9330523  27.2482510  26.4759992  92.5094990  28.0109997
  26.6889992  91.6214990  27.7239997  26.5409992  92.4744990  28.9649997
  26.5139149  92.3833338  28.1007351  29.9849992  78.1734990  27.1549997
  29.3099992  77.5434990  27.4109997  30.5489992  77.6894990  26.5519997
  29.9689363  78.0218886  27.1084810  35.1269992  76.2804990  27.2679997
  35.7309992  76.8284990  26.7659997  34.2579992  76.5994990  27.0269997
  35.0920419  76.3985628  27.1667741  36.8539992  77.4194990  25.6009997
  37.4659992  76.9054990  25.0739997  37.2369992  78.2964990  25.6239997
  36.9893867  77.4677613  25.5320888  22.3109992  76.8074990  24.9769997
  21.5339992  76.5724990  24.4699997  22.8419992  76.0104990  24.9859997
  22.2763735  76.6676462  24.9088090  78.5949992  52.7634990  93.0919997
  77.7739992  52.9384990  92.6319997  78.3429992  52.6904990  94.0129997
  78.4486173  52.7775806  93.1534954  21.1479992  76.6054990  20.7809997
  21.5869992  77.2164990  20.1889997  20.5139992  77.1434990  21.2549997
  21.1223859  76.7619076  20.7640287  26.8909992  76.7334990  24.7899997
  27.7649992  77.1224990  24.7609997  26.7549992  76.5184990  25.7129997
  26.9921953  76.7576654  24.9107599  32.4469992  76.7634990  26.4399997
  32.5239992  76.8594990  25.4899997  32.1719992  75.8564990  26.5679997
  32.4203233  76.6539093  26.3273665  33.8009992  76.7894990  22.1319997
  33.0979992  77.4044990  21.9219997  33.3559992  75.9524990  22.2629997
  33.6446550  76.7604679  22.1209819  21.0489992  92.5534990  21.6779997
  20.3639992  92.5154990  21.0109997  21.0519992  93.4654990  21.9659997
  20.9556806  92.6716669  21.6256961  23.0089992  78.5214990  19.2229997
  23.4999992  77.8914990  18.6959997  23.6319992  78.8174990  19.8859997
  23.1605304  78.4752387  19.2404922  28.0349992  78.8144990  21.6799997
  28.2129992  78.1674990  22.3629997  27.9809992  79.6484990  22.1469997
  28.0520678  78.8386615  21.8366283  29.9129992  93.7624990  20.0759997
  30.7789992  94.1294990  19.8979997  29.6659992  93.3234990  19.2619997
  29.9981853  93.7534021  19.9415813  36.6219992  93.3254990  22.7549997
  36.4279992  92.5774990  22.1899997  36.5829992  94.0834990  22.1719997
  36.5901645  93.3255797  22.5988131  22.8669992  93.4734990  18.7029997
  22.5989992  93.7594990  19.5769997  23.6379992  92.9274990  18.8559997
  22.9345926  93.4387790  18.8431188  81.5489992  53.7374990  89.3509997
  81.1239992  54.5474990  89.0679997  82.4529992  53.8234990  89.0489997
  81.6131002  53.8598728  89.2714798  50.2459992  85.9634990  24.9359997
  50.3349992  86.9074990  24.8029997  49.6069992  85.6884990  24.2779997
  50.1718378  86.0553846  24.8289258  49.1789992  85.2184990  28.3549997
  49.1399992  84.5724990  29.0599997  48.8559992  84.7514990  27.5829997
  49.1300469  85.0670005  28.3472803  41.5469992  84.8324990  29.9479997
  41.5879992  84.2074990  30.6709997  42.2499992  85.4564990  30.1299997
  41.6476223  84.8312318  30.0716164  52.8849992  88.1574990  26.6559997
  52.4439992  87.4374990  27.1069997  52.8719992  88.8784990  27.2859997
  52.8229215  88.1564303  26.8028088  42.4709992  89.2824990  28.4829997
  42.1009992  88.4804990  28.1129997  43.4119992  89.1144990  28.5289997
  42.5475984  89.1499649  28.4385586  39.0809992  82.9424990  23.8749997
  38.6329992  83.7884990  23.8569997  38.5199992  82.3634990  23.3599997
  38.9438546  82.9799004  23.8028874  39.7909992  85.1044990  26.0009997
  40.0049992  84.3344990  26.5279997  40.5289992  85.1944990  25.3979997
  39.9200073  85.0113546  25.9915786  49.9959992  93.2614990  26.8679997
  50.6159992  92.5854990  26.5949997  49.7879992  93.0434990  27.7769997
  50.0527679  93.1395032  26.9534518  47.5679992  87.6504990  28.7609997
  47.8719992  86.9644990  28.1659997  48.2899992  87.7694990  29.3789997
  47.7071240  87.5727325  28.7630941  50.7089992  82.0444990  29.0879997
  50.8509992  81.0984990  29.1079997  50.6029992  82.2514990  28.1599997
  50.7141051  81.9429706  28.9652249  85.8599992  55.1364990  92.3099997
  86.0449992  54.8034990  93.1879997  86.7069992  55.4464990  91.9879997
  85.9997291  55.1328214  92.3866140  43.8639992  80.1464990  26.3609997
  43.9069992  81.0064990  25.9419997  43.4059992  79.5934990  25.7269997
  43.8080163  80.1894174  26.2180604  51.5859992  80.2774990  24.7609997
  52.2319992  79.9484990  25.3859997  52.0959992  80.7944990  24.1389997
  51.7434289  80.3024333  24.7623681  40.4839992  82.5434990  27.1229997
  41.1379992  81.9934990  27.5549997  40.5079992  82.2694990  26.2059997
  40.5767199  82.4312178  27.0581650  45.6399992  84.0934990  26.3379997
  46.2559992  83.5664990  26.8469997  45.0539992  83.4534990  25.9339997
  45.6450652  83.9348919  26.3530277  42.6739992  79.0644990  30.4349997
  42.4549992  79.5944990  29.6679997  42.0059992  79.2904990  31.0819997
  42.5536975  79.1675979  30.4175123  50.0429992  88.5644990  23.9789997
  49.7469992  88.2414990  23.1269997  49.7189992  89.4644990  24.0199997
  49.9587458  88.6419678  23.8680598  45.2429992  86.7394990  30.7219997
  44.5029992  87.3384990  30.8259997  45.9569992  87.2934990  30.4059997
  45.2383146  86.8962611  30.6935150  53.3499992  79.5684990  26.7419997
  53.1349992  78.8024990  27.2749997  54.0059992  80.0404990  27.2549997
  53.4092673  79.5275739  26.8841972  42.2679992  80.9564990  28.3869997
  42.8809992  81.5894990  28.7599997  42.7799992  80.4844990  27.7309997
  42.4211933  80.9793380  28.3493477  43.6499992  88.7044990  31.5089997
  43.6449992  89.5834990  31.1309997  42.7969992  88.6204990  31.9339997
  43.5339199  88.8135901  31.5146942  88.2049992  56.4224990  91.5539997
  88.8819992  55.7894990  91.3139997  88.5269992  56.8234990  92.3619997
  88.3411280  56.3900638  91.6303190  39.7719992  88.3754990  22.2909997
  39.4999992  88.6044990  21.4019997  39.8169992  89.2124990  22.7519997
  39.7408360  88.5201034  22.2316186  53.3969992  89.9964990  29.0039997
  52.4549992  90.0554990  29.1659997  53.6729992  90.9024990  28.8669997
  53.3055865  90.1270299  29.0076174  46.6999992  76.3694990  27.8869997
  46.5829992  75.4214990  27.8329997  45.8449992  76.7024990  28.1599997
  46.5683691  76.2845842  27.9165072  51.6489992  91.7774990  25.6289997
  52.0739992  91.0704990  25.1439997  51.9659992  92.5794990  25.2119997
  51.7500266  91.7890201  25.5062461  52.8079992  89.6784990  24.1379997
  52.5509992  88.9884990  23.5259997  52.8789992  89.2354990  24.9829997
  52.7824322  89.5241568  24.1685372  54.4939992  88.2454990  32.6149997
  54.6339992  87.6534990  31.8759997  54.6619992  89.1184990  32.2589997
  54.5358734  88.2824041  32.4656937  48.9669992  85.2074990  22.3879997
  48.2549992  85.7424990  22.0359997  49.6579992  85.2624990  21.7279997
  48.9629704  85.2881663  22.2505797  49.0209992  83.6644990  19.4259997
  49.7219992  83.6874990  20.0779997  49.3229992  83.0364990  18.7699997
  49.1578202  83.5827223  19.4265591  52.3729992  85.4164990  23.3389997
  51.6409992  85.6454990  23.9119997  52.8199992  84.7034990  23.7939997
  52.3332753  85.3513984  23.4789698  52.2699992  83.5914990  32.4069997
  52.3499992  84.3544990  32.9789997  51.6689992  83.8704990  31.7169997
  52.1996547  83.7337468  32.3920029  93.1229992  39.0124990  90.6339997
  92.3099992  39.3374990  90.2459997  93.3559992  38.2514990  90.1009997
  93.0432566  38.9541570  90.5089196  44.0179992  86.0474990  25.2219997
  43.6879992  85.6764990  24.4039997  44.6059992  85.3764990  25.5689997
  44.0523182  85.9060648  25.1569898  45.3849992  89.4754990  27.9029997
  45.2899992  88.8964990  27.1469997  46.1139992  89.1044990  28.3989997
  45.4706011  89.3460572  27.8666011  44.3849992  84.8154990  28.8549997
  44.9499992  84.9374990  28.0929997  44.7029992  85.4534990  29.4939997
  44.5053619  84.9184388  28.8370019  50.6939992  90.3194990  29.5889997
  50.4529992  90.9814990  30.2369997  50.4959992  89.4844990  30.0139997
  50.6342662  90.2972704  29.7351008  45.2649992  89.2154990  33.5729997
  44.9529992  89.9974990  34.0279997  44.6149992  89.0624990  32.8869997
  45.1344858  89.3017882  33.5425344  51.2439992  84.5794990  21.0249997
  51.8229992  84.7294990  21.7709997  51.6579992  85.0494990  20.3009997
  51.3793358  84.6635966  21.0293935  42.1849992  85.4134990  32.8009997
  42.2549992  86.0644990  33.4999997  41.2939992  85.5164990  32.4659997
  42.0741690  85.5164261  32.8513026  48.9699992  91.3154990  24.4599997
  49.4439992  91.6114990  25.2369997  48.4069992  92.0544990  24.2269997
  48.9587890  91.4558047  24.5348084  43.5039992  91.2864990  34.3359997
  43.5119992  91.1504990  33.3889997  42.5879992  91.1694990  34.5879997
  43.3812528  91.2520475  34.2403226  54.9419992  76.3294990  20.8369997
  54.0419992  76.4674990  21.1329997  55.1939992  77.1604990  20.4359997
  54.8527727  76.4608705  20.8232935  78.9509992  56.9944990  89.3979997
  78.2299992  57.4344990  88.9469997  78.5849992  56.7434990  90.2469997
  78.8029785  57.0207691  89.4509849  43.0079992  85.1164990  22.8109997
  42.7159992  85.8844990  22.3199997  42.3339992  84.4574990  22.6479997
  42.8768843  85.1324537  22.7217695  56.1319992  90.6954990  19.2139997
  56.2049992  91.6344990  19.3839997  57.0369992  90.3904990  19.1579997
  56.2644170  90.7828294  19.2297045  39.1009992  87.4794990  31.6259997
  38.5999992  87.4514990  30.8109997  39.1069992  86.5744990  31.9359997
  39.0331690  87.3532234  31.5562770  38.8519992  90.2604990  28.5099997
  39.7979992  90.1154990  28.4909997  38.7389992  91.0444990  29.0469997
  38.9663578  90.3466708  28.5800300  57.0489992  90.9264990  34.1929997
  56.9999992  89.9704990  34.1549997  56.2229992  91.1934990  34.5939997
  56.9305096  90.8318416  34.2420698  48.0279992  90.5004990  33.0689997
  48.1149992  91.3264990  33.5439997  47.1639992  90.1704990  33.3179997
  47.9231944  90.5689871  33.1676558  48.4419992  94.2724990  22.8749997
  48.3669992  94.1514990  21.9279997  48.4749992  95.2214990  22.9929997
  48.4362083  94.3842639  22.7614973  42.0959992  93.0614990  24.6559997
  42.2479992  92.7134990  25.5339997  41.2449992  92.7044990  24.3999997
  42.0018344  92.9655891  24.7416851  51.5439992  93.4264990  19.8769997
  51.9189992  92.6824990  19.4059997  51.5479992  93.1564990  20.7949997
  51.5958969  93.2880920  19.9366475  51.2129992  93.3524990  22.6259997
  50.2779992  93.4524990  22.8049997  51.4929992  92.6424990  23.2049997
  51.1229471  93.2702944  22.7286678  81.4179992  56.5944990  88.4279997
  80.5529992  56.6664990  88.8319997  81.3629992  57.1414990  87.6439997
  81.2922066  56.6782678  88.3773371  41.3499992  88.8034990  32.6689997
  41.5659992  88.4414990  33.5289997  40.4949992  88.4284990  32.4599997
  41.2639082  88.7033377  32.7582396  43.9689992  77.2734990  28.6649997
  43.1069992  77.1864990  28.2569997  43.9469992  78.1294990  29.0929997
  43.8480557  77.3773078  28.6670202  48.6319992  76.9954990  32.0399997
  49.0519992  76.5804990  32.7929997  47.6989992  76.8164990  32.1569997
  48.5633736  76.9144921  32.1588950  52.7209992  85.6114990  18.6539997
  52.7629992  85.3894990  17.7239997  53.5699992  86.0104990  18.8439997
  52.8415253  85.6350510  18.5523804  48.2939992  79.4874990  19.3249997
  48.0399992  79.5064990  20.2469997  48.0369992  78.6164990  19.0229997
  48.2244508  79.3723292  19.4104786  44.0599992  82.2384990  29.7599997
  43.4179992  82.1984990  30.4689997  44.0969992  83.1654990  29.5219997
  43.9771659  82.3582540  29.8248463  44.0569992  82.4594990  24.6719997
  43.1639992  82.1194990  24.6129997  44.5079992  82.0824990  23.9159997
  43.9957185  82.3620220  24.5617698  49.5929992  82.8754990  23.4889997
  49.1839992  83.6904990  23.1969997  50.3129992  82.7354990  22.8749997
  49.6344439  82.9680383  23.3660098  48.6949992  83.0514990  34.9769997
  48.1319992  82.3464990  35.2979997  49.5209992  82.9304990  35.4449997
  48.7296674  82.9387176  35.0841734  50.5969992  82.3214990  26.3029997
  50.4019992  82.9274990  25.5879997  50.7789992  81.4884990  25.8689997
  50.5949195  82.2917936  26.1464079  86.1289992  56.4824990  87.6039997
  85.6719992  57.0114990  86.9499997  86.2909992  57.0854990  88.3289997
  86.0883919  56.6363990  87.6125740  41.8099992  82.5594990  31.6269997
  41.7719992  82.9594990  32.4959997  41.3189992  81.7424990  31.7169997
  41.7384374  82.5038228  31.7580980  45.1759992  79.9334990  18.4259997
  44.7449992  79.4884990  19.1549997  44.4579992  80.3044990  17.9129997
  45.0199176  79.9227063  18.4564913  38.4179992  79.6754990  25.4779997
  39.0489992  79.6464990  26.1969997  38.8679992  79.2504990  24.7469997
  38.5651082  79.6141269  25.4776307  39.6919992  80.4214990  20.9019997
  40.1669992  81.0124990  20.3169997  38.9749992  80.9514990  21.2489997
  39.6600406  80.5741011  20.8688495  49.8609992  83.9594990  30.9739997
  50.1849992  83.3284990  30.3309997  49.4209992  83.4254990  31.6349997
  49.8458707  83.8008261  30.9753195  46.6389992  79.8874990  25.7579997
  45.7279992  79.9444990  26.0469997  47.1439992  79.8274990  26.5689997
  46.5826873  79.8871838  25.9071190  41.4669992  81.5164990  24.5849997
  40.5779992  81.6154990  24.2449997  41.7629992  80.6744990  24.2389997
  41.3854001  81.4162473  24.4917318  45.1199992  81.5164990  22.2419997
  46.0519992  81.6454990  22.4199997  44.9049992  82.1854990  21.5919997
  45.2184472  81.6245817  22.1784873  51.0439992  79.1224990  29.0219997
  50.3669992  79.2534990  29.6859997  50.5579992  78.9674990  28.2119997
  50.8857265  79.1194665  29.0033380  43.7939992  82.7104990  19.8079997
  43.2519992  82.3314990  19.1169997  44.6279992  82.9054990  19.3799997
  43.8324390  82.6849091  19.6554374  88.4559992  55.3604990  88.5489997
  87.5519992  55.5254990  88.2829997  88.8849992  56.2134990  88.4829997
  88.3902017  55.4984184  88.5036495  47.9589992  82.6744990  27.6449997
  48.5229992  82.1284990  27.0979997  47.8109992  82.1534990  28.4339997
  48.0163037  82.5291798  27.6767212  42.9609992  78.8114990  24.0639997
  42.6429992  77.9084990  24.0279997  43.7419992  78.8134990  23.5109997
  43.0231079  78.6882240  23.9842908  46.5849992  81.0634990  30.0589997
  45.7499992  81.5174990  30.1699997  47.1089992  81.3394990  30.8109997
  46.5416072  81.1628960  30.1758118  47.1289992  87.2764990  21.7439997
  46.3839992  86.7684990  21.4219997  46.9949992  87.3254990  22.6899997
  47.0089334  87.2136144  21.8278892  54.2789992  86.4094990  30.5309997
  54.9209992  86.8654990  29.9869997  53.4489992  86.5224990  30.0679997
  54.2546536  86.4871813  30.3939579  51.0269992  80.0904990  19.9429997
  50.0879992  80.2014990  19.7919997  51.3239992  80.9464990  20.2499997
  50.9386136  80.2214977  19.9638568  51.7449992  81.9574990  21.6039997
  52.6369992  81.8194990  21.9229997  51.8019992  82.7484990  21.0669997
  51.8747380  82.0454777  21.5750981  42.2539992  86.5714990  27.5139997
  42.9989992  86.5684990  26.9119997  42.3319992  85.7474990  27.9949997
  42.3663366  86.4597395  27.4967412  49.2549992  88.7344990  20.7689997
  48.9599992  89.5614990  21.1509997  48.5519992  88.1154990  20.9659997
  49.1196379  88.7639182  20.8478636  39.2619992  85.0314990  32.8289997
  39.4849992  84.6134990  33.6599997  38.6599992  84.4194990  32.4059997
  39.2111513  84.8914617  32.8856722  91.0599992  56.9304990  88.8439997
  90.8789992  57.8464990  88.6329997  91.2369992  56.5194990  87.9969997
  91.0591377  57.0003365  88.7007178  50.8989992  89.9224990  32.9309997
  49.9979992  90.1054990  32.6639997  50.9329992  90.1814990  33.8519997
  50.7803861  89.9825245  33.0189517  56.6299992  82.1664990  21.2989997
  56.0759992  81.7704990  20.6259997  56.7309992  83.0774990  21.0209997
  56.5678589  82.2353904  21.1693839  56.5929992  87.9674990  34.1359997
  55.7419992  88.2054990  33.7679997  57.1839992  87.9504990  33.3819997
  56.5563831  87.9977623  33.9838448  54.9249992  90.9524990  21.7639997
  54.5529992  90.1274990  22.0729997  55.2029992  90.7694990  20.8659997
  54.9115807  90.8147031  21.6850063  52.0859992  85.7604990  28.7849997
  51.1579992  85.5294990  28.7579997  52.5369992  84.9834990  28.4549997
  52.0198165  85.6237785  28.7366772  44.6289992  90.0894990  24.9179997
  45.1559992  90.8624990  24.7179997  43.7489992  90.3134990  24.6159997
  44.5822121  90.2257344  24.8497460  40.3839992  84.9514990  19.5049997
  40.9999992  85.5784990  19.8849997  39.5219992  85.2674990  19.7769997
  40.3517678  85.0799423  19.5937192  46.0559992  87.7524990  24.4939997
  45.8149992  88.6774990  24.5359997  45.3159992  87.2934990  24.8909997
  45.9229463  87.8170969  24.5534279  46.5709992  91.9014990  30.8089997
  46.9339992  92.7554990  30.5759997  47.1029992  91.6094990  31.5499997
  46.6925141  91.9788907  30.8772079  44.7389992  92.7734990  24.0399997
  43.7899992  92.8794990  24.0909997  45.0909992  93.5944990  24.3839997
  44.6565647  92.8990029  24.0934882  78.3659992  55.6174990  86.3089997
  78.3469992  55.1914990  87.1659997  79.1699992  55.2984990  85.8999997
  78.4721393  55.5160297  86.3710155  50.1149992  88.0004990  30.5099997
  49.6889992  87.7724990  31.3359997  50.6959992  87.2614990  30.3279997
  50.1352088  87.8694393  30.5984454  52.3179992  88.9294990  19.5839997
  52.6709992  88.5494990  20.3879997  51.3689992  88.8354990  19.6709997
  52.2380956  88.8647867  19.7058005  52.7739992  92.5524990  32.9789997
  52.1719992  91.9964990  32.4839997  53.0549992  93.2194990  32.3529997
  52.7295757  92.5665755  32.8265657  56.8209992  93.4084990  19.7849997
  57.5649992  93.9944990  19.6449997  56.1269992  93.9774990  20.1179997
  56.8289809  93.5655830  19.8108572  40.8959992  79.7854990  32.3869997
  40.0029992  80.1234990  32.3189997  40.7969992  78.9294990  32.8049997
  40.7604752  79.7160986  32.4341644  53.1839992  87.6014990  21.8109997
  52.9069992  86.8734990  22.3669997  54.1109992  87.7204990  22.0159997
  53.2714419  87.5179436  21.9148264  40.5469992  91.5894990  30.8219997
  40.7639992  90.6574990  30.7909997  40.7939992  91.8644990  31.7049997
  40.6100948  91.4990976  30.9371268  46.4089992  90.0414990  18.0309997
  46.6479992  89.2924990  17.4839997  46.1399992  89.6534990  18.8639997
  46.4053233  89.8866865  18.0687791  45.3459992  89.6114990  20.4869997
  45.4929992  89.0914990  21.2769997  45.3429992  90.5184990  20.7939997
  45.3657102  89.6628964  20.6365907  41.7989992  86.8634990  20.9979997
  41.1129992  87.2164990  21.5649997  42.3219992  87.6264990  20.7509997
  41.7758402  87.0148912  21.0421784  80.5069992  54.3274990  84.9639997
  80.2879992  53.4104990  85.1329997  81.3309992  54.4674990  85.4299997
  80.5884637  54.2209586  85.0501414  49.6299992  79.5264990  31.2769997
  50.3289992  79.6004990  31.9269997  49.2499992  78.6614990  31.4309997
  49.6742662  79.4197050  31.3867412  50.4149992  79.1784990  22.3739997
  50.6349992  79.6494990  21.5699997  50.9729992  79.5724990  23.0439997
  50.5206044  79.2962946  22.3545207  48.0839992  91.3084990  21.2369997
  47.2669992  91.8054990  21.2889997  48.6129992  91.7844990  20.5959997
  48.0438125  91.4407000  21.1575289  47.6149992  80.9064990  23.2089997
  48.4269992  81.4104990  23.2549997  47.3699992  80.7614990  24.1229997
  47.6931091  80.9559366  23.3388552  48.1509992  81.8924990  32.3929997
  48.2699992  82.4664990  33.1499997  48.8059992  81.2044990  32.5079997
  48.2558684  81.8780205  32.5121656  48.4989992  77.9874990  24.1469997
  48.1519992  78.6044990  24.7909997  49.1569992  78.4884990  23.6649997
  48.5404430  78.1396860  24.1700046  45.4219992  92.3524990  21.2179997
  45.5829992  93.1524990  20.7179997  45.2249992  92.6594990  22.1029997
  45.4173906  92.5033690  21.2692316  44.1559992  79.0504990  20.8339997
  44.0729992  79.9384990  21.1809997  45.0459992  78.7854990  21.0659997
  44.2649331  79.1361177  20.9128067  52.9569992  83.5494990  27.3239997
  52.1599992  83.1344990  26.9959997  53.4019992  82.8594990  27.8149997
  52.9080367  83.3993372  27.3454897  42.4149992  89.4774990  19.8939997
  43.0069992  90.1774990  20.1709997  42.8739992  89.0444990  19.1749997
  42.5581652  89.5147686  19.8346515  83.0439992  54.7974990  85.8119997
  83.2569992  53.9094990  85.5249997  83.1089992  54.7624990  86.7669997
  83.0819075  54.6713318  85.9017355  40.7309992  82.1424990  19.0099997
  40.6859992  83.0814990  19.1889997  39.8429992  81.9064990  18.7409997
  40.6048166  82.2391698  18.9981507  54.0439992  92.8054990  28.9459997
  53.8879992  93.4844990  28.2889997  54.9759992  92.8774990  29.1489997
  54.1487328  92.9081586  28.8835529  41.5389992  76.9234990  27.6829997
  41.3099992  76.9824990  26.7559997  41.0959992  76.1324990  27.9899997
  41.4477387  76.8246412  27.5975223  40.4689992  90.8644990  23.8439997
  39.6369992  91.3364990  23.8709997  41.0149992  91.3744990  23.2449997
  40.4288710  90.9980317  23.7667570  48.4469992  91.9044990  18.1689997
  47.8029992  91.2734990  18.4909997  49.2089992  91.3734990  17.9379997
  48.4618708  91.7463171  18.1818462  53.0509992  91.7214990  18.4029997
  53.3339992  90.9264990  18.8559997  53.7909992  91.9544990  17.8419997
  53.1897295  91.6442349  18.3891469  44.0059992  87.6304990  18.2609997
  44.0699992  86.8364990  18.7909997  44.6589992  87.5124990  17.5709997
  44.1030483  87.5057496  18.2403407  49.3579992  88.6774990  17.9969997
  49.0899992  88.8584990  18.8969997  49.1519992  87.7524990  17.8649997
  49.2933443  88.5771873  18.1026643  52.0549992  87.1724990  32.9439997
  52.7999992  87.7614990  32.8249997  51.2969992  87.7544990  33.0069997
  52.0545289  87.3317067  32.9362292  45.1549992  85.6034990  20.5669997
  44.6959992  85.1194990  21.2519997  45.4099992  84.9344990  19.9309997
  45.1265997  85.4468491  20.5748734  86.5529992  40.4614990  84.9569997
  85.8779992  39.8314990  85.2119997  87.1169992  39.9774990  84.3539997
  86.5369558  40.3099283  84.9103451  44.4439992  83.4964990  32.9229997
  43.8259992  84.1704990  33.2029997  44.7879992  83.8174990  32.0889997
  44.4058078  83.6322298  32.8486609  46.2259992  83.8464990  18.8289997
  46.0459992  83.6914990  17.9019997  47.1759992  83.9544990  18.8739997
  46.3297804  83.8398821  18.7081966  55.6159992  86.2004990  18.2749997
  55.3429992  85.7764990  17.4619997  55.6559992  87.1324990  18.0579997
  55.5840201  86.2683523  18.1343548  44.7839992  80.8514990  34.0049997
  44.9339992  80.1224990  33.4029997  44.7859992  81.6284990  33.4459997
  44.8047967  80.8567720  33.8470523  45.1959992  79.2204990  31.4979997
  45.7319992  79.6724990  30.8459997  44.3439992  79.1124990  31.0749997
  45.1541795  79.2677444  31.3516211  46.7779992  84.6604990  31.7369997
  47.5289992  84.5044990  31.1639997  46.4389992  85.5124990  31.4619997
  46.8349587  84.7543149  31.6214060  52.5099992  85.2644990  34.8429997
  52.2289992  85.9734990  34.2649997  53.4529992  85.1914990  34.6919997
  52.5989272  85.3516704  34.7434976  46.0019992  76.6774990  31.9289997
  45.9039992  77.6234990  31.8239997  45.2589992  76.3044990  31.4529997
  45.8882123  76.7566811  31.8503204  47.2659992  80.9984990  35.4929997
  47.0299992  80.7794990  36.3939997  46.4829992  80.7914990  34.9829997
  47.1278382  80.9405340  35.5473991  49.9819992  80.1264990  34.5679997
  49.0339992  80.1584990  34.6999997  50.2939992  79.5004990  35.2219997
  49.8945293  80.0462934  34.6744130  91.6949992  38.5684990  85.0689997
  92.2989992  39.1164990  84.5679997  90.8259992  38.8874990  84.8289997
  91.6601126  38.6867070  84.9679180  46.1239992  94.5364990  19.8299997
  47.0569992  94.6944990  19.9739997  45.8589992  95.2124990  19.2049997
  46.2159846  94.6494567  19.7652930  39.6919992  89.1734990  19.3129997
  40.6059992  89.2524990  19.5859997  39.6989992  88.4864990  18.6469997
  39.8180624  89.0914074  19.2603045  38.3409992  94.5664990  24.3899997
  37.6939992  94.1044990  23.8579997  38.6959992  93.8944990  24.9729997
  38.3003741  94.4124785  24.3959157  39.2109992  92.6464990  26.1949997
  38.8769992  91.7664990  26.3669997  39.4329992  92.9924990  27.0599997
  39.1952565  92.5727410  26.3354263  56.7599992  93.4564990  29.1759997
  56.7379992  93.6414990  30.1139997  57.4499992  94.0244990  28.8349997
  56.8503383  93.5587104  29.2584580  56.3229992  93.0234990  32.0969997
  55.8359992  92.2874990  31.7259997  56.8719992  92.6294990  32.7749997
  56.3306101  92.8696267  32.1379034  56.0749992  87.0694990  22.2499997
  56.9249992  87.4904990  22.3769997  56.0799992  86.3294990  22.8569997
  56.1921143  87.0271106  22.3494732  56.4689992  85.1234990  24.0729997
  55.7429992  84.6434990  24.4709997  57.0499992  85.3284990  24.8049997
  56.4482504  85.0855592  24.2264199  56.2279992  87.9084990  29.0209997
  57.0619992  87.5304990  28.7399997  56.3399992  88.8514990  28.9019997
  56.3571917  87.9842954  28.9664844  54.7139992  90.7864990  31.3279997
  54.0669992  91.1114990  31.9529997  54.1969992  90.3454990  30.6539997
  54.5554112  90.7714133  31.3225272  93.4219992  39.7074990  83.4029997
  94.0339992  39.1934990  82.8759997  93.8049992  40.5844990  83.4259997
  93.5573867  39.7557613  83.3340888  56.7369992  85.0244990  20.4639997
  56.2159992  85.3804990  19.7459997  56.7039992  85.6994990  21.1429997
  56.6610955  85.1645023  20.4572634  55.0859992  82.2634990  19.0149997
  55.1829992  82.9304990  18.3349997  54.9459992  81.4484990  18.5339997
  55.0803407  82.2445670  18.8568312  54.2559992  83.6444990  24.6359997
  54.1059992  82.6994990  24.6159997  53.9019992  83.9254990  25.4799997
  54.1876351  83.5531656  24.7473202  39.2909992  85.7224990  28.6469997
  39.4749992  85.6404990  27.7109997  40.1399992  85.5984990  29.0699997
  39.4310132  85.6945066  28.5761460  55.1119992  85.6144990  34.2749997
  55.6949992  84.8794990  34.4669997  55.6759992  86.3864990  34.3219997
  55.2679781  85.6183156  34.3076146  54.3339992  79.6714990  18.1329997
  54.9439992  79.3004990  18.7699997  53.4969992  79.2504990  18.3289997
  54.3043704  79.5637942  18.2467077  53.9659992  81.2264990  23.0989997
  54.2459992  80.3194990  23.2229997  54.7249992  81.6604990  22.7099997
  54.1069258  81.1610935  23.0633691  54.5799992  78.4894990  23.1469997
  54.7619992  78.0404990  23.9719997  53.9799992  77.9054990  22.6829997
  54.5238187  78.3490563  23.1972721  40.1099992  79.3054990  27.6789997
  40.5549992  78.5134990  27.9809997  40.5759992  80.0214990  28.1089997
  40.2339718  79.2939546  27.7785247  38.4139992  82.3044990  28.7479997
  38.9059992  82.0834990  27.9569997  38.7759992  83.1444990  29.0289997
  38.5302923  82.3878480  28.6777389  78.8789992  39.0954990  82.7789997
  78.1019992  38.8604990  82.2709997  79.4099992  38.2984990  82.7879997
  78.8444443  38.9556721  82.7107200  56.4459992  78.5574990  19.6749997
  56.8589992  77.8364990  19.1999997  57.1279992  79.2264990  19.7329997
  56.5946060  78.5493741  19.6179233  38.7269992  78.5624990  22.8019997
  37.8019992  78.7704990  22.6729997  39.1809992  79.0464990  22.1119997
  38.6616298  78.6564311  22.6910433  53.4979992  93.5464990  24.7479997
  54.1499992  93.1984990  24.1399997  54.0089992  94.0344990  25.3939997
  53.6562872  93.5648248  24.7520964  38.6909992  77.3004990  31.1459997
  38.0259992  77.0544990  31.7889997  38.2479992  77.9224990  30.5689997
  38.5401168  77.3509225  31.1559830  43.8369992  91.4494990  31.5489997
  43.4119992  92.2594990  31.2669997  44.7409992  91.5354990  31.2469997
  43.9010706  91.5719557  31.4695836  50.4929992  94.1344990  33.7529997
  51.1699992  93.5014990  33.5129997  50.8149992  94.5354990  34.5599997
  50.6291618  94.1021147  33.8292802  41.2389992  94.7064990  31.5969997
  40.5179992  95.1464990  31.1459997  40.8729992  94.4554990  32.4449997
  41.0909632  94.7327235  31.6499649  43.7059992  94.3064990  30.6259997
  42.8409992  94.3784990  31.0299997  43.6509992  94.8534990  29.8429997
  43.5802289  94.3903242  30.5753749  48.4169992  94.1944990  29.8019997
  47.9599992  94.7234990  29.1479997  48.5789992  94.7974990  30.5269997
  48.3763919  94.3483990  29.8105740  50.7439992  93.0724990  30.7469997
  49.8399992  93.2374990  30.4809997  51.1729992  93.9254990  30.6809997
  50.6782017  93.2104184  30.7016495  77.7159992  38.8934990  78.5819997
  78.1549992  39.5044990  77.9909997  77.0819992  39.4314990  79.0559997
  77.6904103  39.0499233  78.5651376  53.3479992  94.6424990  31.0419997
  53.1669992  95.5584990  30.8309997  53.5249992  94.2314990  30.1949997
  53.3471377  94.7123365  30.8987178  40.6539992  93.3294990  28.5069997
  40.6349992  92.9034990  29.3639997  41.4579992  93.0104990  28.0979997
  40.7601393  93.2280297  28.5690155  42.7949992  92.0394990  27.1619997
  42.5759992  91.1224990  27.3319997  43.6189992  92.1794990  27.6279997
  42.8764702  91.9330523  27.2482510  45.3319992  92.5094990  28.0109997
  45.5449992  91.6214990  27.7239997  45.3969992  92.4744990  28.9649997
  45.3699149  92.3833338  28.1007351  48.8409992  78.1734990  27.1549997
  48.1659992  77.5434990  27.4109997  49.4049992  77.6894990  26.5519997
  48.8249363  78.0218886  27.1084810  53.9829992  76.2804990  27.2679997
  54.5869992  76.8284990  26.7659997  53.1139992  76.5994990  27.0269997
  53.9480419  76.3985628  27.1667741  55.7099992  77.4194990  25.6009997
  56.3219992  76.9054990  25.0739997  56.0929992  78.2964990  25.6239997
  55.8453867  77.4677613  25.5320888  41.1669992  76.8074990  24.9769997
  40.3899992  76.5724990  24.4699997  41.6979992  76.0104990  24.9859997
  41.1323735  76.6676462  24.9088090  40.0039992  76.6054990  20.7809997
  40.4429992  77.2164990  20.1889997  39.3699992  77.1434990  21.2549997
  39.9783859  76.7619076  20.7640287  45.7469992  76.7334990  24.7899997
  46.6209992  77.1224990  24.7609997  45.6109992  76.5184990  25.7129997
  45.8481953  76.7576654  24.9107599  83.4589992  39.0214990  82.5919997
  84.3329992  39.4104990  82.5619997  83.3229992  38.8064990  83.5149997
  83.5603125  39.0457120  82.7126523  51.3029992  76.7634990  26.4399997
  51.3799992  76.8594990  25.4899997  51.0279992  75.8564990  26.5679997
  51.2763233  76.6539093  26.3273665  52.6569992  76.7894990  22.1319997
  51.9539992  77.4044990  21.9219997  52.2119992  75.9524990  22.2629997
  52.5006550  76.7604679  22.1209819  39.9049992  92.5534990  21.6779997
  39.2199992  92.5154990  21.0109997  39.9079992  93.4654990  21.9659997
  39.8116806  92.6716669  21.6256961  41.8649992  78.5214990  19.2229997
  42.3559992  77.8914990  18.6959997  42.4879992  78.8174990  19.8859997
  42.0165304  78.4752387  19.2404922  46.8909992  78.8144990  21.6799997
  47.0689992  78.1674990  22.3629997  46.8369992  79.6484990  22.1469997
  46.9080678  78.8386615  21.8366283  48.7689992  93.7624990  20.0759997
  49.6349992  94.1294990  19.8979997  48.5219992  93.3234990  19.2619997
  48.8541853  93.7534021  19.9415813  55.4779992  93.3254990  22.7549997
  55.2839992  92.5774990  22.1899997  55.4389992  94.0834990  22.1719997
  55.4461645  93.3255797  22.5988131  41.1249992  77.3214990  34.4949997
  40.7589992  76.5554990  34.9369997  42.0379992  77.3504990  34.7809997
  41.1983172  77.2205335  34.5941872  41.7229992  93.4734990  18.7029997
  41.4549992  93.7594990  19.5769997  42.4939992  92.9274990  18.8559997
  41.7905926  93.4387790  18.8431188  69.1019992  85.9634990  24.9359997
  69.1909992  86.9074990  24.8029997  68.4629992  85.6884990  24.2779997
  69.0278378  86.0553846  24.8289258  89.0149992  39.0514990  84.2409997
  89.0919992  39.1474990  83.2919997  88.7399992  38.1444990  84.3699997
  88.9883407  38.9419188  84.1283532  68.0349992  85.2184990  28.3549997
  67.9959992  84.5724990  29.0599997  67.7119992  84.7514990  27.5829997
  67.9860469  85.0670005  28.3472803  71.7409992  88.1574990  26.6559997
  71.2999992  87.4374990  27.1069997  71.7279992  88.8784990  27.2859997
  71.6789215  88.1564303  26.8028088  61.3269992  89.2824990  28.4829997
  60.9569992  88.4804990  28.1129997  62.2679992  89.1144990  28.5289997
  61.4035984  89.1499649  28.4385586  57.9369992  82.9424990  23.8749997
  57.4889992  83.7884990  23.8569997  57.3759992  82.3634990  23.3599997
  57.7998546  82.9799004  23.8028874  58.6469992  85.1044990  26.0009997
  58.8609992  84.3344990  26.5279997  59.3849992  85.1944990  25.3979997
  58.7760073  85.0113546  25.9915786  68.8519992  93.2614990  26.8679997
  69.4719992  92.5854990  26.5949997  68.6439992  93.0434990  27.7769997
  68.9087679  93.1395032  26.9534518  66.4239992  87.6504990  28.7609997
  66.7279992  86.9644990  28.1659997  67.1459992  87.7694990  29.3789997
  66.5631240  87.5727325  28.7630941  69.5649992  82.0444990  29.0879997
  69.7069992  81.0984990  29.1079997  69.4589992  82.2514990  28.1599997
  69.5701051  81.9429706  28.9652249  70.4419992  80.2774990  24.7609997
  71.0879992  79.9484990  25.3859997  70.9519992  80.7944990  24.1389997
  70.5994289  80.3024333  24.7623681  64.4959992  84.0934990  26.3379997
  65.1119992  83.5664990  26.8469997  63.9099992  83.4534990  25.9339997
  64.5010652  83.9348919  26.3530277  90.3689992  39.0774990  79.9339997
  89.6659992  39.6924990  79.7239997  89.9239992  38.2404990  80.0649997
  90.2126550  39.0484679  79.9229819  68.8989992  88.5644990  23.9789997
  68.6029992  88.2414990  23.1269997  68.5749992  89.4644990  24.0199997
  68.8147458  88.6419678  23.8680598  64.0989992  86.7394990  30.7219997
  63.3589992  87.3384990  30.8259997  64.8129992  87.2934990  30.4059997
  64.0943146  86.8962611  30.6935150  62.5059992  88.7044990  31.5089997
  62.5009992  89.5834990  31.1309997  61.6529992  88.6204990  31.9339997
  62.3899199  88.8135901  31.5146942  58.6279992  88.3754990  22.2909997
  58.3559992  88.6044990  21.4019997  58.6729992  89.2124990  22.7519997
  58.5968360  88.5201034  22.2316186  72.2529992  89.9964990  29.0039997
  71.3109992  90.0554990  29.1659997  72.5289992  90.9024990  28.8669997
  72.1615865  90.1270299  29.0076174  70.5049992  91.7774990  25.6289997
  70.9299992  91.0704990  25.1439997  70.8219992  92.5794990  25.2119997
  70.6060266  91.7890201  25.5062461  71.6639992  89.6784990  24.1379997
  71.4069992  88.9884990  23.5259997  71.7349992  89.2354990  24.9829997
  71.6384322  89.5241568  24.1685372  73.3499992  88.2454990  32.6149997
  73.4899992  87.6534990  31.8759997  73.5179992  89.1184990  32.2589997
  73.3918734  88.2824041  32.4656937  67.8229992  85.2074990  22.3879997
  67.1109992  85.7424990  22.0359997  68.5139992  85.2624990  21.7279997
  67.8189704  85.2881663  22.2505797  67.8769992  83.6644990  19.4259997
  68.5779992  83.6874990  20.0779997  68.1789992  83.0364990  18.7699997
  68.0138202  83.5827223  19.4265591  77.6169992  54.8414990  79.4799997
  76.9319992  54.8034990  78.8119997  77.6199992  55.7534990  79.7679997
  77.5237358  54.9596744  79.4276145  75.1919992  84.5854990  30.6809997
  74.5399992  85.2794990  30.7699997  75.6569992  84.7954990  29.8709997
  75.1655357  84.7089544  30.5837056  71.2289992  85.4164990  23.3389997
  70.4969992  85.6454990  23.9119997  71.6759992  84.7034990  23.7939997
  71.1892753  85.3513984  23.4789698  71.1259992  83.5914990  32.4069997
  71.2059992  84.3544990  32.9789997  70.5249992  83.8704990  31.7169997
  71.0556547  83.7337468  32.3920029  62.8739992  86.0474990  25.2219997
  62.5439992  85.6764990  24.4039997  63.4619992  85.3764990  25.5689997
  62.9083182  85.9060648  25.1569898  64.2409992  89.4754990  27.9029997
  64.1459992  88.8964990  27.1469997  64.9699992  89.1044990  28.3989997
  64.3266011  89.3460572  27.8666011  63.2409992  84.8154990  28.8549997
  63.8059992  84.9374990  28.0929997  63.5589992  85.4534990  29.4939997
  63.3613619  84.9184388  28.8370019  69.5499992  90.3194990  29.5889997
  69.3089992  90.9814990  30.2369997  69.3519992  89.4844990  30.0139997
  69.4902662  90.2972704  29.7351008  70.0999992  84.5794990  21.0249997
  70.6789992  84.7294990  21.7709997  70.5139992  85.0494990  20.3009997
  70.2353358  84.6635966  21.0293935  67.8259992  91.3154990  24.4599997
  68.2999992  91.6114990  25.2369997  67.2629992  92.0544990  24.2269997
  67.8147890  91.4558047  24.5348084  62.3599992  91.2864990  34.3359997
  62.3679992  91.1504990  33.3889997  61.4439992  91.1694990  34.5879997
  62.2372528  91.2520475  34.2403226  84.6029992  41.1024990  79.4819997
  84.7809992  40.4554990  80.1649997  84.5489992  41.9364990  79.9489997
  84.6200678  41.1266615  79.6386283  73.7979992  76.3294990  20.8369997
  72.8979992  76.4674990  21.1329997  74.0499992  77.1604990  20.4359997
  73.7087727  76.4608705  20.8232935  61.8639992  85.1164990  22.8109997
  61.5719992  85.8844990  22.3199997  61.1899992  84.4574990  22.6479997
  61.7328843  85.1324537  22.7217695  74.9879992  90.6954990  19.2139997
  75.0609992  91.6344990  19.3839997  75.8929992  90.3904990  19.1579997
  75.1204170  90.7828294  19.2297045  57.9569992  87.4794990  31.6259997
  57.4559992  87.4514990  30.8109997  57.9629992  86.5744990  31.9359997
  57.8891690  87.3532234  31.5562770  57.7079992  90.2604990  28.5099997
  58.6539992  90.1154990  28.4909997  57.5949992  91.0444990  29.0469997
  57.8223578  90.3466708  28.5800300  67.2979992  94.2724990  22.8749997
  67.2229992  94.1514990  21.9279997  67.3309992  95.2214990  22.9929997
  67.2922083  94.3842639  22.7614973  60.9519992  93.0614990  24.6559997
  61.1039992  92.7134990  25.5339997  60.1009992  92.7044990  24.3999997
  60.8578344  92.9655891  24.7416851  70.3999992  93.4264990  19.8769997
  70.7749992  92.6824990  19.4059997  70.4039992  93.1564990  20.7949997
  70.4518969  93.2880920  19.9366475  70.0689992  93.3524990  22.6259997
  69.1339992  93.4524990  22.8049997  70.3489992  92.6424990  23.2049997
  69.9789471  93.2702944  22.7286678  60.2059992  88.8034990  32.6689997
  60.4219992  88.4414990  33.5289997  59.3509992  88.4284990  32.4599997
  60.1199082  88.7033377  32.7582396  86.4809992  56.0504990  77.8769997
  87.3469992  56.4174990  77.6989997  86.2339992  55.6114990  77.0639997
  86.5662041  56.0413648  77.7425958  71.5769992  85.6114990  18.6539997
  71.6189992  85.3894990  17.7239997  72.4259992  86.0104990  18.8439997
  71.6975253  85.6350510  18.5523804  67.1499992  79.4874990  19.3249997
  66.8959992  79.5064990  20.2469997  66.8929992  78.6164990  19.0229997
  67.0804508  79.3723292  19.4104786  62.9129992  82.4594990  24.6719997
  62.0199992  82.1194990  24.6129997  63.3639992  82.0824990  23.9159997
  62.8517185  82.3620220  24.5617698  68.4489992  82.8754990  23.4889997
  68.0399992  83.6904990  23.1969997  69.1689992  82.7354990  22.8749997
  68.4904439  82.9680383  23.3660098  69.4529992  82.3214990  26.3029997
  69.2579992  82.9274990  25.5879997  69.6349992  81.4884990  25.8689997
  69.4509195  82.2917936  26.1464079  64.0319992  79.9334990  18.4259997
  63.6009992  79.4884990  19.1549997  63.3139992  80.3044990  17.9129997
  63.8759176  79.9227063  18.4564913  65.4949992  79.8874990  25.7579997
  64.5839992  79.9444990  26.0469997  65.9999992  79.8274990  26.5689997
  65.4386873  79.8871838  25.9071190  63.9759992  81.5164990  22.2419997
  64.9079992  81.6454990  22.4199997  63.7609992  82.1854990  21.5919997
  64.0744472  81.6245817  22.1784873  62.6499992  82.7104990  19.8079997
  62.1079992  82.3314990  19.1169997  63.4839992  82.9054990  19.3799997
  62.6884390  82.6849091  19.6554374  73.1869992  94.7934990  35.2989997
  73.3869992  95.2174990  34.4649997  73.8429992  95.1374990  35.9059997
  73.3029937  94.8979993  35.2668645  93.1899992  55.6134990  80.5569997
  92.9959992  54.8654990  79.9919997  93.1509992  56.3714990  79.9729997
  93.1581907  55.6135770  80.4008077  60.7849992  87.2674990  34.9069997
  61.5169992  87.5224990  35.4689997  60.0049992  87.4724990  35.4229997
  60.7796526  87.3300438  35.0535168  66.8149992  82.6744990  27.6449997
  67.3789992  82.1284990  27.0979997  66.6669992  82.1534990  28.4339997
  66.8723037  82.5291798  27.6767212  65.9849992  87.2764990  21.7439997
  65.2399992  86.7684990  21.4219997  65.8509992  87.3254990  22.6899997
  65.8649334  87.2136144  21.8278892  73.1349992  86.4094990  30.5309997
  73.7769992  86.8654990  29.9869997  72.3049992  86.5224990  30.0679997
  73.1106536  86.4871813  30.3939579  69.8829992  80.0904990  19.9429997
  68.9439992  80.2014990  19.7919997  70.1799992  80.9464990  20.2499997
  69.7946136  80.2214977  19.9638568  67.5049992  87.4604990  32.9809997
  67.1589992  87.0784990  33.7879997  67.3049992  88.3934990  33.0519997
  67.4305987  87.5344013  33.1010443  70.6009992  81.9574990  21.6039997
  71.4929992  81.8194990  21.9229997  70.6579992  82.7484990  21.0669997
  70.7307380  82.0454777  21.5750981  61.1099992  86.5714990  27.5139997
  61.8549992  86.5684990  26.9119997  61.1879992  85.7474990  27.9949997
  61.2223365  86.4597395  27.4967412  68.1109992  88.7344990  20.7689997
  67.8159992  89.5614990  21.1509997  67.4079992  88.1154990  20.9659997
  67.9756379  88.7639182  20.8478636  58.1179992  85.0314990  32.8289997
  58.3409992  84.6134990  33.6599997  57.5159992  84.4194990  32.4059997
  58.0671513  84.8914617  32.8856722  78.8369992  39.6094990  92.2959997
  78.4709992  38.8434990  92.7389997  79.7499992  39.6384990  92.5829997
  78.9103225  39.5086917  92.3953441  69.7549992  89.9224990  32.9309997
  68.8539992  90.1054990  32.6639997  69.7889992  90.1814990  33.8519997
  69.6363861  89.9825245  33.0189517  75.4859992  82.1664990  21.2989997
  74.9319992  81.7704990  20.6259997  75.5869992  83.0774990  21.0209997
  75.4238589  82.2353904  21.1693839  75.4489992  87.9674990  34.1359997
  74.5979992  88.2054990  33.7679997  76.0399992  87.9504990  33.3819997
  75.4123831  87.9977623  33.9838448  73.7809992  90.9524990  21.7639997
  73.4089992  90.1274990  22.0729997  74.0589992  90.7694990  20.8659997
  73.7675807  90.8147031  21.6850063  70.9419992  85.7604990  28.7849997
  70.0139992  85.5294990  28.7579997  71.3929992  84.9834990  28.4549997
  70.8758165  85.6237785  28.7366772  63.4849992  90.0894990  24.9179997
  64.0119992  90.8624990  24.7179997  62.6049992  90.3134990  24.6159997
  63.4382121  90.2257344  24.8497460  59.2399992  84.9514990  19.5049997
  59.8559992  85.5784990  19.8849997  58.3779992  85.2674990  19.7769997
  59.2077678  85.0799423  19.5937192  64.9119992  87.7524990  24.4939997
  64.6709992  88.6774990  24.5359997  64.1719992  87.2934990  24.8909997
  64.7789463  87.8170969  24.5534279  65.4269992  91.9014990  30.8089997
  65.7899992  92.7554990  30.5759997  65.9589992  91.6094990  31.5499997
  65.5485141  91.9788907  30.8772079  63.5949992  92.7734990  24.0399997
  62.6459992  92.8794990  24.0909997  63.9469992  93.5944990  24.3839997
  63.5125647  92.8990029  24.0934882  80.8099992  38.9594990  93.8319997
  81.7089992  38.6854990  93.6469997  80.4239992  38.2174990  94.2959997
  80.8807237  38.8216520  93.8694693  68.9709992  88.0004990  30.5099997
  68.5449992  87.7724990  31.3359997  69.5519992  87.2614990  30.3279997
  68.9912088  87.8694393  30.5984454  71.1739992  88.9294990  19.5839997
  71.5269992  88.5494990  20.3879997  70.2249992  88.8354990  19.6709997
  71.0940956  88.8647867  19.7058005  71.6299992  92.5524990  32.9789997
  71.0279992  91.9964990  32.4839997  71.9109992  93.2194990  32.3529997
  71.5855757  92.5665755  32.8265657  75.6769992  93.4084990  19.7849997
  76.4209992  93.9944990  19.6449997  74.9829992  93.9774990  20.1179997
  75.6849809  93.5655830  19.8108572  72.0399992  87.6014990  21.8109997
  71.7629992  86.8734990  22.3669997  72.9669992  87.7204990  22.0159997
  72.1274419  87.5179436  21.9148264  59.4029992  91.5894990  30.8219997
  59.6199992  90.6574990  30.7909997  59.6499992  91.8644990  31.7049997
  59.4660948  91.4990976  30.9371268  65.2649992  90.0414990  18.0309997
  65.5039992  89.2924990  17.4839997  64.9959992  89.6534990  18.8639997
  65.2613233  89.8866865  18.0687791  64.2019992  89.6114990  20.4869997
  64.3489992  89.0914990  21.2769997  64.1989992  90.5184990  20.7939997
  64.2217102  89.6628964  20.6365907  60.6549992  86.8634990  20.9979997
  59.9689992  87.2164990  21.5649997  61.1779992  87.6264990  20.7509997
  60.6318402  87.0148912  21.0421784  69.2709992  79.1784990  22.3739997
  69.4909992  79.6494990  21.5699997  69.8289992  79.5724990  23.0439997
  69.3766044  79.2962946  22.3545207  79.4349992  55.7614990  76.5049997
  79.1669992  56.0474990  77.3779997  80.2059992  55.2154990  76.6569997
  79.5025600  55.7268341  76.6451482  66.9399992  91.3084990  21.2369997
  66.1229992  91.8054990  21.2889997  67.4689992  91.7844990  20.5959997
  66.8998125  91.4407000  21.1575289  66.4709992  80.9064990  23.2089997
  67.2829992  81.4104990  23.2549997  66.2259992  80.7614990  24.1229997
  66.5491091  80.9559366  23.3388552  64.2779992  92.3524990  21.2179997
  64.4389992  93.1524990  20.7179997  64.0809992  92.6594990  22.1029997
  64.2733906  92.5033690  21.2692316  71.8129992  83.5494990  27.3239997
  71.0159992  83.1344990  26.9959997  72.2579992  82.8594990  27.8149997
  71.7640367  83.3993372  27.3454897  61.2709992  89.4774990  19.8939997
  61.8629992  90.1774990  20.1709997  61.7299992  89.0444990  19.1749997
  61.4141652  89.5147686  19.8346515  59.5869992  82.1424990  19.0099997
  59.5419992  83.0814990  19.1889997  58.6989992  81.9064990  18.7409997
  59.4608166  82.2391698  18.9981507  72.8999992  92.8054990  28.9459997
  72.7439992  93.4844990  28.2889997  73.8319992  92.8774990  29.1489997
  73.0047328  92.9081586  28.8835529  59.3249992  90.8644990  23.8439997
  58.4929992  91.3364990  23.8709997  59.8709992  91.3744990  23.2449997
  59.2848710  90.9980317  23.7667570  67.3029992  91.9044990  18.1689997
  66.6589992  91.2734990  18.4909997  68.0649992  91.3734990  17.9379997
  67.3178708  91.7463171  18.1818461  69.7879992  90.7764990  35.5229997
  69.4369992  89.9194990  35.7659997  70.5139992  90.9184990  36.1299997
  69.8381590  90.6785189  35.6382889  89.2309992  38.2924990  94.0139997
  89.3079992  37.8664990  94.8679997  90.1249992  38.3054990  93.6719997
  89.3623315  38.2360320  94.0845052  71.9069992  91.7214990  18.4029997
  72.1899992  90.9264990  18.8559997  72.6469992  91.9544990  17.8419997
  72.0457295  91.6442349  18.3891469  62.8619992  87.6304990  18.2609997
  62.9259992  86.8364990  18.7909997  63.5149992  87.5124990  17.5709997
  62.9590483  87.5057496  18.2403407  68.2139992  88.6774990  17.9969997
  67.9459992  88.8584990  18.8969997  68.0079992  87.7524990  17.8649997
  68.1493443  88.5771873  18.1026643  70.9109992  87.1724990  32.9439997
  71.6559992  87.7614990  32.8249997  70.1529992  87.7544990  33.0069997
  70.9105289  87.3317067  32.9362292  64.0109992  85.6034990  20.5669997
  63.5519992  85.1194990  21.2519997  64.2659992  84.9344990  19.9309997
  63.9825997  85.4468491  20.5748734  65.0819992  83.8464990  18.8289997
  64.9019992  83.6914990  17.9019997  66.0319992  83.9544990  18.8739997
  65.1857804  83.8398821  18.7081966  74.4719992  86.2004990  18.2749997
  74.1989992  85.7764990  17.4619997  74.5119992  87.1324990  18.0579997
  74.4400201  86.2683523  18.1343548  71.3659992  85.2644990  34.8429997
  71.0849992  85.9734990  34.2649997  72.3089992  85.1914990  34.6919997
  71.4549272  85.3516704  34.7434976  64.9799992  94.5364990  19.8299997
  65.9129992  94.6944990  19.9739997  64.7149992  95.2124990  19.2049997
  65.0719846  94.6494567  19.7652930  58.5479992  89.1734990  19.3129997
  59.4619992  89.2524990  19.5859997  58.5549992  88.4864990  18.6469997
  58.6740624  89.0914074  19.2603045  92.4079992  54.3644990  92.7069997
  91.6259992  54.1784990  92.1869997  92.3359992  55.2944990  92.9239997
  92.2912975  54.4646973  92.6651822  57.1969992  94.5664990  24.3899997
  56.5499992  94.1044990  23.8579997  57.5519992  93.8944990  24.9729997
  57.1563741  94.4124785  24.3959157  58.0669992  92.6464990  26.1949997
  57.7329992  91.7664990  26.3669997  58.2889992  92.9924990  27.0599997
  58.0512565  92.5727410  26.3354263  75.6159992  93.4564990  29.1759997
  75.5939992  93.6414990  30.1139997  76.3059992  94.0244990  28.8349997
  75.7063383  93.5587104  29.2584580  74.9309992  87.0694990  22.2499997
  75.7809992  87.4904990  22.3769997  74.9359992  86.3294990  22.8569997
  75.0481143  87.0271106  22.3494732  75.3249992  85.1234990  24.0729997
  74.5989992  84.6434990  24.4709997  75.9059992  85.3284990  24.8049997
  75.3042504  85.0855592  24.2264199  75.0839992  87.9084990  29.0209997
  75.9179992  87.5304990  28.7399997  75.1959992  88.8514990  28.9019997
  75.2131917  87.9842954  28.9664844  73.5699992  90.7864990  31.3279997
  72.9229992  91.1114990  31.9529997  73.0529992  90.3454990  30.6539997
  73.4114112  90.7714133  31.3225272  75.5929992  85.0244990  20.4639997
  75.0719992  85.3804990  19.7459997  75.5599992  85.6994990  21.1429997
  75.5170955  85.1645023  20.4572634  73.9419992  82.2634990  19.0149997
  74.0389992  82.9304990  18.3349997  73.8019992  81.4484990  18.5339997
  73.9363407  82.2445670  18.8568312  73.1119992  83.6444990  24.6359997
  72.9619992  82.6994990  24.6159997  72.7579992  83.9254990  25.4799997
  73.0436351  83.5531656  24.7473202 106.8139992  48.2514990  82.7369997
 106.9029992  49.1954990  82.6049997 106.1749992  47.9764990  82.0789997
 106.7398319  48.3434984  82.6300276  58.1469992  85.7224990  28.6469997
  58.3309992  85.6404990  27.7109997  58.9959992  85.5984990  29.0699997
  58.2870132  85.6945066  28.5761460  73.9679992  85.6144990  34.2749997
  74.5509992  84.8794990  34.4669997  74.5319992  86.3864990  34.3219997
  74.1239781  85.6183156  34.3076146  73.1899992  79.6714990  18.1329997
  73.7999992  79.3004990  18.7699997  72.3529992  79.2504990  18.3289997
  73.1603704  79.5637942  18.2467077  72.8219992  81.2264990  23.0989997
  73.1019992  80.3194990  23.2229997  73.5809992  81.6604990  22.7099997
  72.9629258  81.1610935  23.0633691  73.4339992  81.8084990  28.5349997
  74.3669992  82.0204990  28.4999997  73.1989992  81.9094990  29.4569997
  73.5299517  81.8511844  28.6549113  73.4629992  82.5454990  31.3109997
  72.6199992  82.8134990  31.6759997  73.9059992  83.3674990  31.0999997
  73.4074035  82.6933351  31.3324770  73.4359992  78.4894990  23.1469997
  73.6179992  78.0404990  23.9719997  72.8359992  77.9054990  22.6829997
  73.3798187  78.3490563  23.1972721  75.3019992  78.5574990  19.6749997
  75.7149992  77.8364990  19.1999997  75.9839992  79.2264990  19.7329997
  75.4506060  78.5493741  19.6179233  72.3539992  93.5464990  24.7479997
  73.0059992  93.1984990  24.1399997  72.8649992  94.0344990  25.3939997
  72.5122872  93.5648248  24.7520964  59.7389992  90.4754990  35.2909997
  58.9179992  90.6504990  34.8299997  59.4869992  90.4024990  36.2109997
  59.5925594  90.4895728  35.3523593 105.7469992  47.5064990  86.1559997
 105.7079992  46.8604990  86.8609997 105.4239992  47.0394990  85.3849997
 105.6980199  47.3550089  86.1482865  62.6929992  91.4494990  31.5489997
  62.2679992  92.2594990  31.2669997  63.5969992  91.5354990  31.2469997
  62.7570706  91.5719557  31.4695836  69.3489992  94.1344990  33.7529997
  70.0259992  93.5014990  33.5129997  69.6709992  94.5354990  34.5599997
  69.4851618  94.1021147  33.8292802  60.0949992  94.7064990  31.5969997
  59.3739992  95.1464990  31.1459997  59.7289992  94.4554990  32.4449997
  59.9469632  94.7327235  31.6499649  62.5619992  94.3064990  30.6259997
  61.6969992  94.3784990  31.0299997  62.5069992  94.8534990  29.8429997
  62.4362289  94.3903242  30.5753749  67.2729992  94.1944990  29.8019997
  66.8159992  94.7234990  29.1479997  67.4349992  94.7974990  30.5269997
  67.2323919  94.3483990  29.8105740  69.5999992  93.0724990  30.7469997
  68.6959992  93.2374990  30.4809997  70.0289992  93.9254990  30.6809997
  69.5342017  93.2104184  30.7016495  72.2039992  94.6424990  31.0419997
  72.0229992  95.5584990  30.8309997  72.3809992  94.2314990  30.1949997
  72.2031377  94.7123365  30.8987178  59.5099992  93.3294990  28.5069997
  59.4909992  92.9034990  29.3639997  60.3139992  93.0104990  28.0979997
  59.6161393  93.2280297  28.5690155  61.6509992  92.0394990  27.1619997
  61.4319992  91.1224990  27.3319997  62.4749992  92.1794990  27.6279997
  61.7324702  91.9330523  27.2482510  64.1879992  92.5094990  28.0109997
  64.4009992  91.6214990  27.7239997  64.2529992  92.4744990  28.9649997
  64.2259149  92.3833338  28.1007351  98.1149992  47.1204990  87.7489997
  98.1559992  46.4954990  88.4729997  98.8179992  47.7444990  87.9309997
  98.2156054  47.1193262  87.8726311  71.5129992  76.7894990  22.1319997
  70.8099992  77.4044990  21.9219997  71.0679992  75.9524990  22.2629997
  71.3566550  76.7604679  22.1209819  58.7609992  92.5534990  21.6779997
  58.0759992  92.5154990  21.0109997  58.7639992  93.4654990  21.9659997
  58.6676806  92.6716669  21.6256961  67.6249992  93.7624990  20.0759997
  68.4909992  94.1294990  19.8979997  67.3779992  93.3234990  19.2619997
  67.7101853  93.7534021  19.9415813  74.3339992  93.3254990  22.7549997
  74.1399992  92.5774990  22.1899997  74.2949992  94.0834990  22.1719997
  74.3021645  93.3255797  22.5988131  60.5789992  93.4734990  18.7029997
  60.3109992  93.7594990  19.5769997  61.3499992  92.9274990  18.8559997
  60.6465926  93.4387790  18.8431188  87.9579992  85.9634990  24.9359997
  88.0469992  86.9074990  24.8029997  87.3189992  85.6884990  24.2779997
  87.8838378  86.0553846  24.8289258  86.8909992  85.2184990  28.3549997
  86.8519992  84.5724990  29.0599997  86.5679992  84.7514990  27.5829997
  86.8420469  85.0670005  28.3472803  79.2589992  84.8324990  29.9479997
  79.2999992  84.2074990  30.6709997  79.9619992  85.4564990  30.1299997
  79.3596223  84.8312318  30.0716164  90.5969992  88.1574990  26.6559997
  90.1559992  87.4374990  27.1069997  90.5839992  88.8784990  27.2859997
  90.5349215  88.1564303  26.8028088  80.1829992  89.2824990  28.4829997
  79.8129992  88.4804990  28.1129997  81.1239992  89.1144990  28.5289997
  80.2595984  89.1499649  28.4385586 109.4529992  50.4454990  84.4579997
 109.0119992  49.7254990  84.9079997 109.4399992  51.1664990  85.0879997
 109.3908398  50.4443187  84.6047734  76.7929992  82.9424990  23.8749997
  76.3449992  83.7884990  23.8569997  76.2319992  82.3634990  23.3599997
  76.6558546  82.9799004  23.8028874  77.5029992  85.1044990  26.0009997
  77.7169992  84.3344990  26.5279997  78.2409992  85.1944990  25.3979997
  77.6320073  85.0113546  25.9915786  87.7079992  93.2614990  26.8679997
  88.3279992  92.5854990  26.5949997  87.4999992  93.0434990  27.7769997
  87.7647679  93.1395032  26.9534518  85.2799992  87.6504990  28.7609997
  85.5839992  86.9644990  28.1659997  86.0019992  87.7694990  29.3789997
  85.4191240  87.5727325  28.7630941  93.9429992  79.2524990  29.6209997
  93.9919992  79.8624990  30.3569997  94.3689992  79.7134990  28.8979997
  94.0072851  79.3983266  29.6240532  88.4209992  82.0444990  29.0879997
  88.5629992  81.0984990  29.1079997  88.3149992  82.2514990  28.1599997
  88.4261051  81.9429706  28.9652249  81.5759992  80.1464990  26.3609997
  81.6189992  81.0064990  25.9419997  81.1179992  79.5934990  25.7269997
  81.5200163  80.1894174  26.2180604  89.2979992  80.2774990  24.7609997
  89.9439992  79.9484990  25.3859997  89.8079992  80.7944990  24.1389997
  89.4554289  80.3024333  24.7623681  78.1959992  82.5434990  27.1229997
  78.8499992  81.9934990  27.5549997  78.2199992  82.2694990  26.2059997
  78.2887199  82.4312178  27.0581650  83.3519992  84.0934990  26.3379997
  83.9679992  83.5664990  26.8469997  82.7659992  83.4534990  25.9339997
  83.3570652  83.9348919  26.3530277  99.0389992  51.5704990  86.2839997
  98.6689992  50.7684990  85.9149997  99.9799992  51.4024990  86.3309997
  99.1155630  51.4378680  86.2397873  94.3349992  80.7304990  31.8569997
  93.6459992  81.3884990  31.7619997  94.3499992  80.5324990  32.7939997
  94.2427756  80.7937614  31.9705795  80.3859992  79.0644990  30.4349997
  80.1669992  79.5944990  29.6679997  79.7179992  79.2904990  31.0819997
  80.2656975  79.1675979  30.4175123  87.7549992  88.5644990  23.9789997
  87.4589992  88.2414990  23.1269997  87.4309992  89.4644990  24.0199997
  87.6707458  88.6419678  23.8680598  82.9549992  86.7394990  30.7219997
  82.2149992  87.3384990  30.8259997  83.6689992  87.2934990  30.4059997
  82.9503146  86.8962611  30.6935150  91.0619992  79.5684990  26.7419997
  90.8469992  78.8024990  27.2749997  91.7179992  80.0404990  27.2549997
  91.1212673  79.5275739  26.8841972  79.9799992  80.9564990  28.3869997
  80.5929992  81.5894990  28.7599997  80.4919992  80.4844990  27.7309997
  80.1331933  80.9793380  28.3493477  81.3619992  88.7044990  31.5089997
  81.3569992  89.5834990  31.1309997  80.5089992  88.6204990  31.9339997
  81.2459199  88.8135901  31.5146942  77.4839992  88.3754990  22.2909997
  77.2119992  88.6044990  21.4019997  77.5289992  89.2124990  22.7519997
  77.4528360  88.5201034  22.2316186  91.1089992  89.9964990  29.0039997
  90.1669992  90.0554990  29.1659997  91.3849992  90.9024990  28.8669997
  91.0175865  90.1270299  29.0076174  91.4089992  78.2834990  30.4209997
  90.6729992  78.8934990  30.3839997  92.0929992  78.6984990  29.8949997
  91.4005367  78.4232562  30.3448156  95.6489992  45.2304990  81.6769997
  95.2009992  46.0764990  81.6589997  95.0879992  44.6514990  81.1619997
  95.5118546  45.2679004  81.6048874  84.4119992  76.3694990  27.8869997
  84.2949992  75.4214990  27.8329997  83.5569992  76.7024990  28.1599997
  84.2803691  76.2845842  27.9165072  89.3609992  91.7774990  25.6289997
  89.7859992  91.0704990  25.1439997  89.6779992  92.5794990  25.2119997
  89.4620266  91.7890201  25.5062461  90.5199992  89.6784990  24.1379997
  90.2629992  88.9884990  23.5259997  90.5909992  89.2354990  24.9829997
  90.4944322  89.5241568  24.1685372  92.2059992  88.2454990  32.6149997
  92.3459992  87.6534990  31.8759997  92.3739992  89.1184990  32.2589997
  92.2478734  88.2824041  32.4656937  86.6789992  85.2074990  22.3879997
  85.9669992  85.7424990  22.0359997  87.3699992  85.2624990  21.7279997
  86.6749704  85.2881663  22.2505797  86.7329992  83.6644990  19.4259997
  87.4339992  83.6874990  20.0779997  87.0349992  83.0364990  18.7699997
  86.8698202  83.5827223  19.4265591  94.0479992  84.5854990  30.6809997
  93.3959992  85.2794990  30.7699997  94.5129992  84.7954990  29.8709997
  94.0215357  84.7089544  30.5837056  90.0849992  85.4164990  23.3389997
  89.3529992  85.6454990  23.9119997  90.5319992  84.7034990  23.7939997
  90.0452753  85.3513984  23.4789698  89.9819992  83.5914990  32.4069997
  90.0619992  84.3544990  32.9789997  89.3809992  83.8704990  31.7169997
  89.9116547  83.7337468  32.3920029  81.7299992  86.0474990  25.2219997
  81.3999992  85.6764990  24.4039997  82.3179992  85.3764990  25.5689997
  81.7643182  85.9060648  25.1569898  96.3589992  47.3924990  83.8029997
  96.5729992  46.6224990  84.3299997  97.0969992  47.4824990  83.1999997
  96.4880073  47.2993546  83.7935786  83.0969992  89.4754990  27.9029997
  83.0019992  88.8964990  27.1469997  83.8259992  89.1044990  28.3989997
  83.1826011  89.3460572  27.8666011  82.0969992  84.8154990  28.8549997
  82.6619992  84.9374990  28.0929997  82.4149992  85.4534990  29.4939997
  82.2173619  84.9184388  28.8370019  88.4059992  90.3194990  29.5889997
  88.1649992  90.9814990  30.2369997  88.2079992  89.4844990  30.0139997
  88.3462662  90.2972704  29.7351008  88.9559992  84.5794990  21.0249997
  89.5349992  84.7294990  21.7709997  89.3699992  85.0494990  20.3009997
  89.0913358  84.6635966  21.0293935  79.8969992  85.4134990  32.8009997
  79.9669992  86.0644990  33.4999997  79.0059992  85.5164990  32.4659997
  79.7861690  85.5164261  32.8513026  86.6819992  91.3154990  24.4599997
  87.1559992  91.6114990  25.2369997  86.1189992  92.0544990  24.2269997
  86.6707890  91.4558047  24.5348084  81.2159992  91.2864990  34.3359997
  81.2239992  91.1504990  33.3889997  80.2999992  91.1694990  34.5879997
  81.0932528  91.2520475  34.2403226  92.6539992  76.3294990  20.8369997
  91.7539992  76.4674990  21.1329997  92.9059992  77.1604990  20.4359997
  92.5647727  76.4608705  20.8232935  80.7199992  85.1164990  22.8109997
  80.4279992  85.8844990  22.3199997  80.0459992  84.4574990  22.6479997
  80.5888843  85.1324537  22.7217695  93.8439992  90.6954990  19.2139997
  93.9169992  91.6344990  19.3839997  94.7489992  90.3904990  19.1579997
  93.9764170  90.7828294  19.2297045 106.5639992  55.5494990  84.6699997
 107.1839992  54.8734990  84.3969997 106.3559992  55.3314990  85.5779997
 106.6207360  55.4274792  84.7554387  76.8129992  87.4794990  31.6259997
  76.3119992  87.4514990  30.8109997  76.8189992  86.5744990  31.9359997
  76.7451690  87.3532234  31.5562770  76.5639992  90.2604990  28.5099997
  77.5099992  90.1154990  28.4909997  76.4509992  91.0444990  29.0469997
  76.6783578  90.3466708  28.5800300  85.7399992  90.5004990  33.0689997
  85.8269992  91.3264990  33.5439997  84.8759992  90.1704990  33.3179997
  85.6351944  90.5689871  33.1676558  86.1539992  94.2724990  22.8749997
  86.0789992  94.1514990  21.9279997  86.1869992  95.2214990  22.9929997
  86.1482083  94.3842639  22.7614973  79.8079992  93.0614990  24.6559997
  79.9599992  92.7134990  25.5339997  78.9569992  92.7044990  24.3999997
  79.7138344  92.9655891  24.7416851  89.2559992  93.4264990  19.8769997
  89.6309992  92.6824990  19.4059997  89.2599992  93.1564990  20.7949997
  89.3078969  93.2880920  19.9366475  88.9249992  93.3524990  22.6259997
  87.9899992  93.4524990  22.8049997  89.2049992  92.6424990  23.2049997
  88.8349471  93.2702944  22.7286678  79.0619992  88.8034990  32.6689997
  79.2779992  88.4414990  33.5289997  78.2069992  88.4284990  32.4599997
  78.9759082  88.7033377  32.7582396  81.6809992  77.2734990  28.6649997
  80.8189992  77.1864990  28.2569997  81.6589992  78.1294990  29.0929997
  81.5600557  77.3773078  28.6670202  86.3439992  76.9954990  32.0399997
  86.7639992  76.5804990  32.7929997  85.4109992  76.8164990  32.1569997
  86.2753736  76.9144921  32.1588950 104.1359992  49.9384990  86.5619997
 104.4399992  49.2524990  85.9679997 104.8579992  50.0574990  87.1799997
 104.2751152  49.8607201  86.5642106  89.6699992  80.7504990  32.8929997
  89.1559992  80.6254990  33.6909997  89.5149992  81.6634990  32.6489997
  89.5787802  80.8567433  32.9691504  90.4329992  85.6114990  18.6539997
  90.4749992  85.3894990  17.7239997  91.2819992  86.0104990  18.8439997
  90.5535253  85.6350510  18.5523804  86.0059992  79.4874990  19.3249997
  85.7519992  79.5064990  20.2469997  85.7489992  78.6164990  19.0229997
  85.9364508  79.3723292  19.4104786  81.7719992  82.2384990  29.7599997
  81.1299992  82.1984990  30.4689997  81.8089992  83.1654990  29.5219997
  81.6891659  82.3582540  29.8248463  81.7689992  82.4594990  24.6719997
  80.8759992  82.1194990  24.6129997  82.2199992  82.0824990  23.9159997
  81.7077185  82.3620220  24.5617698  87.3049992  82.8754990  23.4889997
  86.8959992  83.6904990  23.1969997  88.0249992  82.7354990  22.8749997
  87.3464439  82.9680383  23.3660098  86.4069992  83.0514990  34.9769997
  85.8439992  82.3464990  35.2979997  87.2329992  82.9304990  35.4449997
  86.4416674  82.9387176  35.0841734  88.3089992  82.3214990  26.3029997
  88.1139992  82.9274990  25.5879997  88.4909992  81.4884990  25.8689997
  88.3069195  82.2917936  26.1464079  79.5219992  82.5594990  31.6269997
  79.4839992  82.9594990  32.4959997  79.0309992  81.7424990  31.7169997
  79.4504374  82.5038228  31.7580980  82.8879992  79.9334990  18.4259997
  82.4569992  79.4884990  19.1549997  82.1699992  80.3044990  17.9129997
  82.7319176  79.9227063  18.4564913 112.7989992  41.5404990  87.4229997
 112.8479992  42.1504990  88.1589997 113.2249992  42.0014990  86.6999997
 112.8632851  41.6863266  87.4260532  76.1299992  79.6754990  25.4779997
  76.7609992  79.6464990  26.1969997  76.5799992  79.2504990  24.7469997
  76.2771082  79.6141269  25.4776307  77.4039992  80.4214990  20.9019997
  77.8789992  81.0124990  20.3169997  76.6869992  80.9514990  21.2489997
  77.3720406  80.5741011  20.8688495  87.5729992  83.9594990  30.9739997
  87.8969992  83.3284990  30.3309997  87.1329992  83.4254990  31.6349997
  87.5578707  83.8008261  30.9753195  84.3509992  79.8874990  25.7579997
  83.4399992  79.9444990  26.0469997  84.8559992  79.8274990  26.5689997
  84.2946873  79.8871838  25.9071190  79.1789992  81.5164990  24.5849997
  78.2899992  81.6154990  24.2449997  79.4749992  80.6744990  24.2389997
  79.0974001  81.4162473  24.4917318  82.8319992  81.5164990  22.2419997
  83.7639992  81.6454990  22.4199997  82.6169992  82.1854990  21.5919997
  82.9304472  81.6245817  22.1784873  88.7559992  79.1224990  29.0219997
  88.0789992  79.2534990  29.6859997  88.2699992  78.9674990  28.2119997
  88.5977265  79.1194665  29.0033380  81.5059992  82.7104990  19.8079997
  80.9639992  82.3314990  19.1169997  82.3399992  82.9054990  19.3799997
  81.5444390  82.6849091  19.6554374  79.6409992  87.2674990  34.9069997
  80.3729992  87.5224990  35.4689997  78.8609992  87.4724990  35.4229997
  79.6356526  87.3300438  35.0535168  85.6709992  82.6744990  27.6449997
  86.2349992  82.1284990  27.0979997  85.5229992  82.1534990  28.4339997
  85.7283037  82.5291798  27.6767212 107.2769992  44.3324990  86.8899997
 107.4189992  43.3864990  86.9099997 107.1709992  44.5394990  85.9609997
 107.2821158  44.2309722  86.7672241  80.6729992  78.8114990  24.0639997
  80.3549992  77.9084990  24.0279997  81.4539992  78.8134990  23.5109997
  80.7351079  78.6882240  23.9842908  84.2969992  81.0634990  30.0589997
  83.4619992  81.5174990  30.1699997  84.8209992  81.3394990  30.8109997
  84.2536072  81.1628960  30.1758118  84.8409992  87.2764990  21.7439997
  84.0959992  86.7684990  21.4219997  84.7069992  87.3254990  22.6899997
  84.7209334  87.2136144  21.8278892  91.9909992  86.4094990  30.5309997
  92.6329992  86.8654990  29.9869997  91.1609992  86.5224990  30.0679997
  91.9666536  86.4871813  30.3939579  88.7389992  80.0904990  19.9429997
  87.7999992  80.2014990  19.7919997  89.0359992  80.9464990  20.2499997
  88.6506136  80.2214977  19.9638568  86.3609992  87.4604990  32.9809997
  86.0149992  87.0784990  33.7879997  86.1609992  88.3934990  33.0519997
  86.2865987  87.5344013  33.1010443  89.4569992  81.9574990  21.6039997
  90.3489992  81.8194990  21.9229997  89.5139992  82.7484990  21.0669997
  89.5867380  82.0454777  21.5750981  79.9659992  86.5714990  27.5139997
  80.7109992  86.5684990  26.9119997  80.0439992  85.7474990  27.9949997
  80.0783365  86.4597395  27.4967412  76.9739992  85.0314990  32.8289997
  77.1969992  84.6134990  33.6599997  76.3719992  84.4194990  32.4059997
  76.9231513  84.8914617  32.8856722 100.4319992  42.4344990  84.1619997
 100.4749992  43.2944990  83.7439997  99.9739992  41.8814990  83.5289997
 100.3759613  42.4775689  84.0191276  83.9909992  84.5484990  35.0419997
  83.6949992  84.3834990  34.1459997  84.9219992  84.3284990  35.0309997
  84.0764401  84.4961891  34.9180189  88.6109992  89.9224990  32.9309997
  87.7099992  90.1054990  32.6639997  88.6449992  90.1814990  33.8519997
  88.4923861  89.9825245  33.0189517  94.3419992  82.1664990  21.2989997
  93.7879992  81.7704990  20.6259997  94.4429992  83.0774990  21.0209997
  94.2798589  82.2353904  21.1693839  94.3049992  87.9674990  34.1359997
  93.4539992  88.2054990  33.7679997  94.8959992  87.9504990  33.3819997
  94.2683831  87.9977623  33.9838448  92.6369992  90.9524990  21.7639997
  92.2649992  90.1274990  22.0729997  92.9149992  90.7694990  20.8659997
  92.6235807  90.8147031  21.6850063  89.7979992  85.7604990  28.7849997
  88.8699992  85.5294990  28.7579997  90.2489992  84.9834990  28.4549997
  89.7318165  85.6237785  28.7366772  82.3409992  90.0894990  24.9179997
  82.8679992  90.8624990  24.7179997  81.4609992  90.3134990  24.6159997
  82.2942121  90.2257344  24.8497460  78.0959992  84.9514990  19.5049997
  78.7119992  85.5784990  19.8849997  77.2339992  85.2674990  19.7769997
  78.0637678  85.0799423  19.5937192  83.7679992  87.7524990  24.4939997
  83.5269992  88.6774990  24.5359997  83.0279992  87.2934990  24.8909997
  83.6349463  87.8170969  24.5534279  84.2829992  91.9014990  30.8089997
  84.6459992  92.7554990  30.5759997  84.8149992  91.6094990  31.5499997
  84.4045141  91.9788907  30.8772079 108.1539992  42.5654990  82.5629997
 108.7999992  42.2364990  83.1879997 108.6639992  43.0824990  81.9399997
 108.3114392  42.5903710  82.5643248  82.4509992  92.7734990  24.0399997
  81.5019992  92.8794990  24.0909997  82.8029992  93.5944990  24.3839997
  82.3685647  92.8990029  24.0934882  87.8269992  88.0004990  30.5099997
  87.4009992  87.7724990  31.3359997  88.4079992  87.2614990  30.3279997
  87.8472088  87.8694393  30.5984454  90.0299992  88.9294990  19.5839997
  90.3829992  88.5494990  20.3879997  89.0809992  88.8354990  19.6709997
  89.9500956  88.8647867  19.7058005  90.4859992  92.5524990  32.9789997
  89.8839992  91.9964990  32.4839997  90.7669992  93.2194990  32.3529997
  90.4415757  92.5665755  32.8265657  94.5329992  93.4084990  19.7849997
  95.2769992  93.9944990  19.6449997  93.8389992  93.9774990  20.1179997
  94.5409809  93.5655830  19.8108572  78.6079992  79.7854990  32.3869997
  77.7149992  80.1234990  32.3189997  78.5089992  78.9294990  32.8049997
  78.4724752  79.7160986  32.4341644  90.8959992  87.6014990  21.8109997
  90.6189992  86.8734990  22.3669997  91.8229992  87.7204990  22.0159997
  90.9834419  87.5179436  21.9148264  78.2589992  91.5894990  30.8219997
  78.4759992  90.6574990  30.7909997  78.5059992  91.8644990  31.7049997
  78.3220948  91.4990976  30.9371268  84.1209992  90.0414990  18.0309997
  84.3599992  89.2924990  17.4839997  83.8519992  89.6534990  18.8639997
  84.1173233  89.8866865  18.0687791  83.0579992  89.6114990  20.4869997
  83.2049992  89.0914990  21.2769997  83.0549992  90.5184990  20.7939997
  83.0777102  89.6628964  20.6365907  97.0519992  44.8314990  84.9239997
  97.7059992  44.2814990  85.3559997  97.0759992  44.5574990  84.0079997
  97.1447022  44.7192005  84.8591698  79.5109992  86.8634990  20.9979997
  78.8249992  87.2164990  21.5649997  80.0339992  87.6264990  20.7509997
  79.4878402  87.0148912  21.0421784  87.3419992  79.5264990  31.2769997
  88.0409992  79.6004990  31.9269997  86.9619992  78.6614990  31.4309997
  87.3862662  79.4197050  31.3867412  88.1269992  79.1784990  22.3739997
  88.3469992  79.6494990  21.5699997  88.6849992  79.5724990  23.0439997
  88.2326044  79.2962946  22.3545207  85.7959992  91.3084990  21.2369997
  84.9789992  91.8054990  21.2889997  86.3249992  91.7844990  20.5959997
  85.7558125  91.4407000  21.1575289  85.3269992  80.9064990  23.2089997
  86.1389992  81.4104990  23.2549997  85.0819992  80.7614990  24.1229997
  85.4051091  80.9559366  23.3388552  85.8629992  81.8924990  32.3929997
  85.9819992  82.4664990  33.1499997  86.5179992  81.2044990  32.5079997
  85.9678684  81.8780205  32.5121656  86.2109992  77.9874990  24.1469997
  85.8639992  78.6044990  24.7909997  86.8689992  78.4884990  23.6649997
  86.2524430  78.1396860  24.1700046  83.1339992  92.3524990  21.2179997
  83.2949992  93.1524990  20.7179997  82.9369992  92.6594990  22.1029997
  83.1293906  92.5033690  21.2692316  81.8679992  79.0504990  20.8339997
  81.7849992  79.9384990  21.1809997  82.7579992  78.7854990  21.0659997
  81.9769331  79.1361177  20.9128067  92.0669992  79.7994990  33.2279997
  91.1509992  80.0614990  33.1409997  92.4029992  79.7964990  32.3319997
  91.9868499  79.8350174  33.0948748 102.2079992  46.3814990  84.1399997
 102.8239992  45.8544990  84.6489997 101.6219992  45.7414990  83.7359997
 102.2130652  46.2228919  84.1550277  90.6689992  83.5494990  27.3239997
  89.8719992  83.1344990  26.9959997  91.1139992  82.8594990  27.8149997
  90.6200367  83.3993372  27.3454897  80.1269992  89.4774990  19.8939997
  80.7189992  90.1774990  20.1709997  80.5859992  89.0444990  19.1749997
  80.2701652  89.5147686  19.8346515  78.4429992  82.1424990  19.0099997
  78.3979992  83.0814990  19.1889997  77.5549992  81.9064990  18.7409997
  78.3168166  82.2391698  18.9981507  91.7559992  92.8054990  28.9459997
  91.5999992  93.4844990  28.2889997  92.6879992  92.8774990  29.1489997
  91.8607328  92.9081586  28.8835529  79.2509992  76.9234990  27.6829997
  79.0219992  76.9824990  26.7559997  78.8079992  76.1324990  27.9899997
  79.1597387  76.8246412  27.5975223  78.1809992  90.8644990  23.8439997
  77.3489992  91.3364990  23.8709997  78.7269992  91.3744990  23.2449997
  78.1408710  90.9980317  23.7667570  86.1589992  91.9044990  18.1689997
  85.5149992  91.2734990  18.4909997  86.9209992  91.3734990  17.9379997
  86.1738708  91.7463171  18.1818461  90.7629992  91.7214990  18.4029997
  91.0459992  90.9264990  18.8559997  91.5029992  91.9544990  17.8419997
  90.9017295  91.6442349  18.3891469  81.7179992  87.6304990  18.2609997
  81.7819992  86.8364990  18.7909997  82.3709992  87.5124990  17.5709997
  81.8150482  87.5057496  18.2403407  87.0699992  88.6774990  17.9969997
  86.8019992  88.8584990  18.8969997  86.8639992  87.7524990  17.8649997
  87.0053443  88.5771873  18.1026643 113.1909992  43.0184990  89.6589997
 112.5019992  43.6764990  89.5639997 113.2059992  42.8204990  90.5959997
 113.0987756  43.0817614  89.7725795  89.7669992  87.1724990  32.9439997
  90.5119992  87.7614990  32.8249997  89.0089992  87.7544990  33.0069997
  89.7665289  87.3317067  32.9362292  82.8669992  85.6034990  20.5669997
  82.4079992  85.1194990  21.2519997  83.1219992  84.9344990  19.9309997
  82.8385997  85.4468491  20.5748734  82.1559992  83.4964990  32.9229997
  81.5379992  84.1704990  33.2029997  82.4999992  83.8174990  32.0889997
  82.1178078  83.6322298  32.8486609  83.9379992  83.8464990  18.8289997
  83.7579992  83.6914990  17.9019997  84.8879992  83.9544990  18.8739997
  84.0417804  83.8398821  18.7081966  93.3279992  86.2004990  18.2749997
  93.0549992  85.7764990  17.4619997  93.3679992  87.1324990  18.0579997
  93.2960201  86.2683523  18.1343548  82.4959992  80.8514990  34.0049997
  82.6459992  80.1224990  33.4029997  82.4979992  81.6284990  33.4459997
  82.5167967  80.8567720  33.8470523  82.9079992  79.2204990  31.4979997
  83.4439992  79.6724990  30.8459997  82.0559992  79.1124990  31.0749997
  82.8661795  79.2677444  31.3516211  84.4899992  84.6604990  31.7369997
  85.2409992  84.5044990  31.1639997  84.1509992  85.5124990  31.4619997
  84.5469587  84.7543149  31.6214060  83.7139992  76.6774990  31.9289997
  83.6159992  77.6234990  31.8239997  82.9709992  76.3044990  31.4529997
  83.6002123  76.7566811  31.8503204  84.9779992  80.9984990  35.4929997
  84.7419992  80.7794990  36.3939997  84.1949992  80.7914990  34.9829997
  84.8398382  80.9405340  35.5473991  99.2419992  41.3524990  88.2359997
  99.0229992  41.8824990  87.4699997  98.5739992  41.5784990  88.8839997
  99.1217271  41.4556508  88.2186206  87.6939992  80.1264990  34.5679997
  86.7459992  80.1584990  34.6999997  88.0059992  79.5004990  35.2219997
  87.6065293  80.0462934  34.6744130  83.8359992  94.5364990  19.8299997
  84.7689992  94.6944990  19.9739997  83.5709992  95.2124990  19.2049997
  83.9279846  94.6494567  19.7652930  77.4039992  89.1734990  19.3129997
  78.3179992  89.2524990  19.5859997  77.4109992  88.4864990  18.6469997
  77.5300624  89.0914074  19.2603045  76.0529992  94.5664990  24.3899997
  75.4059992  94.1044990  23.8579997  76.4079992  93.8944990  24.9729997
  76.0123741  94.4124785  24.3959157  76.9229992  92.6464990  26.1949997
  76.5889992  91.7664990  26.3669997  77.1449992  92.9924990  27.0599997
  76.9072565  92.5727410  26.3354263  94.4719992  93.4564990  29.1759997
  94.4499992  93.6414990  30.1139997  95.1619992  94.0244990  28.8349997
  94.5623383  93.5587104  29.2584580  94.0349992  93.0234990  32.0969997
  93.5479992  92.2874990  31.7259997  94.5839992  92.6294990  32.7749997
  94.0426101  92.8696267  32.1379034  93.7869992  87.0694990  22.2499997
  94.6369992  87.4904990  22.3769997  93.7919992  86.3294990  22.8569997
  93.9041143  87.0271106  22.3494732  94.1809992  85.1234990  24.0729997
  93.4549992  84.6434990  24.4709997  94.7619992  85.3284990  24.8049997
  94.1602504  85.0855592  24.2264199  93.9399992  87.9084990  29.0209997
  94.7739992  87.5304990  28.7399997  94.0519992  88.8514990  28.9019997
  94.0691917  87.9842954  28.9664844 106.6109992  50.8524990  81.7799997
 106.3149992  50.5294990  80.9289997 106.2869992  51.7524990  81.8219997
 106.5266501  50.9299058  81.6690893  92.4259992  90.7864990  31.3279997
  91.7789992  91.1114990  31.9529997  91.9089992  90.3454990  30.6539997
  92.2674112  90.7714133  31.3225272  94.4489992  85.0244990  20.4639997
  93.9279992  85.3804990  19.7459997  94.4159992  85.6994990  21.1429997
  94.3730955  85.1645023  20.4572634  92.7979992  82.2634990  19.0149997
  92.8949992  82.9304990  18.3349997  92.6579992  81.4484990  18.5339997
  92.7923407  82.2445670  18.8568312  91.9679992  83.6444990  24.6359997
  91.8179992  82.6994990  24.6159997  91.6139992  83.9254990  25.4799997
  91.8996351  83.5531656  24.7473202  77.0029992  85.7224990  28.6469997
  77.1869992  85.6404990  27.7109997  77.8519992  85.5984990  29.0699997
  77.1430132  85.6945066  28.5761460  92.0459992  79.6714990  18.1329997
  92.6559992  79.3004990  18.7699997  91.2089992  79.2504990  18.3289997
  92.0163704  79.5637942  18.2467077  91.6779992  81.2264990  23.0989997
  91.9579992  80.3194990  23.2229997  92.4369992  81.6604990  22.7099997
  91.8189258  81.1610935  23.0633691  92.2899992  81.8084990  28.5349997
  93.2229992  82.0204990  28.4999997  92.0549992  81.9094990  29.4569997
  92.3859517  81.8511844  28.6549113  92.3189992  82.5454990  31.3109997
  91.4759992  82.8134990  31.6759997  92.7619992  83.3674990  31.0999997
  92.2634035  82.6933351  31.3324770  92.2919992  78.4894990  23.1469997
  92.4739992  78.0404990  23.9719997  91.6919992  77.9054990  22.6829997
  92.2358187  78.3490563  23.1972721 101.8109992  49.0274990  88.5239997
 101.0709992  49.6264990  88.6269997 102.5249992  49.5814990  88.2079997
 101.8063288  49.1842368  88.4953787  77.8219992  79.3054990  27.6789997
  78.2669992  78.5134990  27.9809997  78.2879992  80.0214990  28.1089997
  77.9459718  79.2939546  27.7785247  76.1259992  82.3044990  28.7479997
  76.6179992  82.0834990  27.9569997  76.4879992  83.1444990  29.0289997
  76.2422923  82.3878480  28.6777389  94.1219992  78.6344990  35.0129997
  93.2049992  78.9054990  34.9769997  94.2449992  78.0994990  34.2289997
  94.0130828  78.5992711  34.9020767  94.1579992  78.5574990  19.6749997
  94.5709992  77.8364990  19.1999997  94.8399992  79.2264990  19.7329997
  94.3066060  78.5493741  19.6179233  91.2099992  93.5464990  24.7479997
  91.8619992  93.1984990  24.1399997  91.7209992  94.0344990  25.3939997
  91.3682872  93.5648248  24.7520964  78.5949992  90.4754990  35.2909997
  77.7739992  90.6504990  34.8299997  78.3429992  90.4024990  36.2109997
  78.4485594  90.4895728  35.3523593  81.5489992  91.4494990  31.5489997
  81.1239992  92.2594990  31.2669997  82.4529992  91.5354990  31.2469997
  81.6130706  91.5719557  31.4695836  88.2049992  94.1344990  33.7529997
  88.8819992  93.5014990  33.5129997  88.5269992  94.5354990  34.5599997
  88.3411618  94.1021147  33.8292802  93.1229992  76.7244990  32.8319997
  92.3099992  77.0494990  32.4449997  93.3559992  75.9634990  32.2989997
  93.0431347  76.6661891  32.7069824  78.9509992  94.7064990  31.5969997
  78.2299992  95.1464990  31.1459997  78.5849992  94.4554990  32.4449997
  78.8029632  94.7327235  31.6499649 109.9179992  41.8564990  84.5439997
 109.7029992  41.0904990  85.0759997 110.5739992  42.3284990  85.0569997
 109.9772451  41.8154472  84.6861699  81.4179992  94.3064990  30.6259997
  80.5529992  94.3784990  31.0299997  81.3629992  94.8534990  29.8429997
  81.2922289  94.3903242  30.5753749  86.1289992  94.1944990  29.8019997
  85.6719992  94.7234990  29.1479997  86.2909992  94.7974990  30.5269997
  86.0883919  94.3483990  29.8105740  88.4559992  93.0724990  30.7469997
  87.5519992  93.2374990  30.4809997  88.8849992  93.9254990  30.6809997
  88.3902017  93.2104184  30.7016495  91.0599992  94.6424990  31.0419997
  90.8789992  95.5584990  30.8309997  91.2369992  94.2314990  30.1949997
  91.0591377  94.7123365  30.8987178  78.3659992  93.3294990  28.5069997
  78.3469992  92.9034990  29.3639997  79.1699992  93.0104990  28.0979997
  78.4721393  93.2280297  28.5690155  80.5069992  92.0394990  27.1619997
  80.2879992  91.1224990  27.3319997  81.3309992  92.1794990  27.6279997
  80.5884702  91.9330523  27.2482510  83.0439992  92.5094990  28.0109997
  83.2569992  91.6214990  27.7239997  83.1089992  92.4744990  28.9649997
  83.0819149  92.3833338  28.1007351  86.5529992  78.1734990  27.1549997
  85.8779992  77.5434990  27.4109997  87.1169992  77.6894990  26.5519997
  86.5369363  78.0218886  27.1084810  91.6949992  76.2804990  27.2679997
  92.2989992  76.8284990  26.7659997  90.8259992  76.5994990  27.0269997
  91.6600419  76.3985628  27.1667741  93.4219992  77.4194990  25.6009997
  94.0339992  76.9054990  25.0739997  93.8049992  78.2964990  25.6239997
  93.5573867  77.4677613  25.5320888  98.8359992  43.2444990  86.1889997
  99.4489992  43.8774990  86.5619997  99.3479992  42.7724990  85.5319997
  98.9891680  43.2674006  86.1512830  77.7159992  76.6054990  20.7809997
  78.1549992  77.2164990  20.1889997  77.0819992  77.1434990  21.2549997
  77.6903859  76.7619076  20.7640287  83.4589992  76.7334990  24.7899997
  84.3329992  77.1224990  24.7609997  83.3229992  76.5184990  25.7129997
  83.5601953  76.7576654  24.9107599  89.0149992  76.7634990  26.4399997
  89.0919992  76.8594990  25.4899997  88.7399992  75.8564990  26.5679997
  88.9883233  76.6539093  26.3273665  90.3689992  76.7894990  22.1319997
  89.6659992  77.4044990  21.9219997  89.9239992  75.9524990  22.2629997
  90.2126550  76.7604679  22.1209819  77.6169992  92.5534990  21.6779997
  76.9319992  92.5154990  21.0109997  77.6199992  93.4654990  21.9659997
  77.5236806  92.6716669  21.6256961  79.5769992  78.5214990  19.2229997
  80.0679992  77.8914990  18.6959997  80.1999992  78.8174990  19.8859997
  79.7285304  78.4752387  19.2404922  84.6029992  78.8144990  21.6799997
  84.7809992  78.1674990  22.3629997  84.5489992  79.6484990  22.1469997
  84.6200678  78.8386615  21.8366283  86.4809992  93.7624990  20.0759997
  87.3469992  94.1294990  19.8979997  86.2339992  93.3234990  19.2619997
  86.5661853  93.7534021  19.9415813  93.1899992  93.3254990  22.7549997
  92.9959992  92.5774990  22.1899997  93.1509992  94.0834990  22.1719997
  93.1581645  93.3255797  22.5988131  79.4349992  93.4734990  18.7029997
  79.1669992  93.7594990  19.5769997  80.2059992  92.9274990  18.8559997
  79.5025927  93.4387790  18.8431188 100.2179992  50.9924990  89.3109997
 100.2129992  51.8714990  88.9329997  99.3649992  50.9084990  89.7359997
 100.1019199  51.1015901  89.3166942 106.8139992  85.9634990  24.9359997
 106.9029992  86.9074990  24.8029997 106.1749992  85.6884990  24.2779997
 106.7398378  86.0553846  24.8289258 105.7469992  85.2184990  28.3549997
 105.7079992  84.5724990  29.0599997 105.4239992  84.7514990  27.5829997
 105.6980469  85.0670005  28.3472803  98.1149992  84.8324990  29.9479997
  98.1559992  84.2074990  30.6709997  98.8179992  85.4564990  30.1299997
  98.2156223  84.8312318  30.0716164 109.4529992  88.1574990  26.6559997
 109.0119992  87.4374990  27.1069997 109.4399992  88.8784990  27.2859997
 109.3909215  88.1564303  26.8028088  99.0389992  89.2824990  28.4829997
  98.6689992  88.4804990  28.1129997  99.9799992  89.1144990  28.5289997
  99.1155984  89.1499649  28.4385586  95.6489992  82.9424990  23.8749997
  95.2009992  83.7884990  23.8569997  95.0879992  82.3634990  23.3599997
  95.5118546  82.9799004  23.8028874  96.3589992  85.1044990  26.0009997
  96.5729992  84.3344990  26.5279997  97.0969992  85.1944990  25.3979997
  96.4880073  85.0113546  25.9915786 106.5639992  93.2614990  26.8679997
 107.1839992  92.5854990  26.5949997 106.3559992  93.0434990  27.7769997
 106.6207679  93.1395032  26.9534518 104.1359992  87.6504990  28.7609997
 104.4399992  86.9644990  28.1659997 104.8579992  87.7694990  29.3789997
 104.2751240  87.5727325  28.7630941 112.7989992  79.2524990  29.6209997
 112.8479992  79.8624990  30.3569997 113.2249992  79.7134990  28.8979997
 112.8632851  79.3983266  29.6240532  96.3399992  50.6634990  80.0929997
  96.0679992  50.8924990  79.2039997  96.3849992  51.5004990  80.5529997
  96.3088709  50.8081069  80.0336089 107.2769992  82.0444990  29.0879997
 107.4189992  81.0984990  29.1079997 107.1709992  82.2514990  28.1599997
 107.2821051  81.9429706  28.9652249 100.4319992  80.1464990  26.3609997
 100.4749992  81.0064990  25.9419997  99.9739992  79.5934990  25.7269997
 100.3760163  80.1894174  26.2180604 108.1539992  80.2774990  24.7609997
 108.7999992  79.9484990  25.3859997 108.6639992  80.7944990  24.1389997
 108.3114289  80.3024333  24.7623681  97.0519992  82.5434990  27.1229997
  97.7059992  81.9934990  27.5549997  97.0759992  82.2694990  26.2059997
  97.1447199  82.4312178  27.0581650 102.2079992  84.0934990  26.3379997
 102.8239992  83.5664990  26.8469997 101.6219992  83.4534990  25.9339997
 102.2130652  83.9348919  26.3530277 113.1909992  80.7304990  31.8569997
 112.5019992  81.3884990  31.7619997 113.2059992  80.5324990  32.7939997
 113.0987756  80.7937614  31.9705795  99.2419992  79.0644990  30.4349997
  99.0229992  79.5944990  29.6679997  98.5739992  79.2904990  31.0819997
  99.1216975  79.1675979  30.4175123 106.6109992  88.5644990  23.9789997
 106.3149992  88.2414990  23.1269997 106.2869992  89.4644990  24.0199997
 106.5267458  88.6419678  23.8680598 101.8109992  86.7394990  30.7219997
 101.0709992  87.3384990  30.8259997 102.5249992  87.2934990  30.4059997
 101.8063146  86.8962611  30.6935150 109.9179992  79.5684990  26.7419997
 109.7029992  78.8024990  27.2749997 110.5739992  80.0404990  27.2549997
 109.9772673  79.5275739  26.8841972 109.9649992  52.2844990  86.8059997
 109.0229992  52.3434990  86.9669997 110.2409992  53.1904990  86.6689997
 109.8735771  52.4150270  86.8094827  98.8359992  80.9564990  28.3869997
  99.4489992  81.5894990  28.7599997  99.3479992  80.4844990  27.7309997
  98.9891933  80.9793380  28.3493477 100.2179992  88.7044990  31.5089997
 100.2129992  89.5834990  31.1309997  99.3649992  88.6204990  31.9339997
 100.1019199  88.8135901  31.5146942  96.3399992  88.3754990  22.2909997
  96.0679992  88.6044990  21.4019997  96.3849992  89.2124990  22.7519997
  96.3088360  88.5201034  22.2316186 109.9649992  89.9964990  29.0039997
 109.0229992  90.0554990  29.1659997 110.2409992  90.9024990  28.8669997
 109.8735865  90.1270299  29.0076174 110.2649992  78.2834990  30.4209997
 109.5289992  78.8934990  30.3839997 110.9489992  78.6984990  29.8949997
 110.2565367  78.4232562  30.3448156 103.2679992  76.3694990  27.8869997
 103.1509992  75.4214990  27.8329997 102.4129992  76.7024990  28.1599997
 103.1363691  76.2845842  27.9165072 108.2169992  91.7774990  25.6289997
 108.6419992  91.0704990  25.1439997 108.5339992  92.5794990  25.2119997
 108.3180266  91.7890201  25.5062461 109.3759992  89.6784990  24.1379997
 109.1189992  88.9884990  23.5259997 109.4469992  89.2354990  24.9829997
 109.3504322  89.5241568  24.1685372 111.0619992  88.2454990  32.6149997
 111.2019992  87.6534990  31.8759997 111.2299992  89.1184990  32.2589997
 111.1038734  88.2824041  32.4656937 105.5349992  85.2074990  22.3879997
 104.8229992  85.7424990  22.0359997 106.2259992  85.2624990  21.7279997
 105.5309704  85.2881663  22.2505797 110.2649992  40.5714990  88.2229997
 109.5289992  41.1814990  88.1849997 110.9489992  40.9864990  87.6969997
 110.2565885  40.7111924  88.1466931 105.5889992  83.6644990  19.4259997
 106.2899992  83.6874990  20.0779997 105.8909992  83.0364990  18.7699997
 105.7258202  83.5827223  19.4265591 112.9039992  84.5854990  30.6809997
 112.2519992  85.2794990  30.7699997 113.3689992  84.7954990  29.8709997
 112.8775357  84.7089544  30.5837056 108.9409992  85.4164990  23.3389997
 108.2089992  85.6454990  23.9119997 109.3879992  84.7034990  23.7939997
 108.9012753  85.3513984  23.4789698 108.8379992  83.5914990  32.4069997
 108.9179992  84.3544990  32.9789997 108.2369992  83.8704990  31.7169997
 108.7676547  83.7337468  32.3920029 100.5859992  86.0474990  25.2219997
 100.2559992  85.6764990  24.4039997 101.1739992  85.3764990  25.5689997
 100.6203182  85.9060648  25.1569898 101.9529992  89.4754990  27.9029997
 101.8579992  88.8964990  27.1469997 102.6819992  89.1044990  28.3989997
 102.0386011  89.3460572  27.8666011 100.9529992  84.8154990  28.8549997
 101.5179992  84.9374990  28.0929997 101.2709992  85.4534990  29.4939997
 101.0733619  84.9184388  28.8370019 107.2619992  90.3194990  29.5889997
 107.0209992  90.9814990  30.2369997 107.0639992  89.4844990  30.0139997
 107.2022662  90.2972704  29.7351008 107.8119992  84.5794990  21.0249997
 108.3909992  84.7294990  21.7709997 108.2259992  85.0494990  20.3009997
 107.9473358  84.6635966  21.0293935  98.7529992  85.4134990  32.8009997
  98.8229992  86.0644990  33.4999997  97.8619992  85.5164990  32.4659997
  98.6421690  85.5164261  32.8513026 103.2679992  38.6574990  85.6889997
 103.1509992  37.7094990  85.6349997 102.4129992  38.9904990  85.9619997
 103.1363691  38.5725842  85.7185072 105.5379992  91.3154990  24.4599997
 106.0119992  91.6114990  25.2369997 104.9749992  92.0544990  24.2269997
 105.5267890  91.4558047  24.5348084 111.5099992  76.3294990  20.8369997
 110.6099992  76.4674990  21.1329997 111.7619992  77.1604990  20.4359997
 111.4207727  76.4608705  20.8232935  99.5759992  85.1164990  22.8109997
  99.2839992  85.8844990  22.3199997  98.9019992  84.4574990  22.6479997
  99.4448843  85.1324537  22.7217695 112.6999992  90.6954990  19.2139997
 112.7729992  91.6344990  19.3839997 113.6049992  90.3904990  19.1579997
 112.8324170  90.7828294  19.2297045  95.6689992  87.4794990  31.6259997
  95.1679992  87.4514990  30.8109997  95.6749992  86.5744990  31.9359997
  95.6011690  87.3532234  31.5562770  95.4199992  90.2604990  28.5099997
  96.3659992  90.1154990  28.4909997  95.3069992  91.0444990  29.0469997
  95.5343578  90.3466708  28.5800300 104.5959992  90.5004990  33.0689997
 104.6829992  91.3264990  33.5439997 103.7319992  90.1704990  33.3179997
 104.4911944  90.5689871  33.1676558 105.0099992  94.2724990  22.8749997
 104.9349992  94.1514990  21.9279997 105.0429992  95.2214990  22.9929997
 105.0042083  94.3842639  22.7614973  98.6639992  93.0614990  24.6559997
  98.8159992  92.7134990  25.5339997  97.8129992  92.7044990  24.3999997
  98.5698344  92.9655891  24.7416851 108.1119992  93.4264990  19.8769997
 108.4869992  92.6824990  19.4059997 108.1159992  93.1564990  20.7949997
 108.1638969  93.2880920  19.9366475 108.2169992  54.0654990  83.4309997
 108.6419992  53.3584990  82.9459997 108.5339992  54.8674990  83.0139997
 108.3180266  54.0770201  83.3082461 107.7809992  93.3524990  22.6259997
 106.8459992  93.4524990  22.8049997 108.0609992  92.6424990  23.2049997
 107.6909471  93.2702944  22.7286678  97.9179992  88.8034990  32.6689997
  98.1339992  88.4414990  33.5289997  97.0629992  88.4284990  32.4599997
  97.8319082  88.7033377  32.7582396 100.5369992  77.2734990  28.6649997
  99.6749992  77.1864990  28.2569997 100.5149992  78.1294990  29.0929997
 100.4160557  77.3773078  28.6670202 105.1999992  76.9954990  32.0399997
 105.6199992  76.5804990  32.7929997 104.2669992  76.8164990  32.1569997
 105.1313736  76.9144921  32.1588950 108.5259992  80.7504990  32.8929997
 108.0119992  80.6254990  33.6909997 108.3709992  81.6634990  32.6489997
 108.4347802  80.8567433  32.9691504 109.2889992  85.6114990  18.6539997
 109.3309992  85.3894990  17.7239997 110.1379992  86.0104990  18.8439997
 109.4095253  85.6350510  18.5523804 104.8619992  79.4874990  19.3249997
 104.6079992  79.5064990  20.2469997 104.6049992  78.6164990  19.0229997
 104.7924508  79.3723292  19.4104786 100.6279992  82.2384990  29.7599997
  99.9859992  82.1984990  30.4689997 100.6649992  83.1654990  29.5219997
 100.5451659  82.3582540  29.8248463 100.6249992  82.4594990  24.6719997
  99.7319992  82.1194990  24.6129997 101.0759992  82.0824990  23.9159997
 100.5637185  82.3620220  24.5617698 106.1609992  82.8754990  23.4889997
 105.7519992  83.6904990  23.1969997 106.8809992  82.7354990  22.8749997
 106.2024439  82.9680383  23.3660098 109.3759992  51.9664990  81.9399997
 109.1189992  51.2764990  81.3279997 109.4469992  51.5234990  82.7849997
 109.3504322  51.8121568  81.9705372 105.2629992  83.0514990  34.9769997
 104.6999992  82.3464990  35.2979997 106.0889992  82.9304990  35.4449997
 105.2976674  82.9387176  35.0841734 107.1649992  82.3214990  26.3029997
 106.9699992  82.9274990  25.5879997 107.3469992  81.4884990  25.8689997
 107.1629195  82.2917936  26.1464079  98.3779992  82.5594990  31.6269997
  98.3399992  82.9594990  32.4959997  97.8869992  81.7424990  31.7169997
  98.3064374  82.5038228  31.7580980 101.7439992  79.9334990  18.4259997
 101.3129992  79.4884990  19.1549997 101.0259992  80.3044990  17.9129997
 101.5879176  79.9227063  18.4564913  94.9859992  79.6754990  25.4779997
  95.6169992  79.6464990  26.1969997  95.4359992  79.2504990  24.7469997
  95.1331082  79.6141269  25.4776307  96.2599992  80.4214990  20.9019997
  96.7349992  81.0124990  20.3169997  95.5429992  80.9514990  21.2489997
  96.2280406  80.5741011  20.8688495 106.4289992  83.9594990  30.9739997
 106.7529992  83.3284990  30.3309997 105.9889992  83.4254990  31.6349997
 106.4138707  83.8008261  30.9753195 103.2069992  79.8874990  25.7579997
 102.2959992  79.9444990  26.0469997 103.7119992  79.8274990  26.5689997
 103.1506873  79.8871838  25.9071190  98.0349992  81.5164990  24.5849997
  97.1459992  81.6154990  24.2449997  98.3309992  80.6744990  24.2389997
  97.9534001  81.4162473  24.4917318 101.6879992  81.5164990  22.2419997
 102.6199992  81.6454990  22.4199997 101.4729992  82.1854990  21.5919997
 101.7864472  81.6245817  22.1784873 111.0619992  50.5334990  90.4169997
 111.2019992  49.9414990  89.6779997 111.2299992  51.4064990  90.0609997
 111.1038734  50.5704041  90.2676937 107.6119992  79.1224990  29.0219997
 106.9349992  79.2534990  29.6859997 107.1259992  78.9674990  28.2119997
 107.4537265  79.1194665  29.0033380 100.3619992  82.7104990  19.8079997
  99.8199992  82.3314990  19.1169997 101.1959992  82.9054990  19.3799997
 100.4004390  82.6849091  19.6554374 104.5269992  82.6744990  27.6449997
 105.0909992  82.1284990  27.0979997 104.3789992  82.1534990  28.4339997
 104.5843037  82.5291798  27.6767212  99.5289992  78.8114990  24.0639997
  99.2109992  77.9084990  24.0279997 100.3099992  78.8134990  23.5109997
  99.5911079  78.6882240  23.9842908 103.1529992  81.0634990  30.0589997
 102.3179992  81.5174990  30.1699997 103.6769992  81.3394990  30.8109997
 103.1096072  81.1628960  30.1758118 103.6969992  87.2764990  21.7439997
 102.9519992  86.7684990  21.4219997 103.5629992  87.3254990  22.6899997
 103.5769334  87.2136144  21.8278892 110.8469992  86.4094990  30.5309997
 111.4889992  86.8654990  29.9869997 110.0169992  86.5224990  30.0679997
 110.8226536  86.4871813  30.3939579 107.5949992  80.0904990  19.9429997
 106.6559992  80.2014990  19.7919997 107.8919992  80.9464990  20.2499997
 107.5066136  80.2214977  19.9638568 105.2169992  87.4604990  32.9809997
 104.8709992  87.0784990  33.7879997 105.0169992  88.3934990  33.0519997
 105.1425987  87.5344013  33.1010443 108.3129992  81.9574990  21.6039997
 109.2049992  81.8194990  21.9229997 108.3699992  82.7484990  21.0669997
 108.4427380  82.0454777  21.5750981 105.5349992  47.4954990  80.1889997
 104.8229992  48.0304990  79.8379997 106.2259992  47.5504990  79.5289997
 105.5308696  47.5762591  80.0516372  98.8219992  86.5714990  27.5139997
  99.5669992  86.5684990  26.9119997  98.8999992  85.7474990  27.9949997
  98.9343365  86.4597395  27.4967412 105.8229992  88.7344990  20.7689997
 105.5279992  89.5614990  21.1509997 105.1199992  88.1154990  20.9659997
 105.6876379  88.7639182  20.8478636  95.8299992  85.0314990  32.8289997
  96.0529992  84.6134990  33.6599997  95.2279992  84.4194990  32.4059997
  95.7791513  84.8914617  32.8856722 102.8469992  84.5484990  35.0419997
 102.5509992  84.3834990  34.1459997 103.7779992  84.3284990  35.0309997
 102.9324401  84.4961891  34.9180189 107.4669992  89.9224990  32.9309997
 106.5659992  90.1054990  32.6639997 107.5009992  90.1814990  33.8519997
 107.3483861  89.9825245  33.0189517 113.1979992  82.1664990  21.2989997
 112.6439992  81.7704990  20.6259997 113.2989992  83.0774990  21.0209997
 113.1358589  82.2353904  21.1693839 111.4929992  90.9524990  21.7639997
 111.1209992  90.1274990  22.0729997 111.7709992  90.7694990  20.8659997
 111.4795807  90.8147031  21.6850063 108.6539992  85.7604990  28.7849997
 107.7259992  85.5294990  28.7579997 109.1049992  84.9834990  28.4549997
 108.5878165  85.6237785  28.7366772 101.1969992  90.0894990  24.9179997
 101.7239992  90.8624990  24.7179997 100.3169992  90.3134990  24.6159997
 101.1502121  90.2257344  24.8497460  96.9519992  84.9514990  19.5049997
  97.5679992  85.5784990  19.8849997  96.0899992  85.2674990  19.7769997
  96.9197678  85.0799423  19.5937192 112.9039992  46.8734990  88.4829997
 112.2519992  47.5674990  88.5719997 113.3689992  47.0834990  87.6729997
 112.8775357  46.9969544  88.3857056 102.6239992  87.7524990  24.4939997
 102.3829992  88.6774990  24.5359997 101.8839992  87.2934990  24.8909997
 102.4909463  87.8170969  24.5534279 103.1389992  91.9014990  30.8089997
 103.5019992  92.7554990  30.5759997 103.6709992  91.6094990  31.5499997
 103.2605141  91.9788907  30.8772079 101.3069992  92.7734990  24.0399997
 100.3579992  92.8794990  24.0909997 101.6589992  93.5944990  24.3839997
 101.2245647  92.8990029  24.0934882 106.6829992  88.0004990  30.5099997
 106.2569992  87.7724990  31.3359997 107.2639992  87.2614990  30.3279997
 106.7032088  87.8694393  30.5984454 108.8859992  88.9294990  19.5839997
 109.2389992  88.5494990  20.3879997 107.9369992  88.8354990  19.6709997
 108.8060956  88.8647867  19.7058005 109.3419992  92.5524990  32.9789997
 108.7399992  91.9964990  32.4839997 109.6229992  93.2194990  32.3529997
 109.2975757  92.5665755  32.8265657 113.3889992  93.4084990  19.7849997
 114.1329992  93.9944990  19.6449997 112.6949992  93.9774990  20.1179997
 113.3969809  93.5655830  19.8108572  97.4639992  79.7854990  32.3869997
  96.5709992  80.1234990  32.3189997  97.3649992  78.9294990  32.8049997
  97.3284752  79.7160986  32.4341644 109.7519992  87.6014990  21.8109997
 109.4749992  86.8734990  22.3669997 110.6789992  87.7204990  22.0159997
 109.8394419  87.5179436  21.9148264  97.1149992  91.5894990  30.8219997
  97.3319992  90.6574990  30.7909997  97.3619992  91.8644990  31.7049997
  97.1780948  91.4990976  30.9371268 108.9409992  47.7044990  81.1409997
 108.2089992  47.9334990  81.7139997 109.3879992  46.9914990  81.5959997
 108.9012753  47.6393984  81.2809698 102.9769992  90.0414990  18.0309997
 103.2159992  89.2924990  17.4839997 102.7079992  89.6534990  18.8639997
 102.9733233  89.8866865  18.0687791 101.9139992  89.6114990  20.4869997
 102.0609992  89.0914990  21.2769997 101.9109992  90.5184990  20.7939997
 101.9337102  89.6628964  20.6365907  98.3669992  86.8634990  20.9979997
  97.6809992  87.2164990  21.5649997  98.8899992  87.6264990  20.7509997
  98.3438402  87.0148912  21.0421784 106.1979992  79.5264990  31.2769997
 106.8969992  79.6004990  31.9269997 105.8179992  78.6614990  31.4309997
 106.2422662  79.4197050  31.3867412 106.9829992  79.1784990  22.3739997
 107.2029992  79.6494990  21.5699997 107.5409992  79.5724990  23.0439997
 107.0886044  79.2962946  22.3545207 104.6519992  91.3084990  21.2369997
 103.8349992  91.8054990  21.2889997 105.1809992  91.7844990  20.5959997
 104.6118125  91.4407000  21.1575289 104.1829992  80.9064990  23.2089997
 104.9949992  81.4104990  23.2549997 103.9379992  80.7614990  24.1229997
 104.2611091  80.9559366  23.3388552 104.7189992  81.8924990  32.3929997
 104.8379992  82.4664990  33.1499997 105.3739992  81.2044990  32.5079997
 104.8238684  81.8780205  32.5121656 105.0669992  77.9874990  24.1469997
 104.7199992  78.6044990  24.7909997 105.7249992  78.4884990  23.6649997
 105.1084430  78.1396860  24.1700046 101.9899992  92.3524990  21.2179997
 102.1509992  93.1524990  20.7179997 101.7929992  92.6594990  22.1029997
 101.9853906  92.5033690  21.2692316 108.8379992  45.8794990  90.2089997
 108.9179992  46.6424990  90.7809997 108.2369992  46.1584990  89.5179997
 108.7677115  46.0217707  90.1939631 100.7239992  79.0504990  20.8339997
 100.6409992  79.9384990  21.1809997 101.6139992  78.7854990  21.0659997
 100.8329331  79.1361177  20.9128067 110.9229992  79.7994990  33.2279997
 110.0069992  80.0614990  33.1409997 111.2589992  79.7964990  32.3319997
 110.8428499  79.8350174  33.0948748 109.5249992  83.5494990  27.3239997
 108.7279992  83.1344990  26.9959997 109.9699992  82.8594990  27.8149997
 109.4760367  83.3993372  27.3454897  98.9829992  89.4774990  19.8939997
  99.5749992  90.1774990  20.1709997  99.4419992  89.0444990  19.1749997
  99.1261652  89.5147686  19.8346515  97.2989992  82.1424990  19.0099997
  97.2539992  83.0814990  19.1889997  96.4109992  81.9064990  18.7409997
  97.1728166  82.2391698  18.9981507 110.6119992  92.8054990  28.9459997
 110.4559992  93.4844990  28.2889997 111.5439992  92.8774990  29.1489997
 110.7167328  92.9081586  28.8835529  98.1069992  76.9234990  27.6829997
  97.8779992  76.9824990  26.7559997  97.6639992  76.1324990  27.9899997
  98.0157387  76.8246412  27.5975223  97.0369992  90.8644990  23.8439997
  96.2049992  91.3364990  23.8709997  97.5829992  91.3744990  23.2449997
  96.9968710  90.9980317  23.7667570 105.0149992  91.9044990  18.1689997
 104.3709992  91.2734990  18.4909997 105.7769992  91.3734990  17.9379997
 105.0298708  91.7463171  18.1818461 109.6189992  91.7214990  18.4029997
 109.9019992  90.9264990  18.8559997 110.3589992  91.9544990  17.8419997
 109.7577295  91.6442349  18.3891469 100.5859992  48.3354990  83.0239997
 100.2559992  47.9644990  82.2049997 101.1739992  47.6644990  83.3699997
 100.6204056  48.1941257  82.9589035 100.5739992  87.6304990  18.2609997
 100.6379992  86.8364990  18.7909997 101.2269992  87.5124990  17.5709997
 100.6710483  87.5057496  18.2403407 105.9259992  88.6774990  17.9969997
 105.6579992  88.8584990  18.8969997 105.7199992  87.7524990  17.8649997
 105.8613443  88.5771873  18.1026643 108.6229992  87.1724990  32.9439997
 109.3679992  87.7614990  32.8249997 107.8649992  87.7544990  33.0069997
 108.6225289  87.3317067  32.9362292  97.0649992  84.4874990  35.5479997
  97.4729992  83.6304990  35.4269997  96.8049992  84.5014990  36.4689997
  97.0857082  84.3720596  35.6559469 101.7229992  85.6034990  20.5669997
 101.2639992  85.1194990  21.2519997 101.9779992  84.9344990  19.9309997
 101.6945997  85.4468491  20.5748734 102.7939992  83.8464990  18.8289997
 102.6139992  83.6914990  17.9019997 103.7439992  83.9544990  18.8739997
 102.8977804  83.8398821  18.7081966 112.1839992  86.2004990  18.2749997
 111.9109992  85.7764990  17.4619997 112.2239992  87.1324990  18.0579997
 112.1520201  86.2683523  18.1343548 101.7639992  79.2204990  31.4979997
 102.2999992  79.6724990  30.8459997 100.9119992  79.1124990  31.0749997
 101.7221795  79.2677444  31.3516211 103.3459992  84.6604990  31.7369997
 104.0969992  84.5044990  31.1639997 103.0069992  85.5124990  31.4619997
 103.4029587  84.7543149  31.6214060 102.5699992  76.6774990  31.9289997
 102.4719992  77.6234990  31.8239997 101.8269992  76.3044990  31.4529997
 102.4562123  76.7566811  31.8503204 101.9529992  51.7634990  85.7049997
 101.8579992  51.1844990  84.9479997 102.6819992  51.3924990  86.2009997
 102.0386161  51.6340902  85.6685191 106.5499992  80.1264990  34.5679997
 105.6019992  80.1584990  34.6999997 106.8619992  79.5004990  35.2219997
 106.4625293  80.0462934  34.6744130 102.7919992  75.9714990  34.5999997
 103.5029992  75.3314990  34.5859997 102.6909992  76.2374990  33.6869997
 102.8756858  75.9198591  34.4745501 102.6919992  94.5364990  19.8299997
 103.6249992  94.6944990  19.9739997 102.4269992  95.2124990  19.2049997
 102.7839846  94.6494567  19.7652930  96.2599992  89.1734990  19.3129997
  97.1739992  89.2524990  19.5859997  96.2669992  88.4864990  18.6469997
  96.3860624  89.0914074  19.2603045  94.9089992  94.5664990  24.3899997
  94.2619992  94.1044990  23.8579997  95.2639992  93.8944990  24.9729997
  94.8683741  94.4124785  24.3959157  95.7789992  92.6464990  26.1949997
  95.4449992  91.7664990  26.3669997  96.0009992  92.9924990  27.0599997
  95.7632565  92.5727410  26.3354263 113.3279992  93.4564990  29.1759997
 113.3059992  93.6414990  30.1139997 114.0179992  94.0244990  28.8349997
 113.4183383  93.5587104  29.2584580 112.8909992  93.0234990  32.0969997
 112.4039992  92.2874990  31.7259997 113.4399992  92.6294990  32.7749997
 112.8986101  92.8696267  32.1379034 112.6429992  87.0694990  22.2499997
 113.4929992  87.4904990  22.3769997 112.6479992  86.3294990  22.8569997
 112.7601143  87.0271106  22.3494732 113.0369992  85.1234990  24.0729997
 112.3109992  84.6434990  24.4709997 113.6179992  85.3284990  24.8049997
 113.0162504  85.0855592  24.2264199 100.9529992  47.1034990  86.6569997
 101.5179992  47.2254990  85.8939997 101.2709992  47.7414990  87.2959997
 101.0733430  47.2064448  86.6389094 112.7959992  87.9084990  29.0209997
 113.6299992  87.5304990  28.7399997 112.9079992  88.8514990  28.9019997
 112.9251917  87.9842954  28.9664844 111.2819992  90.7864990  31.3279997
 110.6349992  91.1114990  31.9529997 110.7649992  90.3454990  30.6539997
 111.1234112  90.7714133  31.3225272 113.3049992  85.0244990  20.4639997
 112.7839992  85.3804990  19.7459997 113.2719992  85.6994990  21.1429997
 113.2290955  85.1645023  20.4572634 111.6539992  82.2634990  19.0149997
 111.7509992  82.9304990  18.3349997 111.5139992  81.4484990  18.5339997
 111.6483407  82.2445670  18.8568312 110.8239992  83.6444990  24.6359997
 110.6739992  82.6994990  24.6159997 110.4699992  83.9254990  25.4799997
 110.7556351  83.5531656  24.7473202  95.8589992  85.7224990  28.6469997
  96.0429992  85.6404990  27.7109997  96.7079992  85.5984990  29.0699997
  95.9990132  85.6945066  28.5761460 111.6799992  85.6144990  34.2749997
 112.2629992  84.8794990  34.4669997 112.2439992  86.3864990  34.3219997
 111.8359781  85.6183156  34.3076146 110.9019992  79.6714990  18.1329997
 111.5119992  79.3004990  18.7699997 110.0649992  79.2504990  18.3289997
 110.8723704  79.5637942  18.2467077 110.5339992  81.2264990  23.0989997
 110.8139992  80.3194990  23.2229997 111.2929992  81.6604990  22.7099997
 110.6749258  81.1610935  23.0633691 111.1459992  81.8084990  28.5349997
 112.0789992  82.0204990  28.4999997 110.9109992  81.9094990  29.4569997
 111.2419517  81.8511844  28.6549113 107.2619992  52.6074990  87.3909997
 107.0209992  53.2694990  88.0389997 107.0639992  51.7724990  87.8159997
 107.2022662  52.5852704  87.5371008 111.1749992  82.5454990  31.3109997
 110.3319992  82.8134990  31.6759997 111.6179992  83.3674990  31.0999997
 111.1194035  82.6933351  31.3324770  95.4559992  80.9924990  34.7869997
  96.3759992  80.8704990  35.0239997  95.0069992  80.2424990  35.1769997
  95.5210500  80.8744576  34.8721016 111.1479992  78.4894990  23.1469997
 111.3299992  78.0404990  23.9719997 110.5479992  77.9054990  22.6829997
 111.0918187  78.3490563  23.1972721  96.6779992  79.3054990  27.6789997
  97.1229992  78.5134990  27.9809997  97.1439992  80.0214990  28.1089997
  96.8019718  79.2939546  27.7785247  94.9819992  82.3044990  28.7479997
  95.4739992  82.0834990  27.9569997  95.3439992  83.1444990  29.0289997
  95.0982923  82.3878480  28.6777389 112.9779992  78.6344990  35.0129997
 112.0609992  78.9054990  34.9769997 113.1009992  78.0994990  34.2289997
 112.8690828  78.5992711  34.9020767 113.0139992  78.5574990  19.6749997
 113.4269992  77.8364990  19.1999997 113.6959992  79.2264990  19.7329997
 113.1626060  78.5493741  19.6179233  95.2949992  78.5624990  22.8019997
  94.3699992  78.7704990  22.6729997  95.7489992  79.0464990  22.1119997
  95.2296298  78.6564311  22.6910433 110.0659992  93.5464990  24.7479997
 110.7179992  93.1984990  24.1399997 110.5769992  94.0344990  25.3939997
 110.2242872  93.5648248  24.7520964  95.2589992  77.3004990  31.1459997
  94.5939992  77.0544990  31.7889997  94.8159992  77.9224990  30.5689997
  95.1081168  77.3509225  31.1559830 101.8329992  51.5034990  91.3739997
 101.5209992  52.2854990  91.8299997 101.1829992  51.3504990  90.6879997
 101.7024643  51.5898019  91.3436657 100.4049992  91.4494990  31.5489997
  99.9799992  92.2594990  31.2669997 101.3089992  91.5354990  31.2469997
 100.4690706  91.5719557  31.4695836 111.9789992  76.7244990  32.8319997
 111.1659992  77.0494990  32.4449997 112.2119992  75.9634990  32.2989997
 111.8991347  76.6661891  32.7069824  97.8069992  94.7064990  31.5969997
  97.0859992  95.1464990  31.1459997  97.4409992  94.4554990  32.4449997
  97.6589632  94.7327235  31.6499649 100.2739992  94.3064990  30.6259997
  99.4089992  94.3784990  31.0299997 100.2189992  94.8534990  29.8429997
 100.1482289  94.3903242  30.5753749 104.9849992  94.1944990  29.8019997
 104.5279992  94.7234990  29.1479997 105.1469992  94.7974990  30.5269997
 104.9443919  94.3483990  29.8105740 107.3119992  93.0724990  30.7469997
 106.4079992  93.2374990  30.4809997 107.7409992  93.9254990  30.6809997
 107.2462017  93.2104184  30.7016495 109.9159992  94.6424990  31.0419997
 109.7349992  95.5584990  30.8309997 110.0929992  94.2314990  30.1949997
 109.9151377  94.7123365  30.8987178  97.2219992  93.3294990  28.5069997
  97.2029992  92.9034990  29.3639997  98.0259992  93.0104990  28.0979997
  97.3281393  93.2280297  28.5690155  99.3629992  92.0394990  27.1619997
  99.1439992  91.1224990  27.3319997 100.1869992  92.1794990  27.6279997
  99.4444702  91.9330523  27.2482510 101.8999992  92.5094990  28.0109997
 102.1129992  91.6214990  27.7239997 101.9649992  92.4744990  28.9649997
 101.9379149  92.3833338  28.1007351 107.8119992  46.8674990  78.8259997
 108.3909992  47.0174990  79.5729997 108.2259992  47.3374990  78.1029997
 107.9473122  46.9516288  78.8305024 105.4089992  78.1734990  27.1549997
 104.7339992  77.5434990  27.4109997 105.9729992  77.6894990  26.5519997
 105.3929363  78.0218886  27.1084810 110.5509992  76.2804990  27.2679997
 111.1549992  76.8284990  26.7659997 109.6819992  76.5994990  27.0269997
 110.5160419  76.3985628  27.1667741 112.2779992  77.4194990  25.6009997
 112.8899992  76.9054990  25.0739997 112.6609992  78.2964990  25.6239997
 112.4133867  77.4677613  25.5320888  97.7349992  76.8074990  24.9769997
  96.9579992  76.5724990  24.4699997  98.2659992  76.0104990  24.9859997
  97.7003735  76.6676462  24.9088090  96.5719992  76.6054990  20.7809997
  97.0109992  77.2164990  20.1889997  95.9379992  77.1434990  21.2549997
  96.5463859  76.7619076  20.7640287 102.3149992  76.7334990  24.7899997
 103.1889992  77.1224990  24.7609997 102.1789992  76.5184990  25.7129997
 102.4161953  76.7576654  24.9107599 107.8709992  76.7634990  26.4399997
 107.9479992  76.8594990  25.4899997 107.5959992  75.8564990  26.5679997
 107.8443233  76.6539093  26.3273665 109.2249992  76.7894990  22.1319997
 108.5219992  77.4044990  21.9219997 108.7799992  75.9524990  22.2629997
 109.0686550  76.7604679  22.1209819  96.4729992  92.5534990  21.6779997
  95.7879992  92.5154990  21.0109997  96.4759992  93.4654990  21.9659997
  96.3796806  92.6716669  21.6256961  98.4329992  78.5214990  19.2229997
  98.9239992  77.8914990  18.6959997  99.0559992  78.8174990  19.8859997
  98.5845304  78.4752387  19.2404922  98.7529992  47.7014990  90.6029997
  98.8229992  48.3524990  91.3009997  97.8619992  47.8044990  90.2679997
  98.6421802  47.8044769  90.6532231 103.4589992  78.8144990  21.6799997
 103.6369992  78.1674990  22.3629997 103.4049992  79.6484990  22.1469997
 103.4760678  78.8386615  21.8366283 105.3369992  93.7624990  20.0759997
 106.2029992  94.1294990  19.8979997 105.0899992  93.3234990  19.2619997
 105.4221853  93.7534021  19.9415813 112.0459992  93.3254990  22.7549997
 111.8519992  92.5774990  22.1899997 112.0069992  94.0834990  22.1719997
 112.0141645  93.3255797  22.5988131  97.6929992  77.3214990  34.4949997
  97.3269992  76.5554990  34.9369997  98.6059992  77.3504990  34.7809997
  97.7663172  77.2205335  34.5941872  98.2909992  93.4734990  18.7029997
  98.0229992  93.7594990  19.5769997  99.0619992  92.9274990  18.8559997
  98.3585926  93.4387790  18.8431188 111.2639992  92.0764990  34.9049997
 110.4819992  91.8904990  34.3849997 111.1919992  93.0064990  35.1219997
 111.1472975  92.1766973  34.8631822 125.6699992  85.9634990  24.9359997
 125.7589992  86.9074990  24.8029997 125.0309992  85.6884990  24.2779997
 125.5958378  86.0553846  24.8289258 124.6029992  85.2184990  28.3549997
 124.5639992  84.5724990  29.0599997 124.2799992  84.7514990  27.5829997
 124.5540469  85.0670005  28.3472803 116.9709992  84.8324990  29.9479997
 117.0119992  84.2074990  30.6709997 117.6739992  85.4564990  30.1299997
 117.0716223  84.8312318  30.0716164 128.3089992  88.1574990  26.6559997
 127.8679992  87.4374990  27.1069997 128.2959992  88.8784990  27.2859997
 128.2469215  88.1564303  26.8028088 105.5379992  53.6034990  82.2619997
 106.0119992  53.8994990  83.0389997 104.9749992  54.3424990  82.0279997
 105.5268460  53.7438336  82.3367626 117.8949992  89.2824990  28.4829997
 117.5249992  88.4804990  28.1129997 118.8359992  89.1144990  28.5289997
 117.9715984  89.1499649  28.4385586 114.5049992  82.9424990  23.8749997
 114.0569992  83.7884990  23.8569997 113.9439992  82.3634990  23.3599997
 114.3678546  82.9799004  23.8028874 115.2149992  85.1044990  26.0009997
 115.4289992  84.3344990  26.5279997 115.9529992  85.1944990  25.3979997
 115.3440073  85.0113546  25.9915786 125.4199992  93.2614990  26.8679997
 126.0399992  92.5854990  26.5949997 125.2119992  93.0434990  27.7769997
 125.4767679  93.1395032  26.9534518 122.9919992  87.6504990  28.7609997
 123.2959992  86.9644990  28.1659997 123.7139992  87.7694990  29.3789997
 123.1311240  87.5727325  28.7630941 131.6549992  79.2524990  29.6209997
 131.7039992  79.8624990  30.3569997 132.0809992  79.7134990  28.8979997
 131.7192851  79.3983266  29.6240532 126.1329992  82.0444990  29.0879997
 126.2749992  81.0984990  29.1079997 126.0269992  82.2514990  28.1599997
 126.1381051  81.9429706  28.9652249 119.2879992  80.1464990  26.3609997
 119.3309992  81.0064990  25.9419997 118.8299992  79.5934990  25.7269997
 119.2320163  80.1894174  26.2180604 127.0099992  80.2774990  24.7609997
 127.6559992  79.9484990  25.3859997 127.5199992  80.7944990  24.1389997
 127.1674289  80.3024333  24.7623681 115.9079992  82.5434990  27.1229997
 116.5619992  81.9934990  27.5549997 115.9319992  82.2694990  26.2059997
 116.0007199  82.4312178  27.0581650 100.0719992  53.5744990  92.1379997
 100.0799992  53.4384990  91.1899997  99.1559992  53.4574990  92.3899997
  99.9492512  53.5400663  92.0423179 121.0639992  84.0934990  26.3379997
 121.6799992  83.5664990  26.8469997 120.4779992  83.4534990  25.9339997
 121.0690652  83.9348919  26.3530277 132.0469992  80.7304990  31.8569997
 131.3579992  81.3884990  31.7619997 132.0619992  80.5324990  32.7939997
 131.9547756  80.7937614  31.9705795 118.0979992  79.0644990  30.4349997
 117.8789992  79.5944990  29.6679997 117.4299992  79.2904990  31.0819997
 117.9776975  79.1675979  30.4175123 125.4669992  88.5644990  23.9789997
 125.1709992  88.2414990  23.1269997 125.1429992  89.4644990  24.0199997
 125.3827458  88.6419678  23.8680598 120.6669992  86.7394990  30.7219997
 119.9269992  87.3384990  30.8259997 121.3809992  87.2934990  30.4059997
 120.6623146  86.8962611  30.6935150 128.7739992  79.5684990  26.7419997
 128.5589992  78.8024990  27.2749997 129.4299992  80.0404990  27.2549997
 128.8332673  79.5275739  26.8841972 117.6919992  80.9564990  28.3869997
 118.3049992  81.5894990  28.7599997 118.2039992  80.4844990  27.7309997
 117.8451933  80.9793380  28.3493477 119.0739992  88.7044990  31.5089997
 119.0689992  89.5834990  31.1309997 118.2209992  88.6204990  31.9339997
 118.9579199  88.8135901  31.5146942 115.1959992  88.3754990  22.2909997
 114.9239992  88.6044990  21.4019997 115.2409992  89.2124990  22.7519997
 115.1648360  88.5201034  22.2316186 128.8209992  89.9964990  29.0039997
 127.8789992  90.0554990  29.1659997 129.0969992  90.9024990  28.8669997
 128.7295865  90.1270299  29.0076174 111.5099992  38.6174990  78.6389997
 110.6099992  38.7554990  78.9339997 111.7619992  39.4484990  78.2369997
 111.4207355  38.7488200  78.6250539 129.1209992  78.2834990  30.4209997
 128.3849992  78.8934990  30.3839997 129.8049992  78.6984990  29.8949997
 129.1125367  78.4232562  30.3448156 122.1239992  76.3694990  27.8869997
 122.0069992  75.4214990  27.8329997 121.2689992  76.7024990  28.1599997
 121.9923691  76.2845842  27.9165072 127.0729992  91.7774990  25.6289997
 127.4979992  91.0704990  25.1439997 127.3899992  92.5794990  25.2119997
 127.1740266  91.7890201  25.5062461 128.2319992  89.6784990  24.1379997
 127.9749992  88.9884990  23.5259997 128.3029992  89.2354990  24.9829997
 128.2064322  89.5241568  24.1685372 129.9179992  88.2454990  32.6149997
 130.0579992  87.6534990  31.8759997 130.0859992  89.1184990  32.2589997
 129.9598734  88.2824041  32.4656937 124.3909992  85.2074990  22.3879997
 123.6789992  85.7424990  22.0359997 125.0819992  85.2624990  21.7279997
 124.3869704  85.2881663  22.2505797 124.4449992  83.6644990  19.4259997
 125.1459992  83.6874990  20.0779997 124.7469992  83.0364990  18.7699997
 124.5818202  83.5827223  19.4265591 131.7599992  84.5854990  30.6809997
 131.1079992  85.2794990  30.7699997 132.2249992  84.7954990  29.8709997
 131.7335357  84.7089544  30.5837056 127.7969992  85.4164990  23.3389997
 127.0649992  85.6454990  23.9119997 128.2439992  84.7034990  23.7939997
 127.7572753  85.3513984  23.4789698 127.6939992  83.5914990  32.4069997
 127.7739992  84.3544990  32.9789997 127.0929992  83.8704990  31.7169997
 127.6236547  83.7337468  32.3920029  99.5759992  47.4044990  80.6129997
  99.2839992  48.1724990  80.1219997  98.9019992  46.7454990  80.4499997
  99.4448843  47.4204537  80.5237695 119.4419992  86.0474990  25.2219997
 119.1119992  85.6764990  24.4039997 120.0299992  85.3764990  25.5689997
 119.4763182  85.9060648  25.1569898 120.8089992  89.4754990  27.9029997
 120.7139992  88.8964990  27.1469997 121.5379992  89.1044990  28.3989997
 120.8946011  89.3460572  27.8666011 119.8089992  84.8154990  28.8549997
 120.3739992  84.9374990  28.0929997 120.1269992  85.4534990  29.4939997
 119.9293619  84.9184388  28.8370019 126.1179992  90.3194990  29.5889997
 125.8769992  90.9814990  30.2369997 125.9199992  89.4844990  30.0139997
 126.0582662  90.2972704  29.7351008 120.6889992  89.2154990  33.5729997
 120.3769992  89.9974990  34.0279997 120.0389992  89.0624990  32.8869997
 120.5584858  89.3017882  33.5425344 126.6679992  84.5794990  21.0249997
 127.2469992  84.7294990  21.7709997 127.0819992  85.0494990  20.3009997
 126.8033358  84.6635966  21.0293935 124.3939992  91.3154990  24.4599997
 124.8679992  91.6114990  25.2369997 123.8309992  92.0544990  24.2269997
 124.3827890  91.4558047  24.5348084 118.9279992  91.2864990  34.3359997
 118.9359992  91.1504990  33.3889997 118.0119992  91.1694990  34.5879997
 118.8052528  91.2520475  34.2403226 130.3659992  76.3294990  20.8369997
 129.4659992  76.4674990  21.1329997 130.6179992  77.1604990  20.4359997
 130.2767727  76.4608705  20.8232935 118.4319992  85.1164990  22.8109997
 118.1399992  85.8844990  22.3199997 117.7579992  84.4574990  22.6479997
 118.3008843  85.1324537  22.7217695 112.6999992  52.9834990  77.0159997
 112.7729992  53.9224990  77.1859997 113.6049992  52.6784990  76.9589997
 112.8324168  53.0708531  77.0315736 131.5559992  90.6954990  19.2139997
 131.6289992  91.6344990  19.3839997 132.4609992  90.3904990  19.1579997
 131.6884170  90.7828294  19.2297045 114.5249992  87.4794990  31.6259997
 114.0239992  87.4514990  30.8109997 114.5309992  86.5744990  31.9359997
 114.4571690  87.3532234  31.5562770 114.2759992  90.2604990  28.5099997
 115.2219992  90.1154990  28.4909997 114.1629992  91.0444990  29.0469997
 114.3903578  90.3466708  28.5800300 123.4519992  90.5004990  33.0689997
 123.5389992  91.3264990  33.5439997 122.5879992  90.1704990  33.3179997
 123.3471944  90.5689871  33.1676558 123.8659992  94.2724990  22.8749997
 123.7909992  94.1514990  21.9279997 123.8989992  95.2214990  22.9929997
 123.8602083  94.3842639  22.7614973 117.5199992  93.0614990  24.6559997
 117.6719992  92.7134990  25.5339997 116.6689992  92.7044990  24.3999997
 117.4258344  92.9655891  24.7416851 126.9679992  93.4264990  19.8769997
 127.3429992  92.6824990  19.4059997 126.9719992  93.1564990  20.7949997
 127.0198969  93.2880920  19.9366475 126.6369992  93.3524990  22.6259997
 125.7019992  93.4524990  22.8049997 126.9169992  92.6424990  23.2049997
 126.5469471  93.2702944  22.7286678 129.6249992  82.4194990  34.6729997
 129.2179992  82.8994990  33.9519997 129.6659992  81.5134990  34.3649997
 129.5748403  82.3627989  34.5327253 119.3929992  77.2734990  28.6649997
 118.5309992  77.1864990  28.2569997 119.3709992  78.1294990  29.0929997
 119.2720557  77.3773078  28.6670202  95.6689992  49.7674990  89.4279997
  95.1679992  49.7394990  88.6129997  95.6749992  48.8624990  89.7379997
  95.6011690  49.6412234  89.3582770 124.0559992  76.9954990  32.0399997
 124.4759992  76.5804990  32.7929997 123.1229992  76.8164990  32.1569997
 123.9873736  76.9144921  32.1588950 127.3819992  80.7504990  32.8929997
 126.8679992  80.6254990  33.6909997 127.2269992  81.6634990  32.6489997
 127.2907802  80.8567433  32.9691504 128.1449992  85.6114990  18.6539997
 128.1869992  85.3894990  17.7239997 128.9939992  86.0104990  18.8439997
 128.2655253  85.6350510  18.5523804 123.7179992  79.4874990  19.3249997
 123.4639992  79.5064990  20.2469997 123.4609992  78.6164990  19.0229997
 123.6484508  79.3723292  19.4104786 119.4839992  82.2384990  29.7599997
 118.8419992  82.1984990  30.4689997 119.5209992  83.1654990  29.5219997
 119.4011659  82.3582540  29.8248463 119.4809992  82.4594990  24.6719997
 118.5879992  82.1194990  24.6129997 119.9319992  82.0824990  23.9159997
 119.4197185  82.3620220  24.5617698 125.0169992  82.8754990  23.4889997
 124.6079992  83.6904990  23.1969997 125.7369992  82.7354990  22.8749997
 125.0584439  82.9680383  23.3660098 126.0209992  82.3214990  26.3029997
 125.8259992  82.9274990  25.5879997 126.2029992  81.4884990  25.8689997
 126.0189195  82.2917936  26.1464079 117.2339992  82.5594990  31.6269997
 117.1959992  82.9594990  32.4959997 116.7429992  81.7424990  31.7169997
 117.1624374  82.5038228  31.7580980 120.5999992  79.9334990  18.4259997
 120.1689992  79.4884990  19.1549997 119.8819992  80.3044990  17.9129997
 120.4439176  79.9227063  18.4564913  95.4199992  52.5484990  86.3119997
  96.3659992  52.4034990  86.2929997  95.3069992  53.3324990  86.8489997
  95.5343578  52.6346708  86.3820300 113.8419992  79.6754990  25.4779997
 114.4729992  79.6464990  26.1969997 114.2919992  79.2504990  24.7469997
 113.9891082  79.6141269  25.4776307 115.1159992  80.4214990  20.9019997
 115.5909992  81.0124990  20.3169997 114.3989992  80.9514990  21.2489997
 115.0840406  80.5741011  20.8688495 125.2849992  83.9594990  30.9739997
 125.6089992  83.3284990  30.3309997 124.8449992  83.4254990  31.6349997
 125.2698707  83.8008261  30.9753195 122.0629992  79.8874990  25.7579997
 121.1519992  79.9444990  26.0469997 122.5679992  79.8274990  26.5689997
 122.0066873  79.8871838  25.9071190 116.8909992  81.5164990  24.5849997
 116.0019992  81.6154990  24.2449997 117.1869992  80.6744990  24.2389997
 116.8094001  81.4162473  24.4917318 120.5439992  81.5164990  22.2419997
 121.4759992  81.6454990  22.4199997 120.3289992  82.1854990  21.5919997
 120.6424472  81.6245817  22.1784873 126.4679992  79.1224990  29.0219997
 125.7909992  79.2534990  29.6859997 125.9819992  78.9674990  28.2119997
 126.3097265  79.1194665  29.0033380 119.2179992  82.7104990  19.8079997
 118.6759992  82.3314990  19.1169997 120.0519992  82.9054990  19.3799997
 119.2564390  82.6849091  19.6554374 123.3829992  82.6744990  27.6449997
 123.9469992  82.1284990  27.0979997 123.2349992  82.1534990  28.4339997
 123.4403037  82.5291798  27.6767212 118.3849992  78.8114990  24.0639997
 118.0669992  77.9084990  24.0279997 119.1659992  78.8134990  23.5109997
 118.4471079  78.6882240  23.9842908 113.6169992  53.2144990  91.9939997
 113.5679992  52.2584990  91.9569997 112.7909992  53.4814990  92.3959997
 113.4985767  53.1198841  92.0433133 122.0089992  81.0634990  30.0589997
 121.1739992  81.5174990  30.1699997 122.5329992  81.3394990  30.8109997
 121.9656072  81.1628960  30.1758118 122.5529992  87.2764990  21.7439997
 121.8079992  86.7684990  21.4219997 122.4189992  87.3254990  22.6899997
 122.4329334  87.2136144  21.8278892 129.7029992  86.4094990  30.5309997
 130.3449992  86.8654990  29.9869997 128.8729992  86.5224990  30.0679997
 129.6786536  86.4871813  30.3939579 126.4509992  80.0904990  19.9429997
 125.5119992  80.2014990  19.7919997 126.7479992  80.9464990  20.2499997
 126.3626136  80.2214977  19.9638568 124.0729992  87.4604990  32.9809997
 123.7269992  87.0784990  33.7879997 123.8729992  88.3934990  33.0519997
 123.9985987  87.5344013  33.1010443 127.1689992  81.9574990  21.6039997
 128.0609992  81.8194990  21.9229997 127.2259992  82.7484990  21.0669997
 127.2987380  82.0454777  21.5750981 117.6779992  86.5714990  27.5139997
 118.4229992  86.5684990  26.9119997 117.7559992  85.7474990  27.9949997
 117.7903365  86.4597395  27.4967412 124.6789992  88.7344990  20.7689997
 124.3839992  89.5614990  21.1509997 123.9759992  88.1154990  20.9659997
 124.5436379  88.7639182  20.8478636 114.6859992  85.0314990  32.8289997
 114.9089992  84.6134990  33.6599997 114.0839992  84.4194990  32.4059997
 114.6351513  84.8914617  32.8856722 126.3229992  89.9224990  32.9309997
 125.4219992  90.1054990  32.6639997 126.3569992  90.1814990  33.8519997
 126.2043861  89.9825245  33.0189517 104.5959992  52.7884990  90.8699997
 104.6829992  53.6144990  91.3449997 103.7319992  52.4584990  91.1189997
 104.4911944  52.8569871  90.9686558 132.0539992  82.1664990  21.2989997
 131.4999992  81.7704990  20.6259997 132.1549992  83.0774990  21.0209997
 131.9918589  82.2353904  21.1693839 130.3489992  90.9524990  21.7639997
 129.9769992  90.1274990  22.0729997 130.6269992  90.7694990  20.8659997
 130.3355807  90.8147031  21.6850063 127.5099992  85.7604990  28.7849997
 126.5819992  85.5294990  28.7579997 127.9609992  84.9834990  28.4549997
 127.4438165  85.6237785  28.7366772 120.0529992  90.0894990  24.9179997
 120.5799992  90.8624990  24.7179997 119.1729992  90.3134990  24.6159997
 120.0062121  90.2257344  24.8497460 115.8079992  84.9514990  19.5049997
 116.4239992  85.5784990  19.8849997 114.9459992  85.2674990  19.7769997
 115.7757678  85.0799423  19.5937192 121.4799992  87.7524990  24.4939997
 121.2389992  88.6774990  24.5359997 120.7399992  87.2934990  24.8909997
 121.3469463  87.8170969  24.5534279 121.9949992  91.9014990  30.8089997
 122.3579992  92.7554990  30.5759997 122.5269992  91.6094990  31.5499997
 122.1165141  91.9788907  30.8772079 120.1629992  92.7734990  24.0399997
 119.2139992  92.8794990  24.0909997 120.5149992  93.5944990  24.3839997
 120.0805647  92.8990029  24.0934882 125.5389992  88.0004990  30.5099997
 125.1129992  87.7724990  31.3359997 126.1199992  87.2614990  30.3279997
 125.5592088  87.8694393  30.5984454 127.7419992  88.9294990  19.5839997
 128.0949992  88.5494990  20.3879997 126.7929992  88.8354990  19.6709997
 127.6620956  88.8647867  19.7058005 105.0099992  56.5604990  80.6759997
 104.9349992  56.4394990  79.7299997 105.0429992  57.5094990  80.7949997
 105.0041862  56.6722492  80.5624840 128.1979992  92.5524990  32.9789997
 127.5959992  91.9964990  32.4839997 128.4789992  93.2194990  32.3529997
 128.1535757  92.5665755  32.8265657 132.2449992  93.4084990  19.7849997
 132.9889992  93.9944990  19.6449997 131.5509992  93.9774990  20.1179997
 132.2529809  93.5655830  19.8108572 116.3199992  79.7854990  32.3869997
 115.4269992  80.1234990  32.3189997 116.2209992  78.9294990  32.8049997
 116.1844752  79.7160986  32.4341644 128.6079992  87.6014990  21.8109997
 128.3309992  86.8734990  22.3669997 129.5349992  87.7204990  22.0159997
 128.6954419  87.5179436  21.9148264 115.9709992  91.5894990  30.8219997
 116.1879992  90.6574990  30.7909997 116.2179992  91.8644990  31.7049997
 116.0340948  91.4990976  30.9371268 121.8329992  90.0414990  18.0309997
 122.0719992  89.2924990  17.4839997 121.5639992  89.6534990  18.8639997
 121.8293233  89.8866865  18.0687791 120.7699992  89.6114990  20.4869997
 120.9169992  89.0914990  21.2769997 120.7669992  90.5184990  20.7939997
 120.7897102  89.6628964  20.6365907 117.2229992  86.8634990  20.9979997
 116.5369992  87.2164990  21.5649997 117.7459992  87.6264990  20.7509997
 117.1998402  87.0148912  21.0421783 125.0539992  79.5264990  31.2769997
 125.7529992  79.6004990  31.9269997 124.6739992  78.6614990  31.4309997
 125.0982662  79.4197050  31.3867412 125.8389992  79.1784990  22.3739997
 126.0589992  79.6494990  21.5699997 126.3969992  79.5724990  23.0439997
 125.9446044  79.2962946  22.3545207  98.6639992  55.3494990  82.4569997
  98.8159992  55.0014990  83.3359997  97.8129992  54.9924990  82.2019997
  98.5697899  55.2536749  82.5427322 123.5079992  91.3084990  21.2369997
 122.6909992  91.8054990  21.2889997 124.0369992  91.7844990  20.5959997
 123.4678125  91.4407000  21.1575289 123.0389992  80.9064990  23.2089997
 123.8509992  81.4104990  23.2549997 122.7939992  80.7614990  24.1229997
 123.1171091  80.9559366  23.3388552 123.5749992  81.8924990  32.3929997
 123.6939992  82.4664990  33.1499997 124.2299992  81.2044990  32.5079997
 123.6798684  81.8780205  32.5121656 123.9229992  77.9874990  24.1469997
 123.5759992  78.6044990  24.7909997 124.5809992  78.4884990  23.6649997
 123.9644430  78.1396860  24.1700046 120.8459992  92.3524990  21.2179997
 121.0069992  93.1524990  20.7179997 120.6489992  92.6594990  22.1029997
 120.8413906  92.5033690  21.2692316 119.5799992  79.0504990  20.8339997
 119.4969992  79.9384990  21.1809997 120.4699992  78.7854990  21.0659997
 119.6889331  79.1361177  20.9128067 129.7789992  79.7994990  33.2279997
 128.8629992  80.0614990  33.1409997 130.1149992  79.7964990  32.3319997
 129.6988499  79.8350174  33.0948748 128.3809992  83.5494990  27.3239997
 127.5839992  83.1344990  26.9959997 128.8259992  82.8594990  27.8149997
 128.3320367  83.3993372  27.3454897 117.8389992  89.4774990  19.8939997
 118.4309992  90.1774990  20.1709997 118.2979992  89.0444990  19.1749997
 117.9821652  89.5147686  19.8346515 116.1549992  82.1424990  19.0099997
 116.1099992  83.0814990  19.1889997 115.2669992  81.9064990  18.7409997
 116.0288166  82.2391698  18.9981507 108.1119992  55.7144990  77.6789997
 108.4869992  54.9704990  77.2079997 108.1159992  55.4444990  78.5969997
 108.1638969  55.5760920  77.7386475 129.4679992  92.8054990  28.9459997
 129.3119992  93.4844990  28.2889997 130.3999992  92.8774990  29.1489997
 129.5727328  92.9081586  28.8835529 116.9629992  76.9234990  27.6829997
 116.7339992  76.9824990  26.7559997 116.5199992  76.1324990  27.9899997
 116.8717387  76.8246412  27.5975223 115.8929992  90.8644990  23.8439997
 115.0609992  91.3364990  23.8709997 116.4389992  91.3744990  23.2449997
 115.8528710  90.9980317  23.7667570 115.1819992  93.4764990  35.1739997
 115.7219992  93.2604990  35.9339997 114.6999992  92.6714990  34.9839997
 115.1908485  93.3380463  35.2524870 123.8709992  91.9044990  18.1689997
 123.2269992  91.2734990  18.4909997 124.6329992  91.3734990  17.9379997
 123.8858708  91.7463171  18.1818462 128.4749992  91.7214990  18.4029997
 128.7579992  90.9264990  18.8559997 129.2149992  91.9544990  17.8419997
 128.6137295  91.6442349  18.3891469 119.4299992  87.6304990  18.2609997
 119.4939992  86.8364990  18.7909997 120.0829992  87.5124990  17.5709997
 119.5270483  87.5057496  18.2403407 124.7819992  88.6774990  17.9969997
 124.5139992  88.8584990  18.8969997 124.5759992  87.7524990  17.8649997
 124.7173443  88.5771873  18.1026643 127.4789992  87.1724990  32.9439997
 128.2239992  87.7614990  32.8249997 126.7209992  87.7544990  33.0069997
 127.4785289  87.3317067  32.9362292 120.5789992  85.6034990  20.5669997
 120.1199992  85.1194990  21.2519997 120.8339992  84.9344990  19.9309997
 120.5505997  85.4468491  20.5748734 107.7809992  55.6404990  80.4279997
 106.8459992  55.7404990  80.6069997 108.0609992  54.9304990  81.0059997
 107.6909270  55.5582300  80.5305984 119.8679992  83.4964990  32.9229997
 119.2499992  84.1704990  33.2029997 120.2119992  83.8174990  32.0889997
 119.8298078  83.6322298  32.8486609 121.6499992  83.8464990  18.8289997
 121.4699992  83.6914990  17.9019997 122.5999992  83.9544990  18.8739997
 121.7537804  83.8398821  18.7081966 131.0399992  86.2004990  18.2749997
 130.7669992  85.7764990  17.4619997 131.0799992  87.1324990  18.0579997
 131.0080201  86.2683523  18.1343548 120.2079992  80.8514990  34.0049997
 120.3579992  80.1224990  33.4029997 120.2099992  81.6284990  33.4459997
 120.2287967  80.8567720  33.8470523 120.6199992  79.2204990  31.4979997
 121.1559992  79.6724990  30.8459997 119.7679992  79.1124990  31.0749997
 120.5781795  79.2677444  31.3516211 122.2019992  84.6604990  31.7369997
 122.9529992  84.5044990  31.1639997 121.8629992  85.5124990  31.4619997
 122.2589587  84.7543149  31.6214060 121.4259992  76.6774990  31.9289997
 121.3279992  77.6234990  31.8239997 120.6829992  76.3044990  31.4529997
 121.3122123  76.7566811  31.8503204 122.6899992  80.9984990  35.4929997
 122.4539992  80.7794990  36.3939997 121.9069992  80.7914990  34.9829997
 122.5518382  80.9405340  35.5473991 121.5479992  94.5364990  19.8299997
 122.4809992  94.6944990  19.9739997 121.2829992  95.2124990  19.2049997
 121.6399846  94.6494567  19.7652930 115.1159992  89.1734990  19.3129997
 116.0299992  89.2524990  19.5859997 115.1229992  88.4864990  18.6469997
 115.2420624  89.0914074  19.2603045 110.7689992  44.7074990  92.4739997
 110.3619992  45.1874990  91.7539997 110.8099992  43.8014990  92.1669997
 110.7187178  44.6508609  92.3337441 113.7649992  94.5664990  24.3899997
 113.1179992  94.1044990  23.8579997 114.1199992  93.8944990  24.9729997
 113.7243741  94.4124785  24.3959157 114.6349992  92.6464990  26.1949997
 114.3009992  91.7664990  26.3669997 114.8569992  92.9924990  27.0599997
 114.6192565  92.5727410  26.3354263 132.1839992  93.4564990  29.1759997
 132.1619992  93.6414990  30.1139997 132.8739992  94.0244990  28.8349997
 132.2743383  93.5587104  29.2584580 131.7469992  93.0234990  32.0969997
 131.2599992  92.2874990  31.7259997 132.2959992  92.6294990  32.7749997
 131.7546101  92.8696267  32.1379034 131.4989992  87.0694990  22.2499997
 132.3489992  87.4904990  22.3769997 131.5039992  86.3294990  22.8569997
 131.6161143  87.0271106  22.3494732 131.8929992  85.1234990  24.0729997
 131.1669992  84.6434990  24.4709997 132.4739992  85.3284990  24.8049997
 131.8722504  85.0855592  24.2264199 131.6519992  87.9084990  29.0209997
 132.4859992  87.5304990  28.7399997 131.7639992  88.8514990  28.9019997
 131.7811917  87.9842954  28.9664844 130.1379992  90.7864990  31.3279997
 129.4909992  91.1114990  31.9529997 129.6209992  90.3454990  30.6539997
 129.9794112  90.7714133  31.3225272 132.1609992  85.0244990  20.4639997
 131.6399992  85.3804990  19.7459997 132.1279992  85.6994990  21.1429997
 132.0850955  85.1645023  20.4572634 130.5099992  82.2634990  19.0149997
 130.6069992  82.9304990  18.3349997 130.3699992  81.4484990  18.5339997
 130.5043407  82.2445670  18.8568312  97.9179992  51.0914990  90.4709997
  98.1339992  50.7294990  91.3309997  97.0629992  50.7164990  90.2609997
  97.8319349  50.9912914  90.5602134 129.6799992  83.6444990  24.6359997
 129.5299992  82.6994990  24.6159997 129.3259992  83.9254990  25.4799997
 129.6116351  83.5531656  24.7473202 114.7149992  85.7224990  28.6469997
 114.8989992  85.6404990  27.7109997 115.5639992  85.5984990  29.0699997
 114.8550132  85.6945066  28.5761460 130.5359992  85.6144990  34.2749997
 131.1189992  84.8794990  34.4669997 131.0999992  86.3864990  34.3219997
 130.6919781  85.6183156  34.3076146 129.7579992  79.6714990  18.1329997
 130.3679992  79.3004990  18.7699997 128.9209992  79.2504990  18.3289997
 129.7283704  79.5637942  18.2467077 129.3899992  81.2264990  23.0989997
 129.6699992  80.3194990  23.2229997 130.1489992  81.6604990  22.7099997
 129.5309258  81.1610935  23.0633691 130.0019992  81.8084990  28.5349997
 130.9349992  82.0204990  28.4999997 129.7669992  81.9094990  29.4569997
 130.0979517  81.8511844  28.6549113 130.0309992  82.5454990  31.3109997
 129.1879992  82.8134990  31.6759997 130.4739992  83.3674990  31.0999997
 129.9754035  82.6933351  31.3324770 130.0039992  78.4894990  23.1469997
 130.1859992  78.0404990  23.9719997 129.4039992  77.9054990  22.6829997
 129.9478187  78.3490563  23.1972721 115.5339992  79.3054990  27.6789997
 115.9789992  78.5134990  27.9809997 115.9999992  80.0214990  28.1089997
 115.6579718  79.2939546  27.7785247 113.8379992  82.3044990  28.7479997
 114.3299992  82.0834990  27.9569997 114.1999992  83.1444990  29.0289997
 113.9542923  82.3878480  28.6777389 100.5369992  39.5614990  86.4669997
  99.6749992  39.4744990  86.0589997 100.5149992  40.4174990  86.8939997
 100.4160953  39.6653558  86.4689262 131.8699992  78.5574990  19.6749997
 132.2829992  77.8364990  19.1999997 132.5519992  79.2264990  19.7329997
 132.0186060  78.5493741  19.6179233 114.1509992  78.5624990  22.8019997
 113.2259992  78.7704990  22.6729997 114.6049992  79.0464990  22.1119997
 114.0856298  78.6564311  22.6910433 128.9219992  93.5464990  24.7479997
 129.5739992  93.1984990  24.1399997 129.4329992  94.0344990  25.3939997
 129.0802872  93.5648248  24.7520964 114.1149992  77.3004990  31.1459997
 113.4499992  77.0544990  31.7889997 113.6719992  77.9224990  30.5689997
 113.9641168  77.3509225  31.1559830 119.2609992  91.4494990  31.5489997
 118.8359992  92.2594990  31.2669997 120.1649992  91.5354990  31.2469997
 119.3250706  91.5719557  31.4695836 125.9169992  94.1344990  33.7529997
 126.5939992  93.5014990  33.5129997 126.2389992  94.5354990  34.5599997
 126.0531618  94.1021147  33.8292802 130.8349992  76.7244990  32.8319997
 130.0219992  77.0494990  32.4449997 131.0679992  75.9634990  32.2989997
 130.7551347  76.6661891  32.7069824 116.6629992  94.7064990  31.5969997
 115.9419992  95.1464990  31.1459997 116.2969992  94.4554990  32.4449997
 116.5149632  94.7327235  31.6499649 119.1299992  94.3064990  30.6259997
 118.2649992  94.3784990  31.0299997 119.0749992  94.8534990  29.8429997
 119.0042289  94.3903242  30.5753749 123.8409992  94.1944990  29.8019997
 123.3839992  94.7234990  29.1479997 124.0029992  94.7974990  30.5269997
 123.8003919  94.3483990  29.8105740 105.1999992  39.2834990  89.8409997
 105.6199992  38.8684990  90.5939997 104.2669992  39.1044990  89.9579997
 105.1313736  39.2024921  89.9598950 126.1679992  93.0724990  30.7469997
 125.2639992  93.2374990  30.4809997 126.5969992  93.9254990  30.6809997
 126.1022017  93.2104184  30.7016495 128.7719992  94.6424990  31.0419997
 128.5909992  95.5584990  30.8309997 128.9489992  94.2314990  30.1949997
 128.7711377  94.7123365  30.8987178 116.0779992  93.3294990  28.5069997
 116.0589992  92.9034990  29.3639997 116.8819992  93.0104990  28.0979997
 116.1841393  93.2280297  28.5690155 118.2189992  92.0394990  27.1619997
 117.9999992  91.1224990  27.3319997 119.0429992  92.1794990  27.6279997
 118.3004702  91.9330523  27.2482510 120.7559992  92.5094990  28.0109997
 120.9689992  91.6214990  27.7239997 120.8209992  92.4744990  28.9649997
 120.7939149  92.3833338  28.1007351 124.2649992  78.1734990  27.1549997
 123.5899992  77.5434990  27.4109997 124.8289992  77.6894990  26.5519997
 124.2489363  78.0218886  27.1084810 129.4069992  76.2804990  27.2679997
 130.0109992  76.8284990  26.7659997 128.5379992  76.5994990  27.0269997
 129.3720419  76.3985628  27.1667741 131.1339992  77.4194990  25.6009997
 131.7459992  76.9054990  25.0739997 131.5169992  78.2964990  25.6239997
 131.2693867  77.4677613  25.5320888 116.5909992  76.8074990  24.9769997
 115.8139992  76.5724990  24.4699997 117.1219992  76.0104990  24.9859997
 116.5563735  76.6676462  24.9088090 115.4279992  76.6054990  20.7809997
 115.8669992  77.2164990  20.1889997 114.7939992  77.1434990  21.2549997
 115.4023859  76.7619076  20.7640287 108.5259992  43.0384990  90.6949997
 108.0119992  42.9134990  91.4919997 108.3709992  43.9514990  90.4499997
 108.4346643  43.1447068  90.7710624 121.1709992  76.7334990  24.7899997
 122.0449992  77.1224990  24.7609997 121.0349992  76.5184990  25.7129997
 121.2721953  76.7576654  24.9107599 126.7269992  76.7634990  26.4399997
 126.8039992  76.8594990  25.4899997 126.4519992  75.8564990  26.5679997
 126.7003233  76.6539093  26.3273665 128.0809992  76.7894990  22.1319997
 127.3779992  77.4044990  21.9219997 127.6359992  75.9524990  22.2629997
 127.9246550  76.7604679  22.1209819 115.3289992  92.5534990  21.6779997
 114.6439992  92.5154990  21.0109997 115.3319992  93.4654990  21.9659997
 115.2356806  92.6716669  21.6256961 117.2889992  78.5214990  19.2229997
 117.7799992  77.8914990  18.6959997 117.9119992  78.8174990  19.8859997
 117.4405304  78.4752387  19.2404922 122.3149992  78.8144990  21.6799997
 122.4929992  78.1674990  22.3629997 122.2609992  79.6484990  22.1469997
 122.3320678  78.8386615  21.8366283 124.1929992  93.7624990  20.0759997
 125.0589992  94.1294990  19.8979997 123.9459992  93.3234990  19.2619997
 124.2781853  93.7534021  19.9415813 130.9019992  93.3254990  22.7549997
 130.7079992  92.5774990  22.1899997 130.8629992  94.0834990  22.1719997
 130.8701645  93.3255797  22.5988131 117.1469992  93.4734990  18.7029997
 116.8789992  93.7594990  19.5769997 117.9179992  92.9274990  18.8559997
 117.2145926  93.4387790  18.8431188 135.8269992  84.8324990  29.9479997
 135.8679992  84.2074990  30.6709997 136.5299992  85.4564990  30.1299997
 135.9276223  84.8312318  30.0716164 100.6279992  44.5264990  87.5619997
  99.9859992  44.4864990  88.2709997 100.6649992  45.4534990  87.3239997
 100.5451659  44.6462540  87.6268463 136.7509992  89.2824990  28.4829997
 136.3809992  88.4804990  28.1129997 137.6919992  89.1144990  28.5289997
 136.8275984  89.1499649  28.4385586 133.3609992  82.9424990  23.8749997
 132.9129992  83.7884990  23.8569997 132.7999992  82.3634990  23.3599997
 133.2238546  82.9799004  23.8028874 134.0709992  85.1044990  26.0009997
 134.2849992  84.3344990  26.5279997 134.8089992  85.1944990  25.3979997
 134.2000073  85.0113546  25.9915786 138.1439992  80.1464990  26.3609997
 138.1869992  81.0064990  25.9419997 137.6859992  79.5934990  25.7269997
 138.0880163  80.1894174  26.2180604 134.7639992  82.5434990  27.1229997
 135.4179992  81.9934990  27.5549997 134.7879992  82.2694990  26.2059997
 134.8567199  82.4312179  27.0581650 136.9539992  79.0644990  30.4349997
 136.7349992  79.5944990  29.6679997 136.2859992  79.2904990  31.0819997
 136.8336975  79.1675979  30.4175123 139.5229992  86.7394990  30.7219997
 138.7829992  87.3384990  30.8259997 140.2369992  87.2934990  30.4059997
 139.5183146  86.8962611  30.6935150 136.5479992  80.9564990  28.3869997
 137.1609992  81.5894990  28.7599997 137.0599992  80.4844990  27.7309997
 136.7011933  80.9793380  28.3493477 137.9299992  88.7044990  31.5089997
 137.9249992  89.5834990  31.1309997 137.0769992  88.6204990  31.9339997
 137.8139199  88.8135901  31.5146942 134.0519992  88.3754990  22.2909997
 133.7799992  88.6044990  21.4019997 134.0969992  89.2124990  22.7519997
 134.0208360  88.5201034  22.2316186 100.6249992  44.7474990  82.4739997
  99.7319992  44.4074990  82.4149997 101.0759992  44.3704990  81.7179997
 100.5637185  44.6500220  82.3637698 138.2979992  86.0474990  25.2219997
 137.9679992  85.6764990  24.4039997 138.8859992  85.3764990  25.5689997
 138.3323182  85.9060648  25.1569898 138.6649992  84.8154990  28.8549997
 139.2299992  84.9374990  28.0929997 138.9829992  85.4534990  29.4939997
 138.7853619  84.9184388  28.8370019 136.4649992  85.4134990  32.8009997
 136.5349992  86.0644990  33.4999997 135.5739992  85.5164990  32.4659997
 136.3541690  85.5164261  32.8513026 137.2879992  85.1164990  22.8109997
 136.9959992  85.8844990  22.3199997 136.6139992  84.4574990  22.6479997
 137.1568843  85.1324537  22.7217695 133.3809992  87.4794990  31.6259997
 132.8799992  87.4514990  30.8109997 133.3869992  86.5744990  31.9359997
 133.3131690  87.3532234  31.5562770 133.1319992  90.2604990  28.5099997
 134.0779992  90.1154990  28.4909997 133.0189992  91.0444990  29.0469997
 133.2463578  90.3466708  28.5800300 136.3759992  93.0614990  24.6559997
 136.5279992  92.7134990  25.5339997 135.5249992  92.7044990  24.3999997
 136.2818344  92.9655891  24.7416851 135.6299992  88.8034990  32.6689997
 135.8459992  88.4414990  33.5289997 134.7749992  88.4284990  32.4599997
 135.5439082  88.7033377  32.7582396 138.2489992  77.2734990  28.6649997
 137.3869992  77.1864990  28.2569997 138.2269992  78.1294990  29.0929997
 138.1280557  77.3773078  28.6670202 138.3399992  82.2384990  29.7599997
 137.6979992  82.1984990  30.4689997 138.3769992  83.1654990  29.5219997
 138.2571659  82.3582540  29.8248463 106.1609992  45.1634990  81.2909997
 105.7519992  45.9784990  80.9989997 106.8809992  45.0234990  80.6759997
 106.2023946  45.2559963  81.1679616 138.3369992  82.4594990  24.6719997
 137.4439992  82.1194990  24.6129997 138.7879992  82.0824990  23.9159997
 138.2757185  82.3620220  24.5617698 136.0899992  82.5594990  31.6269997
 136.0519992  82.9594990  32.4959997 135.5989992  81.7424990  31.7169997
 136.0184374  82.5038228  31.7580980 139.4559992  79.9334990  18.4259997
 139.0249992  79.4884990  19.1549997 138.7379992  80.3044990  17.9129997
 139.2999176  79.9227063  18.4564913 132.6979992  79.6754990  25.4779997
 133.3289992  79.6464990  26.1969997 133.1479992  79.2504990  24.7469997
 132.8451082  79.6141269  25.4776307 133.9719992  80.4214990  20.9019997
 134.4469992  81.0124990  20.3169997 133.2549992  80.9514990  21.2489997
 133.9400406  80.5741011  20.8688495 135.7469992  81.5164990  24.5849997
 134.8579992  81.6154990  24.2449997 136.0429992  80.6744990  24.2389997
 135.6654001  81.4162473  24.4917318 139.3999992  81.5164990  22.2419997
 140.3319992  81.6454990  22.4199997 139.1849992  82.1854990  21.5919997
 139.4984472  81.6245817  22.1784873 138.0739992  82.7104990  19.8079997
 137.5319992  82.3314990  19.1169997 138.9079992  82.9054990  19.3799997
 138.1124390  82.6849091  19.6554374 137.2409992  78.8114990  24.0639997
 136.9229992  77.9084990  24.0279997 138.0219992  78.8134990  23.5109997
 137.3031079  78.6882240  23.9842908 136.5339992  86.5714990  27.5139997
 137.2789992  86.5684990  26.9119997 136.6119992  85.7474990  27.9949997
 136.6463365  86.4597395  27.4967412 105.2629992  45.3394990  92.7789997
 104.6999992  44.6344990  93.0989997 106.0889992  45.2184990  93.2459997
 105.2976423  45.2265614  92.8860168 133.5419992  85.0314990  32.8289997
 133.7649992  84.6134990  33.6599997 132.9399992  84.4194990  32.4059997
 133.4911513  84.8914617  32.8856722 138.9089992  90.0894990  24.9179997
 139.4359992  90.8624990  24.7179997 138.0289992  90.3134990  24.6159997
 138.8622121  90.2257344  24.8497460 134.6639992  84.9514990  19.5049997
 135.2799992  85.5784990  19.8849997 133.8019992  85.2674990  19.7769997
 134.6317678  85.0799423  19.5937192 139.0189992  92.7734990  24.0399997
 138.0699992  92.8794990  24.0909997 139.3709992  93.5944990  24.3839997
 138.9365647  92.8990029  24.0934882 135.1759992  79.7854990  32.3869997
 134.2829992  80.1234990  32.3189997 135.0769992  78.9294990  32.8049997
 135.0404752  79.7160986  32.4341644 134.8269992  91.5894990  30.8219997
 135.0439992  90.6574990  30.7909997 135.0739992  91.8644990  31.7049997
 134.8900948  91.4990976  30.9371268 136.0789992  86.8634990  20.9979997
 135.3929992  87.2164990  21.5649997 136.6019992  87.6264990  20.7509997
 136.0558402  87.0148912  21.0421783 138.4359992  79.0504990  20.8339997
 138.3529992  79.9384990  21.1809997 139.3259992  78.7854990  21.0659997
 138.5449331  79.1361177  20.9128067 136.6949992  89.4774990  19.8939997
 137.2869992  90.1774990  20.1709997 137.1539992  89.0444990  19.1749997
 136.8381652  89.5147686  19.8346515 135.0109992  82.1424990  19.0099997
 134.9659992  83.0814990  19.1889997 134.1229992  81.9064990  18.7409997
 134.8848166  82.2391698  18.9981507 107.1649992  44.6094990  84.1049997
 106.9699992  45.2154990  83.3899997 107.3469992  43.7764990  83.6699997
 107.1629272  44.5797955  83.9484075 135.8189992  76.9234990  27.6829997
 135.5899992  76.9824990  26.7559997 135.3759992  76.1324990  27.9899997
 135.7277387  76.8246412  27.5975223 134.7489992  90.8644990  23.8439997
 133.9169992  91.3364990  23.8709997 135.2949992  91.3744990  23.2449997
 134.7088710  90.9980317  23.7667570 138.2859992  87.6304990  18.2609997
 138.3499992  86.8364990  18.7909997 138.9389992  87.5124990  17.5709997
 138.3830483  87.5057496  18.2403407 139.4349992  85.6034990  20.5669997
 138.9759992  85.1194990  21.2519997 139.6899992  84.9344990  19.9309997
 139.4065997  85.4468491  20.5748734 138.7239992  83.4964990  32.9229997
 138.1059992  84.1704990  33.2029997 139.0679992  83.8174990  32.0889997
 138.6858078  83.6322298  32.8486609 139.0639992  80.8514990  34.0049997
 139.2139992  80.1224990  33.4029997 139.0659992  81.6284990  33.4459997
 139.0847967  80.8567720  33.8470523 139.4759992  79.2204990  31.4979997
 140.0119992  79.6724990  30.8459997 138.6239992  79.1124990  31.0749997
 139.4341795  79.2677444  31.3516211 135.7229992  79.9694990  35.6209997
 135.9339992  79.2634990  35.0109997 135.6109992  79.5324990  36.4649997
 135.7367668  79.8136619  35.6515445 133.9719992  89.1734990  19.3129997
 134.8859992  89.2524990  19.5859997 133.9789992  88.4864990  18.6469997
 134.0980624  89.0914074  19.2603045 132.6209992  94.5664990  24.3899997
 131.9739992  94.1044990  23.8579997 132.9759992  93.8944990  24.9729997
 132.5803741  94.4124785  24.3959157  98.3779992  44.8474990  89.4289997
  98.3399992  45.2474990  90.2969997  97.8869992  44.0304990  89.5189997
  98.3064246  44.7918842  89.5601171 133.4909992  92.6464990  26.1949997
 133.1569992  91.7664990  26.3669997 133.7129992  92.9924990  27.0599997
 133.4752565  92.5727410  26.3354263 133.5709992  85.7224990  28.6469997
 133.7549992  85.6404990  27.7109997 134.4199992  85.5984990  29.0699997
 133.7110132  85.6945066  28.5761460 134.3899992  79.3054990  27.6789997
 134.8349992  78.5134990  27.9809997 134.8559992  80.0214990  28.1089997
 134.5139718  79.2939546  27.7785247 132.6939992  82.3044990  28.7479997
 133.1859992  82.0834990  27.9569997 133.0559992  83.1444990  29.0289997
 132.8102923  82.3878480  28.6777389 133.0069992  78.5624990  22.8019997
 132.0819992  78.7704990  22.6729997 133.4609992  79.0464990  22.1119997
 132.9416298  78.6564311  22.6910433 132.9709992  77.3004990  31.1459997
 132.3059992  77.0544990  31.7889997 132.5279992  77.9224990  30.5689997
 132.8201168  77.3509225  31.1559830 135.5189992  94.7064990  31.5969997
 134.7979992  95.1464990  31.1459997 135.1529992  94.4554990  32.4449997
 135.3709632  94.7327235  31.6499649 137.9859992  94.3064990  30.6259997
 137.1209992  94.3784990  31.0299997 137.9309992  94.8534990  29.8429997
 137.8602289  94.3903242  30.5753749 134.9339992  93.3294990  28.5069997
 134.9149992  92.9034990  29.3639997 135.7379992  93.0104990  28.0979997
 135.0401393  93.2280297  28.5690155 137.0749992  92.0394990  27.1619997
 136.8559992  91.1224990  27.3319997 137.8989992  92.1794990  27.6279997
 137.1564702  91.9330523  27.2482510  94.9859992  41.9634990  83.2789997
  95.6169992  41.9344990  83.9989997  95.4359992  41.5384990  82.5489997
  95.1330905  41.9020839  83.2787479 135.4469992  76.8074990  24.9769997
 134.6699992  76.5724990  24.4699997 135.9779992  76.0104990  24.9859997
 135.4123735  76.6676462  24.9088090 134.2839992  76.6054990  20.7809997
 134.7229992  77.2164990  20.1889997 133.6499992  77.1434990  21.2549997
 134.2583859  76.7619076  20.7640287 134.1849992  92.5534990  21.6779997
 133.4999992  92.5154990  21.0109997 134.1879992  93.4654990  21.9659997
 134.0916806  92.6716669  21.6256961 136.1449992  78.5214990  19.2229997
 136.6359992  77.8914990  18.6959997 136.7679992  78.8174990  19.8859997
 136.2965304  78.4752387  19.2404922 135.4049992  77.3214990  34.4949997
 135.0389992  76.5554990  34.9369997 136.3179992  77.3504990  34.7809997
 135.4783172  77.2205335  34.5941872 136.0029992  93.4734990  18.7029997
 135.7349992  93.7594990  19.5769997 136.7739992  92.9274990  18.8559997
 136.0705926  93.4387790  18.8431188  12.5339992 104.8194990  24.9359997
  12.6229992 105.7634990  24.8029997  11.8949992 104.5444990  24.2779997
  12.4598378 104.9113846  24.8289258  11.4669992 104.0744990  28.3549997
  11.4279992 103.4284990  29.0599997  11.1439992 103.6074990  27.5829997
  11.4180469 103.9230005  28.3472803   3.8349992 103.6884990  29.9479997
   3.8759992 103.0634990  30.6709997   4.5379992 104.3124990  30.1299997
   3.9356223 103.6872318  30.0716164  15.1729992 107.0134990  26.6559997
  14.7319992 106.2934990  27.1069997  15.1599992 107.7344990  27.2859997
  15.1109215 107.0124303  26.8028088 106.4289992  46.2474990  88.7759997
 106.7529992  45.6164990  88.1329997 105.9889992  45.7134990  89.4369997
 106.4138707  46.0888261  88.7773195   4.7589992 108.1384990  28.4829997
   4.3889992 107.3364990  28.1129997   5.6999992 107.9704990  28.5289997
   4.8355984 108.0059649  28.4385586   1.3689992 101.7984990  23.8749997
   0.9209992 102.6444990  23.8569997   0.8079992 101.2194990  23.3599997
   1.2318546 101.8359004  23.8028874   2.0789992 103.9604990  26.0009997
   2.2929992 103.1904990  26.5279997   2.8169992 104.0504990  25.3979997
   2.2080073 103.8673546  25.9915786  12.2839992 112.1174990  26.8679997
  12.9039992 111.4414990  26.5949997  12.0759992 111.8994990  27.7769997
  12.3407679 111.9955032  26.9534518   9.8559992 106.5064990  28.7609997
  10.1599992 105.8204990  28.1659997  10.5779992 106.6254990  29.3789997
   9.9951240 106.4287325  28.7630941  18.5189992  98.1084990  29.6209997
  18.5679992  98.7184990  30.3569997  18.9449992  98.5694990  28.8979997
  18.5832851  98.2543266  29.6240532  12.9969992 100.9004990  29.0879997
  13.1389992  99.9544990  29.1079997  12.8909992 101.1074990  28.1599997
  13.0021051 100.7989706  28.9652249   6.1519992  99.0024990  26.3609997
   6.1949992  99.8624990  25.9419997   5.6939992  98.4494990  25.7269997
   6.0960163  99.0454174  26.2180604  13.8739992  99.1334990  24.7609997
  14.5199992  98.8044990  25.3859997  14.3839992  99.6504990  24.1389997
  14.0314289  99.1584333  24.7623681   2.7719992 101.3994990  27.1229997
   3.4259992 100.8494990  27.5549997   2.7959992 101.1254990  26.2059997
   2.8647199 101.2872178  27.0581650 103.2069992  42.1754990  83.5599997
 102.2959992  42.2324990  83.8489997 103.7119992  42.1154990  84.3709997
 103.1506873  42.1751838  83.7091190   7.9279992 102.9494990  26.3379997
   8.5439992 102.4224990  26.8469997   7.3419992 102.3094990  25.9339997
   7.9330652 102.7908919  26.3530277  18.9109992  99.5864990  31.8569997
  18.2219992 100.2444990  31.7619997  18.9259992  99.3884990  32.7939997
  18.8187756  99.6497614  31.9705795   4.9619992  97.9204990  30.4349997
   4.7429992  98.4504990  29.6679997   4.2939992  98.1464990  31.0819997
   4.8416975  98.0235979  30.4175123  12.3309992 107.4204990  23.9789997
  12.0349992 107.0974990  23.1269997  12.0069992 108.3204990  24.0199997
  12.2467458 107.4979678  23.8680598   7.5309992 105.5954990  30.7219997
   6.7909992 106.1944990  30.8259997   8.2449992 106.1494990  30.4059997
   7.5263146 105.7522611  30.6935150  15.6379992  98.4244990  26.7419997
  15.4229992  97.6584990  27.2749997  16.2939992  98.8964990  27.2549997
  15.6972673  98.3835739  26.8841972   4.5559992  99.8124990  28.3869997
   5.1689992 100.4454990  28.7599997   5.0679992  99.3404990  27.7309997
   4.7091933  99.8353380  28.3493477   5.9379992 107.5604990  31.5089997
   5.9329992 108.4394990  31.1309997   5.0849992 107.4764990  31.9339997
   5.8219199 107.6695901  31.5146942   2.0599992 107.2314990  22.2909997
   1.7879992 107.4604990  21.4019997   2.1049992 108.0684990  22.7519997
   2.0288360 107.3761034  22.2316186  15.6849992 108.8524990  29.0039997
  14.7429992 108.9114990  29.1659997  15.9609992 109.7584990  28.8669997
  15.5935865 108.9830299  29.0076174  98.0349992  43.8044990  82.3869997
  97.1459992  43.9034990  82.0469997  98.3309992  42.9624990  82.0409997
  97.9534001  43.7042473  82.2937318  15.9849992  97.1394990  30.4209997
  15.2489992  97.7494990  30.3839997  16.6689992  97.5544990  29.8949997
  15.9765367  97.2792562  30.3448156   8.9879992  95.2254990  27.8869997
   8.8709992  94.2774990  27.8329997   8.1329992  95.5584990  28.1599997
   8.8563691  95.1405842  27.9165072  13.9369992 110.6334990  25.6289997
  14.3619992 109.9264990  25.1439997  14.2539992 111.4354990  25.2119997
  14.0380266 110.6450201  25.5062461  15.0959992 108.5344990  24.1379997
  14.8389992 107.8444990  23.5259997  15.1669992 108.0914990  24.9829997
  15.0704322 108.3801568  24.1685372  16.7819992 107.1014990  32.6149997
  16.9219992 106.5094990  31.8759997  16.9499992 107.9744990  32.2589997
  16.8238734 107.1384041  32.4656937  11.2549992 104.0634990  22.3879997
  10.5429992 104.5984990  22.0359997  11.9459992 104.1184990  21.7279997
  11.2509704 104.1441663  22.2505797  11.3089992 102.5204990  19.4259997
  12.0099992 102.5434990  20.0779997  11.6109992 101.8924990  18.7699997
  11.4458202 102.4387223  19.4265591  18.6239992 103.4414990  30.6809997
  17.9719992 104.1354990  30.7699997  19.0889992 103.6514990  29.8709997
  18.5975357 103.5649544  30.5837056  14.6609992 104.2724990  23.3389997
  13.9289992 104.5014990  23.9119997  15.1079992 103.5594990  23.7939997
  14.6212753 104.2073984  23.4789698  14.5579992 102.4474990  32.4069997
  14.6379992 103.2104990  32.9789997  13.9569992 102.7264990  31.7169997
  14.4876547 102.5897468  32.3920029 101.6879992  43.8044990  80.0429997
 102.6199992  43.9334990  80.2209997 101.4729992  44.4734990  79.3939997
 101.7864245  43.9126452  79.9795602   6.3059992 104.9034990  25.2219997
   5.9759992 104.5324990  24.4039997   6.8939992 104.2324990  25.5689997
   6.3403182 104.7620648  25.1569898   7.6729992 108.3314990  27.9029997
   7.5779992 107.7524990  27.1469997   8.4019992 107.9604990  28.3989997
   7.7586011 108.2020572  27.8666011   6.6729992 103.6714990  28.8549997
   7.2379992 103.7934990  28.0929997   6.9909992 104.3094990  29.4939997
   6.7933619 103.7744388  28.8370019  12.9819992 109.1754990  29.5889997
  12.7409992 109.8374990  30.2369997  12.7839992 108.3404990  30.0139997
  12.9222662 109.1532704  29.7351008  13.5319992 103.4354990  21.0249997
  14.1109992 103.5854990  21.7709997  13.9459992 103.9054990  20.3009997
  13.6673358 103.5195966  21.0293935   4.4729992 104.2694990  32.8009997
   4.5429992 104.9204990  33.4999997   3.5819992 104.3724990  32.4659997
   4.3621690 104.3724261  32.8513026  11.2579992 110.1714990  24.4599997
  11.7319992 110.4674990  25.2369997  10.6949992 110.9104990  24.2269997
  11.2467890 110.3118047  24.5348084   5.7919992 110.1424990  34.3359997
   5.7999992 110.0064990  33.3889997   4.8759992 110.0254990  34.5879997
   5.6692528 110.1080475  34.2403226  17.2299992  95.1854990  20.8369997
  16.3299992  95.3234990  21.1329997  17.4819992  96.0164990  20.4359997
  17.1407727  95.3168705  20.8232935   5.2959992 103.9724990  22.8109997
   5.0039992 104.7404990  22.3199997   4.6219992 103.3134990  22.6479997
   5.1648843 103.9884537  22.7217695 107.6119992  41.4104990  86.8239997
 106.9349992  41.5414990  87.4879997 107.1259992  41.2554990  86.0139997
 107.4537265  41.4074665  86.8053380  18.4199992 109.5514990  19.2139997
  18.4929992 110.4904990  19.3839997  19.3249992 109.2464990  19.1579997
  18.5524170 109.6388294  19.2297045   1.3889992 106.3354990  31.6259997
   0.8879992 106.3074990  30.8109997   1.3949992 105.4304990  31.9359997
   1.3211690 106.2092234  31.5562770   1.1399992 109.1164990  28.5099997
   2.0859992 108.9714990  28.4909997   1.0269992 109.9004990  29.0469997
   1.2543578 109.2026708  28.5800300  19.3369992 109.7824990  34.1929997
  19.2879992 108.8264990  34.1549997  18.5109992 110.0494990  34.5939997
  19.2185096 109.6878416  34.2420698  10.3159992 109.3564990  33.0689997
  10.4029992 110.1824990  33.5439997   9.4519992 109.0264990  33.3179997
  10.2111944 109.4249871  33.1676558  10.7299992 113.1284990  22.8749997
  10.6549992 113.0074990  21.9279997  10.7629992 114.0774990  22.9929997
  10.7242083 113.2402639  22.7614973   4.3839992 111.9174990  24.6559997
   4.5359992 111.5694990  25.5339997   3.5329992 111.5604990  24.3999997
   4.2898344 111.8215891  24.7416851  13.8319992 112.2824990  19.8769997
  14.2069992 111.5384990  19.4059997  13.8359992 112.0124990  20.7949997
  13.8838969 112.1440920  19.9366475  13.5009992 112.2084990  22.6259997
  12.5659992 112.3084990  22.8049997  13.7809992 111.4984990  23.2049997
  13.4109471 112.1262944  22.7286678   3.6379992 107.6594990  32.6689997
   3.8539992 107.2974990  33.5289997   2.7829992 107.2844990  32.4599997
   3.5519082 107.5593377  32.7582396 110.8989992  57.0814990  93.1009997
 111.0989992  57.5054990  92.2659997 111.5549992  57.4254990  93.7079997
 111.0149916  57.1859784  93.0687890   6.2569992  96.1294990  28.6649997
   5.3949992  96.0424990  28.2569997   6.2349992  96.9854990  29.0929997
   6.1360557  96.2333078  28.6670202  10.9199992  95.8514990  32.0399997
  11.3399992  95.4364990  32.7929997   9.9869992  95.6724990  32.1569997
  10.8513736  95.7704921  32.1588950  14.2459992  99.6064990  32.8929997
  13.7319992  99.4814990  33.6909997  14.0909992 100.5194990  32.6489997
  14.1547802  99.7127433  32.9691504  15.0089992 104.4674990  18.6539997
  15.0509992 104.2454990  17.7239997  15.8579992 104.8664990  18.8439997
  15.1295253 104.4910510  18.5523804  10.5819992  98.3434990  19.3249997
  10.3279992  98.3624990  20.2469997  10.3249992  97.4724990  19.0229997
  10.5124508  98.2283292  19.4104786   6.3479992 101.0944990  29.7599997
   5.7059992 101.0544990  30.4689997   6.3849992 102.0214990  29.5219997
   6.2651659 101.2142540  29.8248463   6.3449992 101.3154990  24.6719997
   5.4519992 100.9754990  24.6129997   6.7959992 100.9384990  23.9159997
   6.2837185 101.2180220  24.5617698  11.8809992 101.7314990  23.4889997
  11.4719992 102.5464990  23.1969997  12.6009992 101.5914990  22.8749997
  11.9224439 101.8240383  23.3660098  12.8849992 101.1774990  26.3029997
  12.6899992 101.7834990  25.5879997  13.0669992 100.3444990  25.8689997
  12.8829195 101.1477936  26.1464079   4.0979992 101.4154990  31.6269997
   4.0599992 101.8154990  32.4959997   3.6069992 100.5984990  31.7169997
   4.0264374 101.3598228  31.7580980  98.4969992  49.5554990  92.7089997
  99.2289992  49.8104990  93.2699997  97.7169992  49.7604990  93.2239997
  98.4917684  49.6181457  92.8554774   7.4639992  98.7894990  18.4259997
   7.0329992  98.3444990  19.1549997   6.7459992  99.1604990  17.9129997
   7.3079176  98.7787063  18.4564913   0.7059992  98.5314990  25.4779997
   1.3369992  98.5024990  26.1969997   1.1559992  98.1064990  24.7469997
   0.8531082  98.4701269  25.4776307   1.9799992  99.2774990  20.9019997
   2.4549992  99.8684990  20.3169997   1.2629992  99.8074990  21.2489997
   1.9480406  99.4301011  20.8688495  12.1489992 102.8154990  30.9739997
  12.4729992 102.1844990  30.3309997  11.7089992 102.2814990  31.6349997
  12.1338707 102.6568261  30.9753195   8.9269992  98.7434990  25.7579997
   8.0159992  98.8004990  26.0469997   9.4319992  98.6834990  26.5689997
   8.8706873  98.7431838  25.9071190   3.7549992 100.3724990  24.5849997
   2.8659992 100.4714990  24.2449997   4.0509992  99.5304990  24.2389997
   3.6734001 100.2722473  24.4917318   7.4079992 100.3724990  22.2419997
   8.3399992 100.5014990  22.4199997   7.1929992 101.0414990  21.5919997
   7.5064472 100.4805817  22.1784873  13.3319992  97.9784990  29.0219997
  12.6549992  98.1094990  29.6859997  12.8459992  97.8234990  28.2119997
  13.1737265  97.9754665  29.0033380   6.0819992 101.5664990  19.8079997
   5.5399992 101.1874990  19.1169997   6.9159992 101.7614990  19.3799997
   6.1204390 101.5409091  19.6554374  16.6189992 113.6494990  35.2989997
  16.8189992 114.0734990  34.4649997  17.2749992 113.9934990  35.9059997
  16.7349937 113.7539993  35.2668645 104.5269992  44.9624990  85.4469997
 105.0909992  44.4164990  84.8999997 104.3789992  44.4414990  86.2359997
 104.5843037  44.8171798  85.4787212   4.2169992 106.1234990  34.9069997
   4.9489992 106.3784990  35.4689997   3.4369992 106.3284990  35.4229997
   4.2116526 106.1860438  35.0535168  10.2469992 101.5304990  27.6449997
  10.8109992 100.9844990  27.0979997  10.0989992 101.0094990  28.4339997
  10.3043037 101.3851798  27.6767212   5.2489992  97.6674990  24.0639997
   4.9309992  96.7644990  24.0279997   6.0299992  97.6694990  23.5109997
   5.3111079  97.5442240  23.9842908   8.8729992  99.9194990  30.0589997
   8.0379992 100.3734990  30.1699997   9.3969992 100.1954990  30.8109997
   8.8296072 100.0188960  30.1758118   9.4169992 106.1324990  21.7439997
   8.6719992 105.6244990  21.4219997   9.2829992 106.1814990  22.6899997
   9.2969334 106.0696144  21.8278892  16.5669992 105.2654990  30.5309997
  17.2089992 105.7214990  29.9869997  15.7369992 105.3784990  30.0679997
  16.5426536 105.3431813  30.3939579  13.3149992  98.9464990  19.9429997
  12.3759992  99.0574990  19.7919997  13.6119992  99.8024990  20.2499997
  13.2266136  99.0774977  19.9638568  14.0329992 100.8134990  21.6039997
  14.9249992 100.6754990  21.9229997  14.0899992 101.6044990  21.0669997
  14.1627380 100.9014777  21.5750981   4.5419992 105.4274990  27.5139997
   5.2869992 105.4244990  26.9119997   4.6199992 104.6034990  27.9949997
   4.6543365 105.3157395  27.4967412  11.5429992 107.5904990  20.7689997
  11.2479992 108.4174990  21.1509997  10.8399992 106.9714990  20.9659997
  11.4076379 107.6199182  20.8478636  99.5289992  41.0994990  81.8649997
  99.2109992  40.1964990  81.8299997 100.3099992  41.1014990  81.3129997
  99.5911560  40.9761148  81.7854975   1.5499992 103.8874990  32.8289997
   1.7729992 103.4694990  33.6599997   0.9479992 103.2754990  32.4059997
   1.4991513 103.7474617  32.8856722  13.1869992 108.7784990  32.9309997
  12.2859992 108.9614990  32.6639997  13.2209992 109.0374990  33.8519997
  13.0683861 108.8385245  33.0189517  18.9179992 101.0224990  21.2989997
  18.3639992 100.6264990  20.6259997  19.0189992 101.9334990  21.0209997
  18.8558589 101.0913904  21.1693839  18.8809992 106.8234990  34.1359997
  18.0299992 107.0614990  33.7679997  19.4719992 106.8064990  33.3819997
  18.8443831 106.8537623  33.9838448  17.2129992 109.8084990  21.7639997
  16.8409992 108.9834990  22.0729997  17.4909992 109.6254990  20.8659997
  17.1995807 109.6707031  21.6850063  14.3739992 104.6164990  28.7849997
  13.4459992 104.3854990  28.7579997  14.8249992 103.8394990  28.4549997
  14.3078165 104.4797785  28.7366772   6.9169992 108.9454990  24.9179997
   7.4439992 109.7184990  24.7179997   6.0369992 109.1694990  24.6159997
   6.8702121 109.0817344  24.8497460   2.6719992 103.8074990  19.5049997
   3.2879992 104.4344990  19.8849997   1.8099992 104.1234990  19.7769997
   2.6397678 103.9359423  19.5937192   8.3439992 106.6084990  24.4939997
   8.1029992 107.5334990  24.5359997   7.6039992 106.1494990  24.8909997
   8.2109463 106.6730969  24.5534279   8.8589992 110.7574990  30.8089997
   9.2219992 111.6114990  30.5759997   9.3909992 110.4654990  31.5499997
   8.9805141 110.8348907  30.8772079 103.1529992  43.3514990  87.8609997
 102.3179992  43.8054990  87.9709997 103.6769992  43.6274990  88.6129997
 103.1095070  43.4509677  87.9777134   7.0269992 111.6294990  24.0399997
   6.0779992 111.7354990  24.0909997   7.3789992 112.4504990  24.3839997
   6.9445647 111.7550029  24.0934882  12.4029992 106.8564990  30.5099997
  11.9769992 106.6284990  31.3359997  12.9839992 106.1174990  30.3279997
  12.4232088 106.7254393  30.5984454  14.6059992 107.7854990  19.5839997
  14.9589992 107.4054990  20.3879997  13.6569992 107.6914990  19.6709997
  14.5260956 107.7207867  19.7058005  19.1089992 112.2644990  19.7849997
  19.8529992 112.8504990  19.6449997  18.4149992 112.8334990  20.1179997
  19.1169809 112.4215830  19.8108572   3.1839992  98.6414990  32.3869997
   2.2909992  98.9794990  32.3189997   3.0849992  97.7854990  32.8049997
   3.0484752  98.5720986  32.4341644  15.4719992 106.4574990  21.8109997
  15.1949992 105.7294990  22.3669997  16.3989992 106.5764990  22.0159997
  15.5594419 106.3739436  21.9148264   2.8349992 110.4454990  30.8219997
   3.0519992 109.5134990  30.7909997   3.0819992 110.7204990  31.7049997
   2.8980948 110.3550976  30.9371268   8.6969992 108.8974990  18.0309997
   8.9359992 108.1484990  17.4839997   8.4279992 108.5094990  18.8639997
   8.6933233 108.7426865  18.0687791   7.6339992 108.4674990  20.4869997
   7.7809992 107.9474990  21.2769997   7.6309992 109.3744990  20.7939997
   7.6537102 108.5188964  20.6365907   4.0869992 105.7194990  20.9979997
   3.4009992 106.0724990  21.5649997   4.6099992 106.4824990  20.7509997
   4.0638402 105.8708912  21.0421784 110.8469992  48.6974990  88.3319997
 111.4889992  49.1534990  87.7889997 110.0169992  48.8104990  87.8699997
 110.8227352  48.7753223  88.1950234  11.9179992  98.3824990  31.2769997
  12.6169992  98.4564990  31.9269997  11.5379992  97.5174990  31.4309997
  11.9622662  98.2757050  31.3867412  12.7029992  98.0344990  22.3739997
  12.9229992  98.5054990  21.5699997  13.2609992  98.4284990  23.0439997
  12.8086044  98.1522946  22.3545207  10.3719992 110.1644990  21.2369997
   9.5549992 110.6614990  21.2889997  10.9009992 110.6404990  20.5959997
  10.3318125 110.2967000  21.1575289   9.9029992  99.7624990  23.2089997
  10.7149992 100.2664990  23.2549997   9.6579992  99.6174990  24.1229997
   9.9811091  99.8119366  23.3388552  10.4389992 100.7484990  32.3929997
  10.5579992 101.3224990  33.1499997  11.0939992 100.0604990  32.5079997
  10.5438684 100.7340205  32.5121656  10.7869992  96.8434990  24.1469997
  10.4399992  97.4604990  24.7909997  11.4449992  97.3444990  23.6649997
  10.8284430  96.9956860  24.1700046   7.7099992 111.2084990  21.2179997
   7.8709992 112.0084990  20.7179997   7.5129992 111.5154990  22.1029997
   7.7053906 111.3593690  21.2692316   6.4439992  97.9064990  20.8339997
   6.3609992  98.7944990  21.1809997   7.3339992  97.6414990  21.0659997
   6.5529331  97.9921177  20.9128067  16.6429992  98.6554990  33.2279997
  15.7269992  98.9174990  33.1409997  16.9789992  98.6524990  32.3319997
  16.5628499  98.6910174  33.0948748  15.2449992 102.4054990  27.3239997
  14.4479992 101.9904990  26.9959997  15.6899992 101.7154990  27.8149997
  15.1960367 102.2553372  27.3454897 107.5949992  42.3784990  77.7449997
 106.6559992  42.4894990  77.5939997 107.8919992  43.2344990  78.0509997
 107.5066371  42.5095327  77.7657362   4.7029992 108.3334990  19.8939997
   5.2949992 109.0334990  20.1709997   5.1619992 107.9004990  19.1749997
   4.8461652 108.3707686  19.8346515   3.0189992 100.9984990  19.0099997
   2.9739992 101.9374990  19.1889997   2.1309992 100.7624990  18.7409997
   2.8928166 101.0951698  18.9981507  16.3319992 111.6614990  28.9459997
  16.1759992 112.3404990  28.2889997  17.2639992 111.7334990  29.1489997
  16.4367328 111.7641586  28.8835529   3.8269992  95.7794990  27.6829997
   3.5979992  95.8384990  26.7559997   3.3839992  94.9884990  27.9899997
   3.7357387  95.6806412  27.5975223   2.7569992 109.7204990  23.8439997
   1.9249992 110.1924990  23.8709997   3.3029992 110.2304990  23.2449997
   2.7168710 109.8540317  23.7667570   2.0459992 112.3324990  35.1739997
   2.5859992 112.1164990  35.9339997   1.5639992 111.5274990  34.9839997
   2.0548485 112.1940463  35.2524870  10.7349992 110.7604990  18.1689997
  10.0909992 110.1294990  18.4909997  11.4969992 110.2294990  17.9379997
  10.7498708 110.6023171  18.1818461  15.3389992 110.5774990  18.4029997
  15.6219992 109.7824990  18.8559997  16.0789992 110.8104990  17.8419997
  15.4777295 110.5002349  18.3891469   6.2939992 106.4864990  18.2609997
   6.3579992 105.6924990  18.7909997   6.9469992 106.3684990  17.5709997
   6.3910483 106.3617496  18.2403407  11.6459992 107.5334990  17.9969997
  11.3779992 107.7144990  18.8969997  11.4399992 106.6084990  17.8649997
  11.5813443 107.4331873  18.1026643 105.2169992  49.7484990  90.7829997
 104.8709992  49.3664990  91.5889997 105.0169992  50.6814990  90.8539997
 105.1425399  49.8223489  90.9030401  14.3429992 106.0284990  32.9439997
  15.0879992 106.6174990  32.8249997  13.5849992 106.6104990  33.0069997
  14.3425289 106.1877067  32.9362292   2.7849992 103.3434990  35.5479997
   3.1929992 102.4864990  35.4269997   2.5249992 103.3574990  36.4689997
   2.8057082 103.2280596  35.6559469   7.4429992 104.4594990  20.5669997
   6.9839992 103.9754990  21.2519997   7.6979992 103.7904990  19.9309997
   7.4145997 104.3028491  20.5748734   6.7319992 102.3524990  32.9229997
   6.1139992 103.0264990  33.2029997   7.0759992 102.6734990  32.0889997
   6.6938078 102.4882298  32.8486609   8.5139992 102.7024990  18.8289997
   8.3339992 102.5474990  17.9019997   9.4639992 102.8104990  18.8739997
   8.6177804 102.6958821  18.7081966  17.9039992 105.0564990  18.2749997
  17.6309992 104.6324990  17.4619997  17.9439992 105.9884990  18.0579997
  17.8720201 105.1243523  18.1343548   9.0659992 103.5164990  31.7369997
   9.8169992 103.3604990  31.1639997   8.7269992 104.3684990  31.4619997
   9.1229587 103.6103149  31.6214060   8.2899992  95.5334990  31.9289997
   8.1919992  96.4794990  31.8239997   7.5469992  95.1604990  31.4529997
   8.1762123  95.6126811  31.8503204  12.2699992  98.9824990  34.5679997
  11.3219992  99.0144990  34.6999997  12.5819992  98.3564990  35.2219997
  12.1825293  98.9022934  34.6744130   8.4119992 113.3924990  19.8299997
   9.3449992 113.5504990  19.9739997   8.1469992 114.0684990  19.2049997
   8.5039846 113.5054567  19.7652930 108.3129992  44.2454990  79.4059997
 109.2049992  44.1074990  79.7249997 108.3699992  45.0364990  78.8689997
 108.4427380  44.3334777  79.3770981   1.9799992 108.0294990  19.3129997
   2.8939992 108.1084990  19.5859997   1.9869992 107.3424990  18.6469997
   2.1060624 107.9474074  19.2603045   0.6289992 113.4224990  24.3899997
  -0.0180008 112.9604990  23.8579997   0.9839992 112.7504990  24.9729997
   0.5883741 113.2684785  24.3959157   1.4989992 111.5024990  26.1949997
   1.1649992 110.6224990  26.3669997   1.7209992 111.8484990  27.0599997
   1.4832565 111.4287410  26.3354263  19.0479992 112.3124990  29.1759997
  19.0259992 112.4974990  30.1139997  19.7379992 112.8804990  28.8349997
  19.1383383 112.4147104  29.2584580  18.6109992 111.8794990  32.0969997
  18.1239992 111.1434990  31.7259997  19.1599992 111.4854990  32.7749997
  18.6186101 111.7256267  32.1379034  18.3629992 105.9254990  22.2499997
  19.2129992 106.3464990  22.3769997  18.3679992 105.1854990  22.8569997
  18.4801143 105.8831106  22.3494732  18.7569992 103.9794990  24.0729997
  18.0309992 103.4994990  24.4709997  19.3379992 104.1844990  24.8049997
  18.7362504 103.9415592  24.2264199  18.5159992 106.7644990  29.0209997
  19.3499992 106.3864990  28.7399997  18.6279992 107.7074990  28.9019997
  18.6451917 106.8402954  28.9664844  17.0019992 109.6424990  31.3279997
  16.3549992 109.9674990  31.9529997  16.4849992 109.2014990  30.6539997
  16.8434112 109.6274133  31.3225272  19.0249992 103.8804990  20.4639997
  18.5039992 104.2364990  19.7459997  18.9919992 104.5554990  21.1429997
  18.9490955 104.0205023  20.4572634  98.8219992  48.8594990  85.3149997
  99.5669992  48.8564990  84.7139997  98.8999992  48.0354990  85.7969997
  98.9344158  48.7477928  85.2979136  17.3739992 101.1194990  19.0149997
  17.4709992 101.7864990  18.3349997  17.2339992 100.3044990  18.5339997
  17.3683407 101.1005670  18.8568312  16.5439992 102.5004990  24.6359997
  16.3939992 101.5554990  24.6159997  16.1899992 102.7814990  25.4799997
  16.4756351 102.4091656  24.7473202   1.5789992 104.5784990  28.6469997
   1.7629992 104.4964990  27.7109997   2.4279992 104.4544990  29.0699997
   1.7190132 104.5505066  28.5761460  17.3999992 104.4704990  34.2749997
  17.9829992 103.7354990  34.4669997  17.9639992 105.2424990  34.3219997
  17.5559781 104.4743156  34.3076146  16.6219992  98.5274990  18.1329997
  17.2319992  98.1564990  18.7699997  15.7849992  98.1064990  18.3289997
  16.5923704  98.4197942  18.2467077  16.2539992 100.0824990  23.0989997
  16.5339992  99.1754990  23.2229997  17.0129992 100.5164990  22.7099997
  16.3949258 100.0170935  23.0633691  16.8659992 100.6644990  28.5349997
  17.7989992 100.8764990  28.4999997  16.6309992 100.7654990  29.4569997
  16.9619517 100.7071844  28.6549113  16.8949992 101.4014990  31.3109997
  16.0519992 101.6694990  31.6759997  17.3379992 102.2234990  31.0999997
  16.8394035 101.5493351  31.3324770   1.1759992  99.8484990  34.7869997
   2.0959992  99.7264990  35.0239997   0.7269992  99.0984990  35.1769997
   1.2410500  99.7304576  34.8721016  16.8679992  97.3454990  23.1469997
  17.0499992  96.8964990  23.9719997  16.2679992  96.7614990  22.6829997
  16.8118187  97.2050563  23.1972721  95.8299992  47.3194990  90.6299997
  96.0529992  46.9014990  91.4619997  95.2279992  46.7074990  90.2079997
  95.7790802  47.1795216  90.6867561   2.3979992  98.1614990  27.6789997
   2.8429992  97.3694990  27.9809997   2.8639992  98.8774990  28.1089997
   2.5219718  98.1499546  27.7785247   0.7019992 101.1604990  28.7479997
   1.1939992 100.9394990  27.9569997   1.0639992 102.0004990  29.0289997
   0.8182923 101.2438480  28.6777389  18.7339992  97.4134990  19.6749997
  19.1469992  96.6924990  19.1999997  19.4159992  98.0824990  19.7329997
  18.8826060  97.4053741  19.6179233   1.0149992  97.4184990  22.8019997
   0.0899992  97.6264990  22.6729997   1.4689992  97.9024990  22.1119997
   0.9496298  97.5124311  22.6910433  15.7859992 112.4024990  24.7479997
  16.4379992 112.0544990  24.1399997  16.2969992 112.8904990  25.3939997
  15.9442872 112.4208248  24.7520964   0.9789992  96.1564990  31.1459997
   0.3139992  95.9104990  31.7889997   0.5359992  96.7784990  30.5689997
   0.8281168  96.2069225  31.1559830   3.1709992 109.3314990  35.2909997
   2.3499992 109.5064990  34.8299997   2.9189992 109.2584990  36.2109997
   3.0245594 109.3455728  35.3523593   6.1249992 110.3054990  31.5489997
   5.6999992 111.1154990  31.2669997   7.0289992 110.3914990  31.2469997
   6.1890706 110.4279557  31.4695836  17.6989992  95.5804990  32.8319997
  16.8859992  95.9054990  32.4449997  17.9319992  94.8194990  32.2989997
  17.6191347  95.5221891  32.7069824   3.5269992 113.5624990  31.5969997
   2.8059992 114.0024990  31.1459997   3.1609992 113.3114990  32.4449997
   3.3789632 113.5887235  31.6499649 102.8469992  46.8364990  92.8429997
 102.5509992  46.6714990  91.9479997 103.7779992  46.6164990  92.8329997
 102.9323909  46.7841274  92.7190110   5.9939992 113.1624990  30.6259997
   5.1289992 113.2344990  31.0299997   5.9389992 113.7094990  29.8429997
   5.8682289 113.2463242  30.5753749  10.7049992 113.0504990  29.8019997
  10.2479992 113.5794990  29.1479997  10.8669992 113.6534990  30.5269997
  10.6643919 113.2043990  29.8105740  13.0319992 111.9284990  30.7469997
  12.1279992 112.0934990  30.4809997  13.4609992 112.7814990  30.6809997
  12.9662017 112.0664184  30.7016495  15.6359992 113.4984990  31.0419997
  15.4549992 114.4144990  30.8309997  15.8129992 113.0874990  30.1949997
  15.6351377 113.5683365  30.8987178   2.9419992 112.1854990  28.5069997
   2.9229992 111.7594990  29.3639997   3.7459992 111.8664990  28.0979997
   3.0481393 112.0840297  28.5690155   5.0829992 110.8954990  27.1619997
   4.8639992 109.9784990  27.3319997   5.9069992 111.0354990  27.6279997
   5.1644702 110.7890523  27.2482510   7.6199992 111.3654990  28.0109997
   7.8329992 110.4774990  27.7239997   7.6849992 111.3304990  28.9649997
   7.6579149 111.2393338  28.1007351  11.1289992  97.0294990  27.1549997
  10.4539992  96.3994990  27.4109997  11.6929992  96.5454990  26.5519997
  11.1129363  96.8778886  27.1084810  16.2709992  95.1364990  27.2679997
  16.8749992  95.6844990  26.7659997  15.4019992  95.4554990  27.0269997
  16.2360419  95.2545628  27.1667741  17.9979992  96.2754990  25.6009997
  18.6099992  95.7614990  25.0739997  18.3809992  97.1524990  25.6239997
  18.1333867  96.3237613  25.5320888 107.4669992  52.2104990  90.7329997
 106.5659992  52.3934990  90.4649997 107.5009992  52.4694990  91.6539997
 107.3483021  52.2705505  90.8208206   3.4549992  95.6634990  24.9769997
   2.6779992  95.4284990  24.4699997   3.9859992  94.8664990  24.9859997
   3.4203735  95.5236462  24.9088090   2.2919992  95.4614990  20.7809997
   2.7309992  96.0724990  20.1889997   1.6579992  95.9994990  21.2549997
   2.2663859  95.6179076  20.7640287   8.0349992  95.5894990  24.7899997
   8.9089992  95.9784990  24.7609997   7.8989992  95.3744990  25.7129997
   8.1361953  95.6136654  24.9107599  13.5909992  95.6194990  26.4399997
  13.6679992  95.7154990  25.4899997  13.3159992  94.7124990  26.5679997
  13.5643233  95.5099093  26.3273665  14.9449992  95.6454990  22.1319997
  14.2419992  96.2604990  21.9219997  14.4999992  94.8084990  22.2629997
  14.7886550  95.6164679  22.1209819   2.1929992 111.4094990  21.6779997
   1.5079992 111.3714990  21.0109997   2.1959992 112.3214990  21.9659997
   2.0996806 111.5276669  21.6256961   4.1529992  97.3774990  19.2229997
   4.6439992  96.7474990  18.6959997   4.7759992  97.6734990  19.8859997
   4.3045304  97.3312387  19.2404922   9.1789992  97.6704990  21.6799997
   9.3569992  97.0234990  22.3629997   9.1249992  98.5044990  22.1469997
   9.1960678  97.6946615  21.8366283  11.0569992 112.6184990  20.0759997
  11.9229992 112.9854990  19.8979997  10.8099992 112.1794990  19.2619997
  11.1421853 112.6094021  19.9415813  17.7659992 112.1814990  22.7549997
  17.5719992 111.4334990  22.1899997  17.7269992 112.9394990  22.1719997
  17.7341645 112.1815797  22.5988131 113.1979992  44.4544990  79.0999997
 112.6439992  44.0584990  78.4279997 113.2989992  45.3654990  78.8229997
 113.1357084  44.5233565  78.9704381   3.4129992  96.1774990  34.4949997
   3.0469992  95.4114990  34.9369997   4.3259992  96.2064990  34.7809997
   3.4863172  96.0765335  34.5941872   4.0109992 112.3294990  18.7029997
   3.7429992 112.6154990  19.5769997   4.7819992 111.7834990  18.8559997
   4.0785926 112.2947790  18.8431188  31.3899992 104.8194990  24.9359997
  31.4789992 105.7634990  24.8029997  30.7509992 104.5444990  24.2779997
  31.3158378 104.9113846  24.8289258  30.3229992 104.0744990  28.3549997
  30.2839992 103.4284990  29.0599997  29.9999992 103.6074990  27.5829997
  30.2740469 103.9230005  28.3472803  22.6909992 103.6884990  29.9479997
  22.7319992 103.0634990  30.6709997  23.3939992 104.3124990  30.1299997
  22.7916223 103.6872318  30.0716164  34.0289992 107.0134990  26.6559997
  33.5879992 106.2934990  27.1069997  34.0159992 107.7344990  27.2859997
  33.9669215 107.0124303  26.8028088  23.6149992 108.1384990  28.4829997
  23.2449992 107.3364990  28.1129997  24.5559992 107.9704990  28.5289997
  23.6915984 108.0059649  28.4385586  20.2249992 101.7984990  23.8749997
  19.7769992 102.6444990  23.8569997  19.6639992 101.2194990  23.3599997
  20.0878546 101.8359004  23.8028874  20.9349992 103.9604990  26.0009997
  21.1489992 103.1904990  26.5279997  21.6729992 104.0504990  25.3979997
  21.0640073 103.8673546  25.9915786  31.1399992 112.1174990  26.8679997
  31.7599992 111.4414990  26.5949997  30.9319992 111.8994990  27.7769997
  31.1967679 111.9955032  26.9534518 113.1609992  50.2554990  91.9369997
 112.3099992  50.4934990  91.5699997 113.7519992  50.2384990  91.1839997
 113.1242468  50.2858251  91.7848902  28.7119992 106.5064990  28.7609997
  29.0159992 105.8204990  28.1659997  29.4339992 106.6254990  29.3789997
  28.8511240 106.4287325  28.7630941  37.3749992  98.1084990  29.6209997
  37.4239992  98.7184990  30.3569997  37.8009992  98.5694990  28.8979997
  37.4392851  98.2543266  29.6240532  31.8529992 100.9004990  29.0879997
  31.9949992  99.9544990  29.1079997  31.7469992 101.1074990  28.1599997
  31.8581051 100.7989706  28.9652249  25.0079992  99.0024990  26.3609997
  25.0509992  99.8624990  25.9419997  24.5499992  98.4494990  25.7269997
  24.9520163  99.0454174  26.2180604  32.7299992  99.1334990  24.7609997
  33.3759992  98.8044990  25.3859997  33.2399992  99.6504990  24.1389997
  32.8874289  99.1584333  24.7623681  21.6279992 101.3994990  27.1229997
  22.2819992 100.8494990  27.5549997  21.6519992 101.1254990  26.2059997
  21.7207199 101.2872178  27.0581650  26.7839992 102.9494990  26.3379997
  27.3999992 102.4224990  26.8469997  26.1979992 102.3094990  25.9339997
  26.7890652 102.7908919  26.3530277  37.7669992  99.5864990  31.8569997
  37.0779992 100.2444990  31.7619997  37.7819992  99.3884990  32.7939997
  37.6747756  99.6497614  31.9705795  23.8179992  97.9204990  30.4349997
  23.5989992  98.4504990  29.6679997  23.1499992  98.1464990  31.0819997
  23.6976975  98.0235979  30.4175123  31.1869992 107.4204990  23.9789997
  30.8909992 107.0974990  23.1269997  30.8629992 108.3204990  24.0199997
  31.1027458 107.4979678  23.8680598 111.4929992  53.2404990  79.5649997
 111.1209992  52.4154990  79.8749997 111.7709992  53.0574990  78.6679997
 111.4795997  53.1026160  79.4861551  26.3869992 105.5954990  30.7219997
  25.6469992 106.1944990  30.8259997  27.1009992 106.1494990  30.4059997
  26.3823146 105.7522611  30.6935150  34.4939992  98.4244990  26.7419997
  34.2789992  97.6584990  27.2749997  35.1499992  98.8964990  27.2549997
  34.5532673  98.3835739  26.8841972  23.4119992  99.8124990  28.3869997
  24.0249992 100.4454990  28.7599997  23.9239992  99.3404990  27.7309997
  23.5651933  99.8353380  28.3493477  24.7939992 107.5604990  31.5089997
  24.7889992 108.4394990  31.1309997  23.9409992 107.4764990  31.9339997
  24.6779199 107.6695901  31.5146942  20.9159992 107.2314990  22.2909997
  20.6439992 107.4604990  21.4019997  20.9609992 108.0684990  22.7519997
  20.8848360 107.3761034  22.2316186  34.5409992 108.8524990  29.0039997
  33.5989992 108.9114990  29.1659997  34.8169992 109.7584990  28.8669997
  34.4495865 108.9830299  29.0076174  34.8409992  97.1394990  30.4209997
  34.1049992  97.7494990  30.3839997  35.5249992  97.5544990  29.8949997
  34.8325367  97.2792562  30.3448156  27.8439992  95.2254990  27.8869997
  27.7269992  94.2774990  27.8329997  26.9889992  95.5584990  28.1599997
  27.7123691  95.1405842  27.9165072  32.7929992 110.6334990  25.6289997
  33.2179992 109.9264990  25.1439997  33.1099992 111.4354990  25.2119997
  32.8940266 110.6450201  25.5062461  33.9519992 108.5344990  24.1379997
  33.6949992 107.8444990  23.5259997  34.0229992 108.0914990  24.9829997
  33.9264322 108.3801568  24.1685372 108.6539992  48.0484990  86.5869997
 107.7259992  47.8174990  86.5599997 109.1049992  47.2714990  86.2569997
 108.5878165  47.9117785  86.5386772  35.6379992 107.1014990  32.6149997
  35.7779992 106.5094990  31.8759997  35.8059992 107.9744990  32.2589997
  35.6798734 107.1384041  32.4656937  30.1109992 104.0634990  22.3879997
  29.3989992 104.5984990  22.0359997  30.8019992 104.1184990  21.7279997
  30.1069704 104.1441663  22.2505797  30.1649992 102.5204990  19.4259997
  30.8659992 102.5434990  20.0779997  30.4669992 101.8924990  18.7699997
  30.3018202 102.4387223  19.4265591  37.4799992 103.4414990  30.6809997
  36.8279992 104.1354990  30.7699997  37.9449992 103.6514990  29.8709997
  37.4535357 103.5649544  30.5837056  33.5169992 104.2724990  23.3389997
  32.7849992 104.5014990  23.9119997  33.9639992 103.5594990  23.7939997
  33.4772753 104.2073984  23.4789698  33.4139992 102.4474990  32.4069997
  33.4939992 103.2104990  32.9789997  32.8129992 102.7264990  31.7169997
  33.3436547 102.5897468  32.3920029  25.1619992 104.9034990  25.2219997
  24.8319992 104.5324990  24.4039997  25.7499992 104.2324990  25.5689997
  25.1963182 104.7620648  25.1569898  26.5289992 108.3314990  27.9029997
  26.4339992 107.7524990  27.1469997  27.2579992 107.9604990  28.3989997
  26.6146011 108.2020572  27.8666011  25.5289992 103.6714990  28.8549997
  26.0939992 103.7934990  28.0929997  25.8469992 104.3094990  29.4939997
  25.6493619 103.7744388  28.8370019  31.8379992 109.1754990  29.5889997
  31.5969992 109.8374990  30.2369997  31.6399992 108.3404990  30.0139997
  31.7782662 109.1532704  29.7351008 101.1969992  52.3774990  82.7199997
 101.7239992  53.1504990  82.5189997 100.3169992  52.6014990  82.4179997
 101.1501793  52.5136652  82.6516304  26.4089992 108.0714990  33.5729997
  26.0969992 108.8534990  34.0279997  25.7589992 107.9184990  32.8869997
  26.2784858 108.1577882  33.5425344  32.3879992 103.4354990  21.0249997
  32.9669992 103.5854990  21.7709997  32.8019992 103.9054990  20.3009997
  32.5233358 103.5195966  21.0293935  30.1139992 110.1714990  24.4599997
  30.5879992 110.4674990  25.2369997  29.5509992 110.9104990  24.2269997
  30.1027890 110.3118047  24.5348084  24.6479992 110.1424990  34.3359997
  24.6559992 110.0064990  33.3889997  23.7319992 110.0254990  34.5879997
  24.5252528 110.1080475  34.2403226  36.0859992  95.1854990  20.8369997
  35.1859992  95.3234990  21.1329997  36.3379992  96.0164990  20.4359997
  35.9967727  95.3168705  20.8232935  24.1519992 103.9724990  22.8109997
  23.8599992 104.7404990  22.3199997  23.4779992 103.3134990  22.6479997
  24.0208843 103.9884537  22.7217695  37.2759992 109.5514990  19.2139997
  37.3489992 110.4904990  19.3839997  38.1809992 109.2464990  19.1579997
  37.4084170 109.6388294  19.2297045  20.2449992 106.3354990  31.6259997
  19.7439992 106.3074990  30.8109997  20.2509992 105.4304990  31.9359997
  20.1771690 106.2092234  31.5562770  19.9959992 109.1164990  28.5099997
  20.9419992 108.9714990  28.4909997  19.8829992 109.9004990  29.0469997
  20.1103578 109.2026708  28.5800300  29.5859992 113.1284990  22.8749997
  29.5109992 113.0074990  21.9279997  29.6189992 114.0774990  22.9929997
  29.5802083 113.2402639  22.7614973 102.6239992  50.0404990  82.2959997
 102.3829992  50.9654990  82.3379997 101.8839992  49.5814990  82.6919997
 102.4908934  50.1050881  82.3553191  23.2399992 111.9174990  24.6559997
  23.3919992 111.5694990  25.5339997  22.3889992 111.5604990  24.3999997
  23.1458344 111.8215891  24.7416851  32.6879992 112.2824990  19.8769997
  33.0629992 111.5384990  19.4059997  32.6919992 112.0124990  20.7949997
  32.7398969 112.1440920  19.9366475  32.3569992 112.2084990  22.6259997
  31.4219992 112.3084990  22.8049997  32.6369992 111.4984990  23.2049997
  32.2669471 112.1262944  22.7286678  22.4939992 107.6594990  32.6689997
  22.7099992 107.2974990  33.5289997  21.6389992 107.2844990  32.4599997
  22.4079082 107.5593377  32.7582396  25.1129992  96.1294990  28.6649997
  24.2509992  96.0424990  28.2569997  25.0909992  96.9854990  29.0929997
  24.9920557  96.2333078  28.6670202  29.7759992  95.8514990  32.0399997
  30.1959992  95.4364990  32.7929997  28.8429992  95.6724990  32.1569997
  29.7073736  95.7704921  32.1588950  33.8649992 104.4674990  18.6539997
  33.9069992 104.2454990  17.7239997  34.7139992 104.8664990  18.8439997
  33.9855253 104.4910510  18.5523804  29.4379992  98.3434990  19.3249997
  29.1839992  98.3624990  20.2469997  29.1809992  97.4724990  19.0229997
  29.3684508  98.2283292  19.4104786  25.2039992 101.0944990  29.7599997
  24.5619992 101.0544990  30.4689997  25.2409992 102.0214990  29.5219997
  25.1211659 101.2142540  29.8248463  25.2009992 101.3154990  24.6719997
  24.3079992 100.9754990  24.6129997  25.6519992 100.9384990  23.9159997
  25.1397185 101.2180220  24.5617698 103.1389992  54.1894990  88.6109997
 103.5019992  55.0434990  88.3779997 103.6709992  53.8974990  89.3519997
 103.2605141  54.2668907  88.6792079  30.7369992 101.7314990  23.4889997
  30.3279992 102.5464990  23.1969997  31.4569992 101.5914990  22.8749997
  30.7784439 101.8240383  23.3660098  31.7409992 101.1774990  26.3029997
  31.5459992 101.7834990  25.5879997  31.9229992 100.3444990  25.8689997
  31.7389195 101.1477936  26.1464079  22.9539992 101.4154990  31.6269997
  22.9159992 101.8154990  32.4959997  22.4629992 100.5984990  31.7169997
  22.8824374 101.3598228  31.7580980  26.3199992  98.7894990  18.4259997
  25.8889992  98.3444990  19.1549997  25.6019992  99.1604990  17.9129997
  26.1639176  98.7787063  18.4564913  19.5619992  98.5314990  25.4779997
  20.1929992  98.5024990  26.1969997  20.0119992  98.1064990  24.7469997
  19.7091082  98.4701269  25.4776307  20.8359992  99.2774990  20.9019997
  21.3109992  99.8684990  20.3169997  20.1189992  99.8074990  21.2489997
  20.8040406  99.4301011  20.8688495  31.0049992 102.8154990  30.9739997
  31.3289992 102.1844990  30.3309997  30.5649992 102.2814990  31.6349997
  30.9898707 102.6568261  30.9753195  27.7829992  98.7434990  25.7579997
  26.8719992  98.8004990  26.0469997  28.2879992  98.6834990  26.5689997
  27.7266873  98.7431838  25.9071190  22.6109992 100.3724990  24.5849997
  21.7219992 100.4714990  24.2449997  22.9069992  99.5304990  24.2389997
  22.5294001 100.2722473  24.4917318  26.2639992 100.3724990  22.2419997
  27.1959992 100.5014990  22.4199997  26.0489992 101.0414990  21.5919997
  26.3624472 100.4805817  22.1784873 101.3069992  55.0614990  81.8409997
 100.3579992  55.1674990  81.8929997 101.6589992  55.8824990  82.1859997
 101.2246214  55.1869361  81.8947317  32.1879992  97.9784990  29.0219997
  31.5109992  98.1094990  29.6859997  31.7019992  97.8234990  28.2119997
  32.0297265  97.9754665  29.0033380  24.9379992 101.5664990  19.8079997
  24.3959992 101.1874990  19.1169997  25.7719992 101.7614990  19.3799997
  24.9764390 101.5409091  19.6554374  29.1029992 101.5304990  27.6449997
  29.6669992 100.9844990  27.0979997  28.9549992 101.0094990  28.4339997
  29.1603037 101.3851798  27.6767212  24.1049992  97.6674990  24.0639997
  23.7869992  96.7644990  24.0279997  24.8859992  97.6694990  23.5109997
  24.1671079  97.5442240  23.9842908  27.7289992  99.9194990  30.0589997
  26.8939992 100.3734990  30.1699997  28.2529992 100.1954990  30.8109997
  27.6856072 100.0188960  30.1758118  28.2729992 106.1324990  21.7439997
  27.5279992 105.6244990  21.4219997  28.1389992 106.1814990  22.6899997
  28.1529334 106.0696144  21.8278892  35.4229992 105.2654990  30.5309997
  36.0649992 105.7214990  29.9869997  34.5929992 105.3784990  30.0679997
  35.3986536 105.3431813  30.3939579  32.1709992  98.9464990  19.9429997
  31.2319992  99.0574990  19.7919997  32.4679992  99.8024990  20.2499997
  32.0826136  99.0774977  19.9638568  32.8889992 100.8134990  21.6039997
  33.7809992 100.6754990  21.9229997  32.9459992 101.6044990  21.0669997
  33.0187380 100.9014777  21.5750981  23.3979992 105.4274990  27.5139997
  24.1429992 105.4244990  26.9119997  23.4759992 104.6034990  27.9949997
  23.5103365 105.3157395  27.4967412 106.6829992  50.2884990  88.3119997
 106.2569992  50.0604990  89.1379997 107.2639992  49.5494990  88.1289997
 106.7031587  50.1574084  88.4004111  30.3989992 107.5904990  20.7689997
  30.1039992 108.4174990  21.1509997  29.6959992 106.9714990  20.9659997
  30.2636379 107.6199182  20.8478636  37.7739992 101.0224990  21.2989997
  37.2199992 100.6264990  20.6259997  37.8749992 101.9334990  21.0209997
  37.7118589 101.0913904  21.1693839  37.7369992 106.8234990  34.1359997
  36.8859992 107.0614990  33.7679997  38.3279992 106.8064990  33.3819997
  37.7003831 106.8537623  33.9838448  36.0689992 109.8084990  21.7639997
  35.6969992 108.9834990  22.0729997  36.3469992 109.6254990  20.8659997
  36.0555807 109.6707031  21.6850063  33.2299992 104.6164990  28.7849997
  32.3019992 104.3854990  28.7579997  33.6809992 103.8394990  28.4549997
  33.1638165 104.4797785  28.7366772  25.7729992 108.9454990  24.9179997
  26.2999992 109.7184990  24.7179997  24.8929992 109.1694990  24.6159997
  25.7262121 109.0817344  24.8497460  21.5279992 103.8074990  19.5049997
  22.1439992 104.4344990  19.8849997  20.6659992 104.1234990  19.7769997
  21.4957678 103.9359423  19.5937192  27.1999992 106.6084990  24.4939997
  26.9589992 107.5334990  24.5359997  26.4599992 106.1494990  24.8909997
  27.0669463 106.6730969  24.5534279  27.7149992 110.7574990  30.8089997
  28.0779992 111.6114990  30.5759997  28.2469992 110.4654990  31.5499997
  27.8365141 110.8348907  30.8772079  25.8829992 111.6294990  24.0399997
  24.9339992 111.7354990  24.0909997  26.2349992 112.4504990  24.3839997
  25.8005647 111.7550029  24.0934882 109.3419992  54.8404990  90.7809997
 108.7399992  54.2844990  90.2859997 109.6229992  55.5074990  90.1549997
 109.2975757  54.8545755  90.6285657  31.2589992 106.8564990  30.5099997
  30.8329992 106.6284990  31.3359997  31.8399992 106.1174990  30.3279997
  31.2792088 106.7254393  30.5984454  33.4619992 107.7854990  19.5839997
  33.8149992 107.4054990  20.3879997  32.5129992 107.6914990  19.6709997
  33.3820956 107.7207867  19.7058005  33.9179992 111.4084990  32.9789997
  33.3159992 110.8524990  32.4839997  34.1989992 112.0754990  32.3529997
  33.8735757 111.4225755  32.8265657  37.9649992 112.2644990  19.7849997
  38.7089992 112.8504990  19.6449997  37.2709992 112.8334990  20.1179997
  37.9729809 112.4215830  19.8108572  34.3279992 106.4574990  21.8109997
  34.0509992 105.7294990  22.3669997  35.2549992 106.5764990  22.0159997
  34.4154419 106.3739436  21.9148264  21.6909992 110.4454990  30.8219997
  21.9079992 109.5134990  30.7909997  21.9379992 110.7204990  31.7049997
  21.7540948 110.3550976  30.9371268  27.5529992 108.8974990  18.0309997
  27.7919992 108.1484990  17.4839997  27.2839992 108.5094990  18.8639997
  27.5493233 108.7426865  18.0687791  26.4899992 108.4674990  20.4869997
  26.6369992 107.9474990  21.2769997  26.4869992 109.3744990  20.7939997
  26.5097102 108.5188964  20.6365907  22.9429992 105.7194990  20.9979997
  22.2569992 106.0724990  21.5649997  23.4659992 106.4824990  20.7509997
  22.9198402 105.8708912  21.0421783  30.7739992  98.3824990  31.2769997
  31.4729992  98.4564990  31.9269997  30.3939992  97.5174990  31.4309997
  30.8182662  98.2757050  31.3867412  97.4639992  42.0734990  90.1879997
  96.5709992  42.4114990  90.1209997  97.3649992  41.2174990  90.6059997
  97.3285241  42.0040941  90.2352982  31.5589992  98.0344990  22.3739997
  31.7789992  98.5054990  21.5699997  32.1169992  98.4284990  23.0439997
  31.6646044  98.1522946  22.3545207  29.2279992 110.1644990  21.2369997
  28.4109992 110.6614990  21.2889997  29.7569992 110.6404990  20.5959997
  29.1878125 110.2967000  21.1575289  28.7589992  99.7624990  23.2089997
  29.5709992 100.2664990  23.2549997  28.5139992  99.6174990  24.1229997
  28.8371091  99.8119366  23.3388552  29.2949992 100.7484990  32.3929997
  29.4139992 101.3224990  33.1499997  29.9499992 100.0604990  32.5079997
  29.3998684 100.7340205  32.5121656  29.6429992  96.8434990  24.1469997
  29.2959992  97.4604990  24.7909997  30.3009992  97.3444990  23.6649997
  29.6844430  96.9956860  24.1700045  26.5659992 111.2084990  21.2179997
  26.7269992 112.0084990  20.7179997  26.3689992 111.5154990  22.1029997
  26.5613906 111.3593690  21.2692316  25.2999992  97.9064990  20.8339997
  25.2169992  98.7944990  21.1809997  26.1899992  97.6414990  21.0659997
  25.4089331  97.9921177  20.9128067  35.4989992  98.6554990  33.2279997
  34.5829992  98.9174990  33.1409997  35.8349992  98.6524990  32.3319997
  35.4188499  98.6910174  33.0948748  34.1009992 102.4054990  27.3239997
  33.3039992 101.9904990  26.9959997  34.5459992 101.7154990  27.8149997
  34.0520367 102.2553372  27.3454897  23.5589992 108.3334990  19.8939997
  24.1509992 109.0334990  20.1709997  24.0179992 107.9004990  19.1749997
  23.7021652 108.3707686  19.8346515  97.1149992  53.8774990  88.6229997
  97.3319992  52.9454990  88.5919997  97.3619992  54.1524990  89.5069997
  97.1780543  53.7870877  88.7381412  21.8749992 100.9984990  19.0099997
  21.8299992 101.9374990  19.1889997  20.9869992 100.7624990  18.7409997
  21.7488166 101.0951698  18.9981507  35.1879992 111.6614990  28.9459997
  35.0319992 112.3404990  28.2889997  36.1199992 111.7334990  29.1489997
  35.2927328 111.7641586  28.8835529  22.6829992  95.7794990  27.6829997
  22.4539992  95.8384990  26.7559997  22.2399992  94.9884990  27.9899997
  22.5917387  95.6806413  27.5975223  21.6129992 109.7204990  23.8439997
  20.7809992 110.1924990  23.8709997  22.1589992 110.2304990  23.2449997
  21.5728710 109.8540317  23.7667570  29.5909992 110.7604990  18.1689997
  28.9469992 110.1294990  18.4909997  30.3529992 110.2294990  17.9379997
  29.6058708 110.6023171  18.1818462  34.1949992 110.5774990  18.4029997
  34.4779992 109.7824990  18.8559997  34.9349992 110.8104990  17.8419997
  34.3337295 110.5002349  18.3891469  25.1499992 106.4864990  18.2609997
  25.2139992 105.6924990  18.7909997  25.8029992 106.3684990  17.5709997
  25.2470483 106.3617496  18.2403407  27.4639992 106.1124990  35.5609997
  27.1359992 106.3834990  34.7039997  27.6159992 105.1714990  35.4729997
  27.4396412 106.0224058  35.4317804  30.5019992 107.5334990  17.9969997
  30.2339992 107.7144990  18.8969997  30.2959992 106.6084990  17.8649997
  30.4373443 107.4331873  18.1026643  33.1989992 106.0284990  32.9439997
  33.9439992 106.6174990  32.8249997  32.4409992 106.6104990  33.0069997
  33.1985289 106.1877067  32.9362292 101.9139992  51.8994990  78.2889997
 102.0609992  51.3794990  79.0789997 101.9109992  52.8064990  78.5949997
 101.9337300  51.9508975  78.4385877  26.2989992 104.4594990  20.5669997
  25.8399992 103.9754990  21.2519997  26.5539992 103.7904990  19.9309997
  26.2705997 104.3028491  20.5748734  25.5879992 102.3524990  32.9229997
  24.9699992 103.0264990  33.2029997  25.9319992 102.6734990  32.0889997
  25.5498078 102.4882298  32.8486609  27.3699992 102.7024990  18.8289997
  27.1899992 102.5474990  17.9019997  28.3199992 102.8104990  18.8739997
  27.4737804 102.6958821  18.7081966  36.7599992 105.0564990  18.2749997
  36.4869992 104.6324990  17.4619997  36.7999992 105.9884990  18.0579997
  36.7280201 105.1243523  18.1343548  25.9279992  99.7074990  34.0049997
  26.0779992  98.9784990  33.4029997  25.9299992 100.4844990  33.4459997
  25.9487967  99.7127720  33.8470523  26.3399992  98.0764990  31.4979997
  26.8759992  98.5284990  30.8459997  25.4879992  97.9684990  31.0749997
  26.2981795  98.1237444  31.3516211  27.9219992 103.5164990  31.7369997
  28.6729992 103.3604990  31.1639997  27.5829992 104.3684990  31.4619997
  27.9789587 103.6103149  31.6214060  27.1459992  95.5334990  31.9289997
  27.0479992  96.4794990  31.8239997  26.4029992  95.1604990  31.4529997
  27.0322123  95.6126811  31.8503204  27.2679992 113.3924990  19.8299997
  28.2009992 113.5504990  19.9739997  27.0029992 114.0684990  19.2049997
  27.3599846 113.5054567  19.7652930  20.8359992 108.0294990  19.3129997
  21.7499992 108.1084990  19.5859997  20.8429992 107.3424990  18.6469997
  20.9620624 107.9474074  19.2603045 106.1979992  41.8144990  89.0779997
 106.8969992  41.8884990  89.7279997 105.8179992  40.9494990  89.2329997
 106.2422095  41.7077402  89.1877982  19.4849992 113.4224990  24.3899997
  18.8379992 112.9604990  23.8579997  19.8399992 112.7504990  24.9729997
  19.4443741 113.2684785  24.3959157  20.3549992 111.5024990  26.1949997
  20.0209992 110.6224990  26.3669997  20.5769992 111.8484990  27.0599997
  20.3392565 111.4287410  26.3354263  37.9039992 112.3124990  29.1759997
  37.8819992 112.4974990  30.1139997  38.5939992 112.8804990  28.8349997
  37.9943383 112.4147104  29.2584580  37.2189992 105.9254990  22.2499997
  38.0689992 106.3464990  22.3769997  37.2239992 105.1854990  22.8569997
  37.3361143 105.8831106  22.3494732  37.6129992 103.9794990  24.0729997
  36.8869992 103.4994990  24.4709997  38.1939992 104.1844990  24.8049997
  37.5922504 103.9415592  24.2264199  37.3719992 106.7644990  29.0209997
  38.2059992 106.3864990  28.7399997  37.4839992 107.7074990  28.9019997
  37.5011917 106.8402954  28.9664844  35.8579992 109.6424990  31.3279997
  35.2109992 109.9674990  31.9529997  35.3409992 109.2014990  30.6539997
  35.6994112 109.6274133  31.3225272  37.8809992 103.8804990  20.4639997
  37.3599992 104.2364990  19.7459997  37.8479992 104.5554990  21.1429997
  37.8050955 104.0205023  20.4572634  36.2299992 101.1194990  19.0149997
  36.3269992 101.7864990  18.3349997  36.0899992 100.3044990  18.5339997
  36.2243407 101.1005670  18.8568312  35.3999992 102.5004990  24.6359997
  35.2499992 101.5554990  24.6159997  35.0459992 102.7814990  25.4799997
  35.3316351 102.4091656  24.7473202 106.9829992  41.4664990  80.1749997
 107.2029992  41.9374990  79.3719997 107.5409992  41.8604990  80.8459997
 107.0885851  41.5843272  80.1556134  20.4349992 104.5784990  28.6469997
  20.6189992 104.4964990  27.7109997  21.2839992 104.4544990  29.0699997
  20.5750132 104.5505066  28.5761460  36.2559992 104.4704990  34.2749997
  36.8389992 103.7354990  34.4669997  36.8199992 105.2424990  34.3219997
  36.4119781 104.4743156  34.3076146  35.4779992  98.5274990  18.1329997
  36.0879992  98.1564990  18.7699997  34.6409992  98.1064990  18.3289997
  35.4483704  98.4197942  18.2467077  35.1099992 100.0824990  23.0989997
  35.3899992  99.1754990  23.2229997  35.8689992 100.5164990  22.7099997
  35.2509258 100.0170935  23.0633691  35.7219992 100.6644990  28.5349997
  36.6549992 100.8764990  28.4999997  35.4869992 100.7654990  29.4569997
  35.8179517 100.7071844  28.6549113  35.7509992 101.4014990  31.3109997
  34.9079992 101.6694990  31.6759997  36.1939992 102.2234990  31.0999997
  35.6954035 101.5493351  31.3324770  35.7239992  97.3454990  23.1469997
  35.9059992  96.8964990  23.9719997  35.1239992  96.7614990  22.6829997
  35.6678187  97.2050563  23.1972721  21.2539992  98.1614990  27.6789997
  21.6989992  97.3694990  27.9809997  21.7199992  98.8774990  28.1089997
  21.3779718  98.1499546  27.7785247  19.5579992 101.1604990  28.7479997
  20.0499992 100.9394990  27.9569997  19.9199992 102.0004990  29.0289997
  19.6742923 101.2438480  28.6777389  37.5899992  97.4134990  19.6749997
  38.0029992  96.6924990  19.1999997  38.2719992  98.0824990  19.7329997
  37.7386060  97.4053741  19.6179233 104.6519992  53.5964990  79.0379997
 103.8349992  54.0934990  79.0909997 105.1809992  54.0724990  78.3979997
 104.6117898  53.7288123  78.9587274  19.8709992  97.4184990  22.8019997
  18.9459992  97.6264990  22.6729997  20.3249992  97.9024990  22.1119997
  19.8056298  97.5124311  22.6910433  34.6419992 112.4024990  24.7479997
  35.2939992 112.0544990  24.1399997  35.1529992 112.8904990  25.3939997
  34.8002872 112.4208248  24.7520964  19.8349992  96.1564990  31.1459997
  19.1699992  95.9104990  31.7889997  19.3919992  96.7784990  30.5689997
  19.6841168  96.2069225  31.1559830  22.0269992 109.3314990  35.2909997
  21.2059992 109.5064990  34.8299997  21.7749992 109.2584990  36.2109997
  21.8805594 109.3455728  35.3523593  24.9809992 110.3054990  31.5489997
  24.5559992 111.1154990  31.2669997  25.8849992 110.3914990  31.2469997
  25.0450706 110.4279557  31.4695836  36.5549992  95.5804990  32.8319997
  35.7419992  95.9054990  32.4449997  36.7879992  94.8194990  32.2989997
  36.4751347  95.5221891  32.7069824  24.8499992 113.1624990  30.6259997
  23.9849992 113.2344990  31.0299997  24.7949992 113.7094990  29.8429997
  24.7242289 113.2463242  30.5753749  29.5609992 113.0504990  29.8019997
  29.1039992 113.5794990  29.1479997  29.7229992 113.6534990  30.5269997
  29.5203919 113.2043990  29.8105740  31.8879992 111.9284990  30.7469997
  30.9839992 112.0934990  30.4809997  32.3169992 112.7814990  30.6809997
  31.8222017 112.0664184  30.7016495  34.4919992 113.4984990  31.0419997
  34.3109992 114.4144990  30.8309997  34.6689992 113.0874990  30.1949997
  34.4911377 113.5683365  30.8987178 104.1829992  43.1944990  81.0099997
 104.9949992  43.6984990  81.0559997 103.9379992  43.0494990  81.9239997
 104.2611091  43.2439366  81.1398552  21.7979992 112.1854990  28.5069997
  21.7789992 111.7594990  29.3639997  22.6019992 111.8664990  28.0979997
  21.9041393 112.0840297  28.5690155  23.9389992 110.8954990  27.1619997
  23.7199992 109.9784990  27.3319997  24.7629992 111.0354990  27.6279997
  24.0204702 110.7890523  27.2482510  26.4759992 111.3654990  28.0109997
  26.6889992 110.4774990  27.7239997  26.5409992 111.3304990  28.9649997
  26.5139149 111.2393338  28.1007351  29.9849992  97.0294990  27.1549997
  29.3099992  96.3994990  27.4109997  30.5489992  96.5454990  26.5519997
  29.9689363  96.8778886  27.1084810  35.1269992  95.1364990  27.2679997
  35.7309992  95.6844990  26.7659997  34.2579992  95.4554990  27.0269997
  35.0920419  95.2545628  27.1667741  36.8539992  96.2754990  25.6009997
  37.4659992  95.7614990  25.0739997  37.2369992  97.1524990  25.6239997
  36.9893867  96.3237613  25.5320888  22.3109992  95.6634990  24.9769997
  21.5339992  95.4284990  24.4699997  22.8419992  94.8664990  24.9859997
  22.2763735  95.5236462  24.9088090  21.1479992  95.4614990  20.7809997
  21.5869992  96.0724990  20.1889997  20.5139992  95.9994990  21.2549997
  21.1223859  95.6179076  20.7640287  26.8909992  95.5894990  24.7899997
  27.7649992  95.9784990  24.7609997  26.7549992  95.3744990  25.7129997
  26.9921953  95.6136654  24.9107599  32.4469992  95.6194990  26.4399997
  32.5239992  95.7154990  25.4899997  32.1719992  94.7124990  26.5679997
  32.4203233  95.5099093  26.3273665 104.7189992  44.1804990  90.1949997
 104.8379992  44.7544990  90.9519997 105.3739992  43.4924990  90.3099997
 104.8238684  44.1660205  90.3141656  33.8009992  95.6454990  22.1319997
  33.0979992  96.2604990  21.9219997  33.3559992  94.8084990  22.2629997
  33.6446550  95.6164679  22.1209819  21.0489992 111.4094990  21.6779997
  20.3639992 111.3714990  21.0109997  21.0519992 112.3214990  21.9659997
  20.9556806 111.5276669  21.6256961  23.0089992  97.3774990  19.2229997
  23.4999992  96.7474990  18.6959997  23.6319992  97.6734990  19.8859997
  23.1605304  97.3312387  19.2404922  28.0349992  97.6704990  21.6799997
  28.2129992  97.0234990  22.3629997  27.9809992  98.5044990  22.1469997
  28.0520678  97.6946615  21.8366283  29.9129992 112.6184990  20.0759997
  30.7789992 112.9854990  19.8979997  29.6659992 112.1794990  19.2619997
  29.9981853 112.6094021  19.9415813  36.6219992 112.1814990  22.7549997
  36.4279992 111.4334990  22.1899997  36.5829992 112.9394990  22.1719997
  36.5901645 112.1815797  22.5988131  22.8669992 112.3294990  18.7029997
  22.5989992 112.6154990  19.5769997  23.6379992 111.7834990  18.8559997
  22.9345926 112.2947790  18.8431188  50.2459992 104.8194990  24.9359997
  50.3349992 105.7634990  24.8029997  49.6069992 104.5444990  24.2779997
  50.1718378 104.9113846  24.8289258  49.1789992 104.0744990  28.3549997
  49.1399992 103.4284990  29.0599997  48.8559992 103.6074990  27.5829997
  49.1300469 103.9230005  28.3472803  41.5469992 103.6884990  29.9479997
  41.5879992 103.0634990  30.6709997  42.2499992 104.3124990  30.1299997
  41.6476223 103.6872318  30.0716164 105.0669992  40.2754990  81.9479997
 104.7199992  40.8924990  82.5929997 105.7249992  40.7764990  81.4669997
 105.1085290  40.4276384  81.9711635  52.8849992 107.0134990  26.6559997
  52.4439992 106.2934990  27.1069997  52.8719992 107.7344990  27.2859997
  52.8229215 107.0124303  26.8028088  42.4709992 108.1384990  28.4829997
  42.1009992 107.3364990  28.1129997  43.4119992 107.9704990  28.5289997
  42.5475984 108.0059649  28.4385586  39.0809992 101.7984990  23.8749997
  38.6329992 102.6444990  23.8569997  38.5199992 101.2194990  23.3599997
  38.9438546 101.8359004  23.8028874  39.7909992 103.9604990  26.0009997
  40.0049992 103.1904990  26.5279997  40.5289992 104.0504990  25.3979997
  39.9200073 103.8673546  25.9915786  49.9959992 112.1174990  26.8679997
  50.6159992 111.4414990  26.5949997  49.7879992 111.8994990  27.7769997
  50.0527679 111.9955032  26.9534518  47.5679992 106.5064990  28.7609997
  47.8719992 105.8204990  28.1659997  48.2899992 106.6254990  29.3789997
  47.7071240 106.4287325  28.7630941  56.2309992  98.1084990  29.6209997
  56.2799992  98.7184990  30.3569997  56.6569992  98.5694990  28.8979997
  56.2952851  98.2543266  29.6240532  50.7089992 100.9004990  29.0879997
  50.8509992  99.9544990  29.1079997  50.6029992 101.1074990  28.1599997
  50.7141051 100.7989706  28.9652249  43.8639992  99.0024990  26.3609997
  43.9069992  99.8624990  25.9419997  43.4059992  98.4494990  25.7269997
  43.8080163  99.0454174  26.2180604  51.5859992  99.1334990  24.7609997
  52.2319992  98.8044990  25.3859997  52.0959992  99.6504990  24.1389997
  51.7434289  99.1584333  24.7623681 101.9899992  54.6404990  79.0199997
 102.1509992  55.4404990  78.5189997 101.7929992  54.9474990  79.9049997
 101.9853919  54.7914140  79.0710988  40.4839992 101.3994990  27.1229997
  41.1379992 100.8494990  27.5549997  40.5079992 101.1254990  26.2059997
  40.5767199 101.2872178  27.0581650  45.6399992 102.9494990  26.3379997
  46.2559992 102.4224990  26.8469997  45.0539992 102.3094990  25.9339997
  45.6450652 102.7908919  26.3530277  56.6229992  99.5864990  31.8569997
  55.9339992 100.2444990  31.7619997  56.6379992  99.3884990  32.7939997
  56.5307756  99.6497614  31.9705795  42.6739992  97.9204990  30.4349997
  42.4549992  98.4504990  29.6679997  42.0059992  98.1464990  31.0819997
  42.5536975  98.0235979  30.4175123  50.0429992 107.4204990  23.9789997
  49.7469992 107.0974990  23.1269997  49.7189992 108.3204990  24.0199997
  49.9587458 107.4979678  23.8680598  45.2429992 105.5954990  30.7219997
  44.5029992 106.1944990  30.8259997  45.9569992 106.1494990  30.4059997
  45.2383146 105.7522611  30.6935150  53.3499992  98.4244990  26.7419997
  53.1349992  97.6584990  27.2749997  54.0059992  98.8964990  27.2549997
  53.4092673  98.3835739  26.8841972  42.2679992  99.8124990  28.3869997
  42.8809992 100.4454990  28.7599997  42.7799992  99.3404990  27.7309997
  42.4211933  99.8353380  28.3493477  43.6499992 107.5604990  31.5089997
  43.6449992 108.4394990  31.1309997  42.7969992 107.4764990  31.9339997
  43.5339199 107.6695901  31.5146942  39.7719992 107.2314990  22.2909997
  39.4999992 107.4604990  21.4019997  39.8169992 108.0684990  22.7519997
  39.7408360 107.3761034  22.2316186 100.7239992  41.3384990  78.6359997
 100.6409992  42.2264990  78.9819997 101.6139992  41.0734990  78.8669997
 100.8329751  41.4242482  78.7146066  53.3969992 108.8524990  29.0039997
  52.4549992 108.9114990  29.1659997  53.6729992 109.7584990  28.8669997
  53.3055865 108.9830299  29.0076174  53.6969992  97.1394990  30.4209997
  52.9609992  97.7494990  30.3839997  54.3809992  97.5544990  29.8949997
  53.6885367  97.2792562  30.3448156  46.6999992  95.2254990  27.8869997
  46.5829992  94.2774990  27.8329997  45.8449992  95.5584990  28.1599997
  46.5683691  95.1405842  27.9165072  51.6489992 110.6334990  25.6289997
  52.0739992 109.9264990  25.1439997  51.9659992 111.4354990  25.2119997
  51.7500266 110.6450201  25.5062461  52.8079992 108.5344990  24.1379997
  52.5509992 107.8444990  23.5259997  52.8789992 108.0914990  24.9829997
  52.7824322 108.3801568  24.1685372  54.4939992 107.1014990  32.6149997
  54.6339992 106.5094990  31.8759997  54.6619992 107.9744990  32.2589997
  54.5358734 107.1384041  32.4656937  48.9669992 104.0634990  22.3879997
  48.2549992 104.5984990  22.0359997  49.6579992 104.1184990  21.7279997
  48.9629704 104.1441663  22.2505797  49.0209992 102.5204990  19.4259997
  49.7219992 102.5434990  20.0779997  49.3229992 101.8924990  18.7699997
  49.1578202 102.4387223  19.4265591  56.3359992 103.4414990  30.6809997
  55.6839992 104.1354990  30.7699997  56.8009992 103.6514990  29.8709997
  56.3095357 103.5649544  30.5837056  52.3729992 104.2724990  23.3389997
  51.6409992 104.5014990  23.9119997  52.8199992 103.5594990  23.7939997
  52.3332753 104.2073984  23.4789698 110.9229992  42.0874990  91.0299997
 110.0069992  42.3494990  90.9419997 111.2589992  42.0844990  90.1329997
 110.8429789  42.1229637  90.8967829  44.0179992 104.9034990  25.2219997
  43.6879992 104.5324990  24.4039997  44.6059992 104.2324990  25.5689997
  44.0523182 104.7620648  25.1569898  45.3849992 108.3314990  27.9029997
  45.2899992 107.7524990  27.1469997  46.1139992 107.9604990  28.3989997
  45.4706011 108.2020572  27.8666011  44.3849992 103.6714990  28.8549997
  44.9499992 103.7934990  28.0929997  44.7029992 104.3094990  29.4939997
  44.5053619 103.7744388  28.8370019  50.6939992 109.1754990  29.5889997
  50.4529992 109.8374990  30.2369997  50.4959992 108.3404990  30.0139997
  50.6342662 109.1532704  29.7351008  51.2439992 103.4354990  21.0249997
  51.8229992 103.5854990  21.7709997  51.6579992 103.9054990  20.3009997
  51.3793358 103.5195966  21.0293935  42.1849992 104.2694990  32.8009997
  42.2549992 104.9204990  33.4999997  41.2939992 104.3724990  32.4659997
  42.0741690 104.3724261  32.8513026  48.9699992 110.1714990  24.4599997
  49.4439992 110.4674990  25.2369997  48.4069992 110.9104990  24.2269997
  48.9587890 110.3118047  24.5348084  43.5039992 110.1424990  34.3359997
  43.5119992 110.0064990  33.3889997  42.5879992 110.0254990  34.5879997
  43.3812528 110.1080475  34.2403226  54.9419992  95.1854990  20.8369997
  54.0419992  95.3234990  21.1329997  55.1939992  96.0164990  20.4359997
  54.8527727  95.3168705  20.8232935  43.0079992 103.9724990  22.8109997
  42.7159992 104.7404990  22.3199997  42.3339992 103.3134990  22.6479997
  42.8768843 103.9884537  22.7217695 109.5249992  45.8374990  85.1259997
 108.7279992  45.4224990  84.7969997 109.9699992  45.1474990  85.6169997
 109.4760317  45.6873197  85.1473556  56.1319992 109.5514990  19.2139997
  56.2049992 110.4904990  19.3839997  57.0369992 109.2464990  19.1579997
  56.2644170 109.6388294  19.2297045  39.1009992 106.3354990  31.6259997
  38.5999992 106.3074990  30.8109997  39.1069992 105.4304990  31.9359997
  39.0331690 106.2092234  31.5562770  38.8519992 109.1164990  28.5099997
  39.7979992 108.9714990  28.4909997  38.7389992 109.9004990  29.0469997
  38.9663578 109.2026708  28.5800300  57.0489992 109.7824990  34.1929997
  56.9999992 108.8264990  34.1549997  56.2229992 110.0494990  34.5939997
  56.9305096 109.6878416  34.2420698  48.0279992 109.3564990  33.0689997
  48.1149992 110.1824990  33.5439997  47.1639992 109.0264990  33.3179997
  47.9231944 109.4249871  33.1676558  48.4419992 113.1284990  22.8749997
  48.3669992 113.0074990  21.9279997  48.4749992 114.0774990  22.9929997
  48.4362083 113.2402639  22.7614973  42.0959992 111.9174990  24.6559997
  42.2479992 111.5694990  25.5339997  41.2449992 111.5604990  24.3999997
  42.0018344 111.8215891  24.7416851  51.5439992 112.2824990  19.8769997
  51.9189992 111.5384990  19.4059997  51.5479992 112.0124990  20.7949997
  51.5958969 112.1440920  19.9366475  51.2129992 112.2084990  22.6259997
  50.2779992 112.3084990  22.8049997  51.4929992 111.4984990  23.2049997
  51.1229471 112.1262944  22.7286678  41.3499992 107.6594990  32.6689997
  41.5659992 107.2974990  33.5289997  40.4949992 107.2844990  32.4599997
  41.2639082 107.5593377  32.7582396  97.2989992  44.4304990  76.8119997
  97.2539992  45.3694990  76.9909997  96.4109992  44.1944990  76.5419997
  97.1728472  44.5271946  76.8000282  43.9689992  96.1294990  28.6649997
  43.1069992  96.0424990  28.2569997  43.9469992  96.9854990  29.0929997
  43.8480557  96.2333078  28.6670202  48.6319992  95.8514990  32.0399997
  49.0519992  95.4364990  32.7929997  47.6989992  95.6724990  32.1569997
  48.5633736  95.7704921  32.1588950  52.7209992 104.4674990  18.6539997
  52.7629992 104.2454990  17.7239997  53.5699992 104.8664990  18.8439997
  52.8415253 104.4910510  18.5523804  48.2939992  98.3434990  19.3249997
  48.0399992  98.3624990  20.2469997  48.0369992  97.4724990  19.0229997
  48.2244508  98.2283292  19.4104786  44.0599992 101.0944990  29.7599997
  43.4179992 101.0544990  30.4689997  44.0969992 102.0214990  29.5219997
  43.9771659 101.2142540  29.8248463  44.0569992 101.3154990  24.6719997
  43.1639992 100.9754990  24.6129997  44.5079992 100.9384990  23.9159997
  43.9957185 101.2180220  24.5617698  49.5929992 101.7314990  23.4889997
  49.1839992 102.5464990  23.1969997  50.3129992 101.5914990  22.8749997
  49.6344439 101.8240383  23.3660098  48.6949992 101.9074990  34.9769997
  48.1319992 101.2024990  35.2979997  49.5209992 101.7864990  35.4449997
  48.7296674 101.7947176  35.0841734  50.5969992 101.1774990  26.3029997
  50.4019992 101.7834990  25.5879997  50.7789992 100.3444990  25.8689997
  50.5949195 101.1477936  26.1464079  41.8099992 101.4154990  31.6269997
  41.7719992 101.8154990  32.4959997  41.3189992 100.5984990  31.7169997
  41.7384374 101.3598228  31.7580980 110.6119992  55.0934990  86.7479997
 110.4559992  55.7724990  86.0909997 111.5439992  55.1654990  86.9509997
 110.7167328  55.1961586  86.6855529  45.1759992  98.7894990  18.4259997
  44.7449992  98.3444990  19.1549997  44.4579992  99.1604990  17.9129997
  45.0199176  98.7787063  18.4564913  38.4179992  98.5314990  25.4779997
  39.0489992  98.5024990  26.1969997  38.8679992  98.1064990  24.7469997
  38.5651082  98.4701269  25.4776307  39.6919992  99.2774990  20.9019997
  40.1669992  99.8684990  20.3169997  38.9749992  99.8074990  21.2489997
  39.6600406  99.4301011  20.8688495  49.8609992 102.8154990  30.9739997
  50.1849992 102.1844990  30.3309997  49.4209992 102.2814990  31.6349997
  49.8458707 102.6568261  30.9753195  46.6389992  98.7434990  25.7579997
  45.7279992  98.8004990  26.0469997  47.1439992  98.6834990  26.5689997
  46.5826873  98.7431838  25.9071190  41.4669992 100.3724990  24.5849997
  40.5779992 100.4714990  24.2449997  41.7629992  99.5304990  24.2389997
  41.3854001 100.2722473  24.4917318  45.1199992 100.3724990  22.2419997
  46.0519992 100.5014990  22.4199997  44.9049992 101.0414990  21.5919997
  45.2184472 100.4805817  22.1784873  51.0439992  97.9784990  29.0219997
  50.3669992  98.1094990  29.6859997  50.5579992  97.8234990  28.2119997
  50.8857265  97.9754665  29.0033380  43.7939992 101.5664990  19.8079997
  43.2519992 101.1874990  19.1169997  44.6279992 101.7614990  19.3799997
  43.8324390 101.5409091  19.6554374  47.9589992 101.5304990  27.6449997
  48.5229992 100.9844990  27.0979997  47.8109992 101.0094990  28.4339997
  48.0163037 101.3851798  27.6767212  98.1069992  39.2114990  85.4849997
  97.8779992  39.2704990  84.5579997  97.6639992  38.4204990  85.7919997
  98.0157387  39.1126412  85.3995223  42.9609992  97.6674990  24.0639997
  42.6429992  96.7644990  24.0279997  43.7419992  97.6694990  23.5109997
  43.0231079  97.5442240  23.9842908  46.5849992  99.9194990  30.0589997
  45.7499992 100.3734990  30.1699997  47.1089992 100.1954990  30.8109997
  46.5416072 100.0188960  30.1758118  47.1289992 106.1324990  21.7439997
  46.3839992 105.6244990  21.4219997  46.9949992 106.1814990  22.6899997
  47.0089334 106.0696144  21.8278892  54.2789992 105.2654990  30.5309997
  54.9209992 105.7214990  29.9869997  53.4489992 105.3784990  30.0679997
  54.2546536 105.3431813  30.3939579  51.0269992  98.9464990  19.9429997
  50.0879992  99.0574990  19.7919997  51.3239992  99.8024990  20.2499997
  50.9386136  99.0774977  19.9638568  48.6489992 106.3164990  32.9809997
  48.3029992 105.9344990  33.7879997  48.4489992 107.2494990  33.0519997
  48.5745987 106.3904013  33.1010443  51.7449992 100.8134990  21.6039997
  52.6369992 100.6754990  21.9229997  51.8019992 101.6044990  21.0669997
  51.8747380 100.9014777  21.5750981  42.2539992 105.4274990  27.5139997
  42.9989992 105.4244990  26.9119997  42.3319992 104.6034990  27.9949997
  42.3663365 105.3157395  27.4967412  49.2549992 107.5904990  20.7689997
  48.9599992 108.4174990  21.1509997  48.5519992 106.9714990  20.9659997
  49.1196379 107.6199182  20.8478636  39.2619992 103.8874990  32.8289997
  39.4849992 103.4694990  33.6599997  38.6599992 103.2754990  32.4059997
  39.2111513 103.7474617  32.8856722  97.0369992  53.1524990  81.6459997
  96.2049992  53.6244990  81.6729997  97.5829992  53.6624990  81.0469997
  96.9968710  53.2860317  81.5687570  46.2789992 103.4044990  35.0419997
  45.9829992 103.2394990  34.1459997  47.2099992 103.1844990  35.0309997
  46.3644401 103.3521891  34.9180189  50.8989992 108.7784990  32.9309997
  49.9979992 108.9614990  32.6639997  50.9329992 109.0374990  33.8519997
  50.7803861 108.8385245  33.0189517  56.6299992 101.0224990  21.2989997
  56.0759992 100.6264990  20.6259997  56.7309992 101.9334990  21.0209997
  56.5678589 101.0913904  21.1693839  56.5929992 106.8234990  34.1359997
  55.7419992 107.0614990  33.7679997  57.1839992 106.8064990  33.3819997
  56.5563831 106.8537623  33.9838448  54.9249992 109.8084990  21.7639997
  54.5529992 108.9834990  22.0729997  55.2029992 109.6254990  20.8659997
  54.9115807 109.6707031  21.6850063  52.0859992 104.6164990  28.7849997
  51.1579992 104.3854990  28.7579997  52.5369992 103.8394990  28.4549997
  52.0198165 104.4797785  28.7366772  44.6289992 108.9454990  24.9179997
  45.1559992 109.7184990  24.7179997  43.7489992 109.1694990  24.6159997
  44.5822121 109.0817344  24.8497460  40.3839992 103.8074990  19.5049997
  40.9999992 104.4344990  19.8849997  39.5219992 104.1234990  19.7769997
  40.3517678 103.9359423  19.5937192  46.0559992 106.6084990  24.4939997
  45.8149992 107.5334990  24.5359997  45.3159992 106.1494990  24.8909997
  45.9229463 106.6730969  24.5534279  46.5709992 110.7574990  30.8089997
  46.9339992 111.6114990  30.5759997  47.1029992 110.4654990  31.5499997
  46.6925141 110.8348907  30.8772079  96.3259992  55.7644990  92.9759997
  96.8659992  55.5484990  93.7349997  95.8439992  54.9594990  92.7859997
  96.3349101  55.6260216  93.0544364  44.7389992 111.6294990  24.0399997
  43.7899992 111.7354990  24.0909997  45.0909992 112.4504990  24.3839997
  44.6565647 111.7550029  24.0934882  50.1149992 106.8564990  30.5099997
  49.6889992 106.6284990  31.3359997  50.6959992 106.1174990  30.3279997
  50.1352088 106.7254393  30.5984454  52.3179992 107.7854990  19.5839997
  52.6709992 107.4054990  20.3879997  51.3689992 107.6914990  19.6709997
  52.2380956 107.7207867  19.7058005  52.7739992 111.4084990  32.9789997
  52.1719992 110.8524990  32.4839997  53.0549992 112.0754990  32.3529997
  52.7295757 111.4225755  32.8265657  56.8209992 112.2644990  19.7849997
  57.5649992 112.8504990  19.6449997  56.1269992 112.8334990  20.1179997
  56.8289809 112.4215830  19.8108572  40.8959992  98.6414990  32.3869997
  40.0029992  98.9794990  32.3189997  40.7969992  97.7854990  32.8049997
  40.7604752  98.5720986  32.4341644  53.1839992 106.4574990  21.8109997
  52.9069992 105.7294990  22.3669997  54.1109992 106.5764990  22.0159997
  53.2714419 106.3739436  21.9148264  40.5469992 110.4454990  30.8219997
  40.7639992 109.5134990  30.7909997  40.7939992 110.7204990  31.7049997
  40.6100948 110.3550976  30.9371268  46.4089992 108.8974990  18.0309997
  46.6479992 108.1484990  17.4839997  46.1399992 108.5094990  18.8639997
  46.4053233 108.7426865  18.0687791  45.3459992 108.4674990  20.4869997
  45.4929992 107.9474990  21.2769997  45.3429992 109.3744990  20.7939997
  45.3657102 108.5188964  20.6365907 100.9229992  54.6844990  94.5959997
 101.6909992  54.2254990  94.9369997 100.9019992  54.4584990  93.6659997
 101.0252135  54.5911680  94.5169473  41.7989992 105.7194990  20.9979997
  41.1129992 106.0724990  21.5649997  42.3219992 106.4824990  20.7509997
  41.7758402 105.8708912  21.0421783  49.6299992  98.3824990  31.2769997
  50.3289992  98.4564990  31.9269997  49.2499992  97.5174990  31.4309997
  49.6742662  98.2757050  31.3867412  50.4149992  98.0344990  22.3739997
  50.6349992  98.5054990  21.5699997  50.9729992  98.4284990  23.0439997
  50.5206044  98.1522946  22.3545207  48.0839992 110.1644990  21.2369997
  47.2669992 110.6614990  21.2889997  48.6129992 110.6404990  20.5959997
  48.0438125 110.2967000  21.1575289  47.6149992  99.7624990  23.2089997
  48.4269992 100.2664990  23.2549997  47.3699992  99.6174990  24.1229997
  47.6931091  99.8119366  23.3388552  48.1509992 100.7484990  32.3929997
  48.2699992 101.3224990  33.1499997  48.8059992 100.0604990  32.5079997
  48.2558684 100.7340205  32.5121656  48.4989992  96.8434990  24.1469997
  48.1519992  97.4604990  24.7909997  49.1569992  97.3444990  23.6649997
  48.5404430  96.9956860  24.1700046  45.4219992 111.2084990  21.2179997
  45.5829992 112.0084990  20.7179997  45.2249992 111.5154990  22.1029997
  45.4173906 111.3593690  21.2692316  44.1559992  97.9064990  20.8339997
  44.0729992  98.7944990  21.1809997  45.0459992  97.6414990  21.0659997
  44.2649331  97.9921177  20.9128067  54.3549992  98.6554990  33.2279997
  53.4389992  98.9174990  33.1409997  54.6909992  98.6524990  32.3319997
  54.2748499  98.6910174  33.0948748 107.4999992  53.0644990  93.3249997
 107.1489992  52.2074990  93.5679997 108.2259992  53.2064990  93.9319997
 107.5501590  52.9665189  93.4402889  52.9569992 102.4054990  27.3239997
  52.1599992 101.9904990  26.9959997  53.4019992 101.7154990  27.8149997
  52.9080367 102.2553372  27.3454897  42.4149992 108.3334990  19.8939997
  43.0069992 109.0334990  20.1709997  42.8739992 107.9004990  19.1749997
  42.5581652 108.3707686  19.8346515  40.7309992 100.9984990  19.0099997
  40.6859992 101.9374990  19.1889997  39.8429992 100.7624990  18.7409997
  40.6048166 101.0951698  18.9981507  54.0439992 111.6614990  28.9459997
  53.8879992 112.3404990  28.2889997  54.9759992 111.7334990  29.1489997
  54.1487328 111.7641586  28.8835529  41.5389992  95.7794990  27.6829997
  41.3099992  95.8384990  26.7559997  41.0959992  94.9884990  27.9899997
  41.4477387  95.6806413  27.5975223  40.4689992 109.7204990  23.8439997
  39.6369992 110.1924990  23.8709997  41.0149992 110.2304990  23.2449997
  40.4288710 109.8540317  23.7667570  48.4469992 110.7604990  18.1689997
  47.8029992 110.1294990  18.4909997  49.2089992 110.2294990  17.9379997
  48.4618708 110.6023171  18.1818462  53.0509992 110.5774990  18.4029997
  53.3339992 109.7824990  18.8559997  53.7909992 110.8104990  17.8419997
  53.1897295 110.5002349  18.3891469  44.0059992 106.4864990  18.2609997
  44.0699992 105.6924990  18.7909997  44.6589992 106.3684990  17.5709997
  44.1030483 106.3617496  18.2403407  49.3579992 107.5334990  17.9969997
  49.0899992 107.7144990  18.8969997  49.1519992 106.6084990  17.8649997
  49.2933443 107.4331873  18.1026643  96.2329992  49.5754990  93.9299997
  96.3769992  48.6734990  93.6439997  95.4599992  49.8614990  93.4419997
  96.1482854  49.4906876  93.8249363  52.0549992 106.0284990  32.9439997
  52.7999992 106.6174990  32.8249997  51.2969992 106.6104990  33.0069997
  52.0545289 106.1877067  32.9362292  45.1549992 104.4594990  20.5669997
  44.6959992 103.9754990  21.2519997  45.4099992 103.7904990  19.9309997
  45.1265997 104.3028491  20.5748734  44.4439992 102.3524990  32.9229997
  43.8259992 103.0264990  33.2029997  44.7879992 102.6734990  32.0889997
  44.4058078 102.4882298  32.8486609  46.2259992 102.7024990  18.8289997
  46.0459992 102.5474990  17.9019997  47.1759992 102.8104990  18.8739997
  46.3297804 102.6958821  18.7081966  55.6159992 105.0564990  18.2749997
  55.3429992 104.6324990  17.4619997  55.6559992 105.9884990  18.0579997
  55.5840201 105.1243523  18.1343548  45.1959992  98.0764990  31.4979997
  45.7319992  98.5284990  30.8459997  44.3439992  97.9684990  31.0749997
  45.1541795  98.1237444  31.3516211  46.7779992 103.5164990  31.7369997
  47.5289992 103.3604990  31.1639997  46.4389992 104.3684990  31.4619997
  46.8349587 103.6103149  31.6214060  46.0019992  95.5334990  31.9289997
  45.9039992  96.4794990  31.8239997  45.2589992  95.1604990  31.4529997
  45.8882123  95.6126811  31.8503204  46.1239992 113.3924990  19.8299997
  47.0569992 113.5504990  19.9739997  45.8589992 114.0684990  19.2049997
  46.2159846 113.5054567  19.7652930  39.6919992 108.0294990  19.3129997
  40.6059992 108.1084990  19.5859997  39.6989992 107.3424990  18.6469997
  39.8180624 107.9474074  19.2603045 102.8879992  49.5444990  93.3629997
 102.5599992  49.8154990  92.5049997 103.0399992  48.6034990  93.2749997
 102.8636970  49.4543694  93.2337953  38.3409992 113.4224990  24.3899997
  37.6939992 112.9604990  23.8579997  38.6959992 112.7504990  24.9729997
  38.3003741 113.2684785  24.3959157  39.2109992 111.5024990  26.1949997
  38.8769992 110.6224990  26.3669997  39.4329992 111.8484990  27.0599997
  39.1952565 111.4287410  26.3354263  56.7599992 112.3124990  29.1759997
  56.7379992 112.4974990  30.1139997  57.4499992 112.8804990  28.8349997
  56.8503383 112.4147104  29.2584580  56.3229992 111.8794990  32.0969997
  55.8359992 111.1434990  31.7259997  56.8719992 111.4854990  32.7749997
  56.3306101 111.7256267  32.1379034  56.0749992 105.9254990  22.2499997
  56.9249992 106.3464990  22.3769997  56.0799992 105.1854990  22.8569997
  56.1921143 105.8831106  22.3494732  56.4689992 103.9794990  24.0729997
  55.7429992 103.4994990  24.4709997  57.0499992 104.1844990  24.8049997
  56.4482504 103.9415592  24.2264199  56.2279992 106.7644990  29.0209997
  57.0619992 106.3864990  28.7399997  56.3399992 107.7074990  28.9019997
  56.3571917 106.8402954  28.9664844  54.7139992 109.6424990  31.3279997
  54.0669992 109.9674990  31.9529997  54.1969992 109.2014990  30.6539997
  54.5554112 109.6274133  31.3225272  56.7369992 103.8804990  20.4639997
  56.2159992 104.2364990  19.7459997  56.7039992 104.5554990  21.1429997
  56.6610955 104.0205023  20.4572634  55.0859992 101.1194990  19.0149997
  55.1829992 101.7864990  18.3349997  54.9459992 100.3044990  18.5339997
  55.0803407 101.1005670  18.8568312 108.6229992  49.4604990  90.7459997
 109.3679992  50.0494990  90.6259997 107.8649992  50.0424990  90.8089997
 108.6225185  49.6197000  90.7380940  54.2559992 102.5004990  24.6359997
  54.1059992 101.5554990  24.6159997  53.9019992 102.7814990  25.4799997
  54.1876351 102.4091656  24.7473202  39.2909992 104.5784990  28.6469997
  39.4749992 104.4964990  27.7109997  40.1399992 104.4544990  29.0699997
  39.4310132 104.5505066  28.5761460  55.1119992 104.4704990  34.2749997
  55.6949992 103.7354990  34.4669997  55.6759992 105.2424990  34.3219997
  55.2679781 104.4743156  34.3076146  56.6089992 102.3734990  34.9599997
  55.7449992 101.9944990  34.7939997  57.2129992 101.6344990  34.8849997
  56.5725394 102.2218378  34.9271778  54.3339992  98.5274990  18.1329997
  54.9439992  98.1564990  18.7699997  53.4969992  98.1064990  18.3289997
  54.3043704  98.4197942  18.2467077  53.9659992 100.0824990  23.0989997
  54.2459992  99.1754990  23.2229997  54.7249992 100.5164990  22.7099997
  54.1069258 100.0170935  23.0633691  54.5779992 100.6644990  28.5349997
  55.5109992 100.8764990  28.4999997  54.3429992 100.7654990  29.4569997
  54.6739517 100.7071844  28.6549113  54.6069992 101.4014990  31.3109997
  53.7639992 101.6694990  31.6759997  55.0499992 102.2234990  31.0999997
  54.5514035 101.5493351  31.3324770  54.5799992  97.3454990  23.1469997
  54.7619992  96.8964990  23.9719997  53.9799992  96.7614990  22.6829997
  54.5238187  97.2050563  23.1972721  40.1099992  98.1614990  27.6789997
  40.5549992  97.3694990  27.9809997  40.5759992  98.8774990  28.1089997
  40.2339718  98.1499546  27.7785247  97.0649992  46.7754990  93.3499997
  97.4729992  45.9184990  93.2289997  96.8049992  46.7894990  94.2709997
  97.0857082  46.6600596  93.4579469  38.4139992 101.1604990  28.7479997
  38.9059992 100.9394990  27.9569997  38.7759992 102.0004990  29.0289997
  38.5302923 101.2438480  28.6777389  56.4459992  97.4134990  19.6749997
  56.8589992  96.6924990  19.1999997  57.1279992  98.0824990  19.7329997
  56.5946060  97.4053741  19.6179233  38.7269992  97.4184990  22.8019997
  37.8019992  97.6264990  22.6729997  39.1809992  97.9024990  22.1119997
  38.6616298  97.5124311  22.6910433  53.4979992 112.4024990  24.7479997
  54.1499992 112.0544990  24.1399997  54.0089992 112.8904990  25.3939997
  53.6562872 112.4208248  24.7520964  38.6909992  96.1564990  31.1459997
  38.0259992  95.9104990  31.7889997  38.2479992  96.7784990  30.5689997
  38.5401168  96.2069225  31.1559830  43.8369992 110.3054990  31.5489997
  43.4119992 111.1154990  31.2669997  44.7409992 110.3914990  31.2469997
  43.9010706 110.4279557  31.4695836  48.1479992 111.7044990  34.5089997
  48.3329992 111.3714990  35.3869997  48.9949992 112.0144990  34.1869997
  48.2877291 111.7008214  34.5856140  55.4109992  95.5804990  32.8319997
  54.5979992  95.9054990  32.4449997  55.6439992  94.8194990  32.2989997
  55.3311347  95.5221891  32.7069824  41.2389992 113.5624990  31.5969997
  40.5179992 114.0024990  31.1459997  40.8729992 113.3114990  32.4449997
  41.0909632 113.5887235  31.6499649  43.7059992 113.1624990  30.6259997
  42.8409992 113.2344990  31.0299997  43.6509992 113.7094990  29.8429997
  43.5802289 113.2463242  30.5753749 101.7229992  47.8914990  78.3679997
 101.2639992  47.4074990  79.0539997 101.9779992  47.2224990  77.7319997
 101.6946178  47.7348511  78.3759785  48.4169992 113.0504990  29.8019997
  47.9599992 113.5794990  29.1479997  48.5789992 113.6534990  30.5269997
  48.3763919 113.2043990  29.8105740  50.7439992 111.9284990  30.7469997
  49.8399992 112.0934990  30.4809997  51.1729992 112.7814990  30.6809997
  50.6782017 112.0664184  30.7016495  53.3479992 113.4984990  31.0419997
  53.1669992 114.4144990  30.8309997  53.5249992 113.0874990  30.1949997
  53.3471377 113.5683365  30.8987178  40.6539992 112.1854990  28.5069997
  40.6349992 111.7594990  29.3639997  41.4579992 111.8664990  28.0979997
  40.7601393 112.0840297  28.5690155  42.7949992 110.8954990  27.1619997
  42.5759992 109.9784990  27.3319997  43.6189992 111.0354990  27.6279997
  42.8764702 110.7890523  27.2482510  45.3319992 111.3654990  28.0109997
  45.5449992 110.4774990  27.7239997  45.3969992 111.3304990  28.9649997
  45.3699149 111.2393338  28.1007351  48.8409992  97.0294990  27.1549997
  48.1659992  96.3994990  27.4109997  49.4049992  96.5454990  26.5519997
  48.8249363  96.8778886  27.1084810  53.9829992  95.1364990  27.2679997
  54.5869992  95.6844990  26.7659997  53.1139992  95.4554990  27.0269997
  53.9480419  95.2545628  27.1667741  55.7099992  96.2754990  25.6009997
  56.3219992  95.7614990  25.0739997  56.0929992  97.1524990  25.6239997
  55.8453867  96.3237613  25.5320888  41.1669992  95.6634990  24.9769997
  40.3899992  95.4284990  24.4699997  41.6979992  94.8664990  24.9859997
  41.1323735  95.5236462  24.9088090 101.0119992  45.7844990  90.7239997
 100.3939992  46.4584990  91.0049997 101.3559992  46.1054990  89.8909997
 100.9738181  45.9203233  90.6498266  40.0039992  95.4614990  20.7809997
  40.4429992  96.0724990  20.1889997  39.3699992  95.9994990  21.2549997
  39.9783859  95.6179076  20.7640287  45.7469992  95.5894990  24.7899997
  46.6209992  95.9784990  24.7609997  45.6109992  95.3744990  25.7129997
  45.8481953  95.6136654  24.9107599  51.3029992  95.6194990  26.4399997
  51.3799992  95.7154990  25.4899997  51.0279992  94.7124990  26.5679997
  51.2763233  95.5099093  26.3273665  52.6569992  95.6454990  22.1319997
  51.9539992  96.2604990  21.9219997  52.2119992  94.8084990  22.2629997
  52.5006550  95.6164679  22.1209819  39.9049992 111.4094990  21.6779997
  39.2199992 111.3714990  21.0109997  39.9079992 112.3214990  21.9659997
  39.8116806 111.5276669  21.6256961  41.8649992  97.3774990  19.2229997
  42.3559992  96.7474990  18.6959997  42.4879992  97.6734990  19.8859997
  42.0165304  97.3312387  19.2404922  46.8909992  97.6704990  21.6799997
  47.0689992  97.0234990  22.3629997  46.8369992  98.5044990  22.1469997
  46.9080678  97.6946615  21.8366283  48.7689992 112.6184990  20.0759997
  49.6349992 112.9854990  19.8979997  48.5219992 112.1794990  19.2619997
  48.8541853 112.6094021  19.9415813  55.4779992 112.1814990  22.7549997
  55.2839992 111.4334990  22.1899997  55.4389992 112.9394990  22.1719997
  55.4461645 112.1815797  22.5988131  41.7229992 112.3294990  18.7029997
  41.4549992 112.6154990  19.5769997  42.4939992 111.7834990  18.8559997
  41.7905927 112.2947790  18.8431188 106.0319992  48.2554990  94.0019997
 106.9849992  48.3394990  93.9739997 105.8719992  47.5434990  94.6209997
 106.1408161  48.1707198  94.0818689  69.1019992 104.8194990  24.9359997
  69.1909992 105.7634990  24.8029997  68.4629992 104.5444990  24.2779997
  69.0278378 104.9113846  24.8289258  68.0349992 104.0744990  28.3549997
  67.9959992 103.4284990  29.0599997  67.7119992 103.6074990  27.5829997
  67.9860469 103.9230005  28.3472803  60.4029992 103.6884990  29.9479997
  60.4439992 103.0634990  30.6709997  61.1059992 104.3124990  30.1299997
  60.5036223 103.6872318  30.0716164  71.7409992 107.0134990  26.6559997
  71.2999992 106.2934990  27.1069997  71.7279992 107.7344990  27.2859997
  71.6789215 107.0124303  26.8028088  61.3269992 108.1384990  28.4829997
  60.9569992 107.3364990  28.1129997  62.2679992 107.9704990  28.5289997
  61.4035984 108.0059649  28.4385586  57.9369992 101.7984990  23.8749997
  57.4889992 102.6444990  23.8569997  57.3759992 101.2194990  23.3599997
  57.7998546 101.8359004  23.8028874  58.6469992 103.9604990  26.0009997
  58.8609992 103.1904990  26.5279997  59.3849992 104.0504990  25.3979997
  58.7760073 103.8673546  25.9915786  68.8519992 112.1174990  26.8679997
  69.4719992 111.4414990  26.5949997  68.6439992 111.8994990  27.7769997
  68.9087679 111.9955032  26.9534518  66.4239992 106.5064990  28.7609997
  66.7279992 105.8204990  28.1659997  67.1459992 106.6254990  29.3789997
  66.5631240 106.4287325  28.7630941  75.0869992  98.1084990  29.6209997
  75.1359992  98.7184990  30.3569997  75.5129992  98.5694990  28.8979997
  75.1512851  98.2543266  29.6240532 101.3519992  43.1394990  91.8069997
 101.5019992  42.4104990  91.2039997 101.3539992  43.9164990  91.2479997
 101.3727664  43.1448971  91.6490525  69.5649992 100.9004990  29.0879997
  69.7069992  99.9544990  29.1079997  69.4589992 101.1074990  28.1599997
  69.5701051 100.7989706  28.9652249  62.7199992  99.0024990  26.3609997
  62.7629992  99.8624990  25.9419997  62.2619992  98.4494990  25.7269997
  62.6640163  99.0454174  26.2180604  70.4419992  99.1334990  24.7609997
  71.0879992  98.8044990  25.3859997  70.9519992  99.6504990  24.1389997
  70.5994289  99.1584333  24.7623681  59.3399992 101.3994990  27.1229997
  59.9939992 100.8494990  27.5549997  59.3639992 101.1254990  26.2059997
  59.4327199 101.2872178  27.0581650  64.4959992 102.9494990  26.3379997
  65.1119992 102.4224990  26.8469997  63.9099992 102.3094990  25.9339997
  64.5010652 102.7908919  26.3530277  75.4789992  99.5864990  31.8569997
  74.7899992 100.2444990  31.7619997  75.4939992  99.3884990  32.7939997
  75.3867756  99.6497614  31.9705795  61.5299992  97.9204990  30.4349997
  61.3109992  98.4504990  29.6679997  60.8619992  98.1464990  31.0819997
  61.4096975  98.0235979  30.4175123  68.8989992 107.4204990  23.9789997
  68.6029992 107.0974990  23.1269997  68.5749992 108.3204990  24.0199997
  68.8147458 107.4979678  23.8680598  64.0989992 105.5954990  30.7219997
  63.3589992 106.1944990  30.8259997  64.8129992 106.1494990  30.4059997
  64.0943146 105.7522611  30.6935150  72.2059992  98.4244990  26.7419997
  71.9909992  97.6584990  27.2749997  72.8619992  98.8964990  27.2549997
  72.2652673  98.3835739  26.8841972 101.7639992  41.5084990  89.2989997
 102.2999992  41.9604990  88.6469997 100.9119992  41.4004990  88.8769997
 101.7221648  41.5557883  89.1526395  61.1239992  99.8124990  28.3869997
  61.7369992 100.4454990  28.7599997  61.6359992  99.3404990  27.7309997
  61.2771933  99.8353380  28.3493477  62.5059992 107.5604990  31.5089997
  62.5009992 108.4394990  31.1309997  61.6529992 107.4764990  31.9339997
  62.3899199 107.6695901  31.5146942  58.6279992 107.2314990  22.2909997
  58.3559992 107.4604990  21.4019997  58.6729992 108.0684990  22.7519997
  58.5968360 107.3761034  22.2316186  72.2529992 108.8524990  29.0039997
  71.3109992 108.9114990  29.1659997  72.5289992 109.7584990  28.8669997
  72.1615865 108.9830299  29.0076174  72.5529992  97.1394990  30.4209997
  71.8169992  97.7494990  30.3839997  73.2369992  97.5544990  29.8949997
  72.5445367  97.2792562  30.3448156  65.5559992  95.2254990  27.8869997
  65.4389992  94.2774990  27.8329997  64.7009992  95.5584990  28.1599997
  65.4243691  95.1405842  27.9165072  70.5049992 110.6334990  25.6289997
  70.9299992 109.9264990  25.1439997  70.8219992 111.4354990  25.2119997
  70.6060266 110.6450201  25.5062461  71.6639992 108.5344990  24.1379997
  71.4069992 107.8444990  23.5259997  71.7349992 108.0914990  24.9829997
  71.6384322 108.3801568  24.1685372  73.3499992 107.1014990  32.6149997
  73.4899992 106.5094990  31.8759997  73.5179992 107.9744990  32.2589997
  73.3918734 107.1384041  32.4656937  67.8229992 104.0634990  22.3879997
  67.1109992 104.5984990  22.0359997  68.5139992 104.1184990  21.7279997
  67.8189704 104.1441663  22.2505797 103.3459992  46.9484990  89.5389997
 104.0969992  46.7924990  88.9659997 103.0069992  47.8004990  89.2629997
 103.4029052  47.0422745  89.4233469  67.8769992 102.5204990  19.4259997
  68.5779992 102.5434990  20.0779997  68.1789992 101.8924990  18.7699997
  68.0138202 102.4387223  19.4265591  75.1919992 103.4414990  30.6809997
  74.5399992 104.1354990  30.7699997  75.6569992 103.6514990  29.8709997
  75.1655357 103.5649544  30.5837056  71.2289992 104.2724990  23.3389997
  70.4969992 104.5014990  23.9119997  71.6759992 103.5594990  23.7939997
  71.1892753 104.2073984  23.4789698  71.1259992 102.4474990  32.4069997
  71.2059992 103.2104990  32.9789997  70.5249992 102.7264990  31.7169997
  71.0556547 102.5897468  32.3920029  62.8739992 104.9034990  25.2219997
  62.5439992 104.5324990  24.4039997  63.4619992 104.2324990  25.5689997
  62.9083182 104.7620648  25.1569898  64.2409992 108.3314990  27.9029997
  64.1459992 107.7524990  27.1469997  64.9699992 107.9604990  28.3989997
  64.3266011 108.2020572  27.8666011  63.2409992 103.6714990  28.8549997
  63.8059992 103.7934990  28.0929997  63.5589992 104.3094990  29.4939997
  63.3613619 103.7744388  28.8370019  69.5499992 109.1754990  29.5889997
  69.3089992 109.8374990  30.2369997  69.3519992 108.3404990  30.0139997
  69.4902662 109.1532704  29.7351008  64.1209992 108.0714990  33.5729997
  63.8089992 108.8534990  34.0279997  63.4709992 107.9184990  32.8869997
  63.9904858 108.1577882  33.5425344  70.0999992 103.4354990  21.0249997
  70.6789992 103.5854990  21.7709997  70.5139992 103.9054990  20.3009997
  70.2353358 103.5195966  21.0293935 107.7619992  44.7634990  94.5669997
 107.9539992  43.8324990  94.4559997 108.6189992  45.1884990  94.5569997
 107.9042320  44.6934743  94.5504433  67.8259992 110.1714990  24.4599997
  68.2999992 110.4674990  25.2369997  67.2629992 110.9104990  24.2269997
  67.8147890 110.3118047  24.5348084  73.7979992  95.1854990  20.8369997
  72.8979992  95.3234990  21.1329997  74.0499992  96.0164990  20.4359997
  73.7087727  95.3168705  20.8232935  61.8639992 103.9724990  22.8109997
  61.5719992 104.7404990  22.3199997  61.1899992 103.3134990  22.6479997
  61.7328843 103.9884537  22.7217695  74.9879992 109.5514990  19.2139997
  75.0609992 110.4904990  19.3839997  75.8929992 109.2464990  19.1579997
  75.1204170 109.6388294  19.2297045  57.9569992 106.3354990  31.6259997
  57.4559992 106.3074990  30.8109997  57.9629992 105.4304990  31.9359997
  57.8891690 106.2092234  31.5562770  57.7079992 109.1164990  28.5099997
  58.6539992 108.9714990  28.4909997  57.5949992 109.9004990  29.0469997
  57.8223578 109.2026708  28.5800300  66.8839992 109.3564990  33.0689997
  66.9709992 110.1824990  33.5439997  66.0199992 109.0264990  33.3179997
  66.7791944 109.4249871  33.1676558  67.2979992 113.1284990  22.8749997
  67.2229992 113.0074990  21.9279997  67.3309992 114.0774990  22.9929997
  67.2922083 113.2402639  22.7614973  60.9519992 111.9174990  24.6559997
  61.1039992 111.5694990  25.5339997  60.1009992 111.5604990  24.3999997
  60.8578344 111.8215891  24.7416851  70.3999992 112.2824990  19.8769997
  70.7749992 111.5384990  19.4059997  70.4039992 112.0124990  20.7949997
  70.4518969 112.1440920  19.9366475 109.0779992  47.5524990  92.6449997
 108.7969992  48.2614990  92.0669997 110.0209992  47.4794990  92.4939997
 109.1669272  47.6396704  92.5454976  70.0689992 112.2084990  22.6259997
  69.1339992 112.3084990  22.8049997  70.3489992 111.4984990  23.2049997
  69.9789471 112.1262944  22.7286678  62.8249992  96.1294990  28.6649997
  61.9629992  96.0424990  28.2569997  62.8029992  96.9854990  29.0929997
  62.7040557  96.2333078  28.6670202  67.4879992  95.8514990  32.0399997
  67.9079992  95.4364990  32.7929997  66.5549992  95.6724990  32.1569997
  67.4193736  95.7704921  32.1588950  71.5769992 104.4674990  18.6539997
  71.6189992 104.2454990  17.7239997  72.4259992 104.8664990  18.8439997
  71.6975253 104.4910510  18.5523804  67.1499992  98.3434990  19.3249997
  66.8959992  98.3624990  20.2469997  66.8929992  97.4724990  19.0229997
  67.0804508  98.2283292  19.4104786  62.9159992 101.0944990  29.7599997
  62.2739992 101.0544990  30.4689997  62.9529992 102.0214990  29.5219997
  62.8331659 101.2142540  29.8248463  62.9129992 101.3154990  24.6719997
  62.0199992 100.9754990  24.6129997  63.3639992 100.9384990  23.9159997
  62.8517185 101.2180220  24.5617698  68.4489992 101.7314990  23.4889997
  68.0399992 102.5464990  23.1969997  69.1689992 101.5914990  22.8749997
  68.4904439 101.8240383  23.3660098  69.4529992 101.1774990  26.3029997
  69.2579992 101.7834990  25.5879997  69.6349992 100.3444990  25.8689997
  69.4509195 101.1477936  26.1464079  60.6659992 101.4154990  31.6269997
  60.6279992 101.8154990  32.4959997  60.1749992 100.5984990  31.7169997
  60.5944374 101.3598228  31.7580980  99.8299992  44.3374990  93.7179997
  99.0629992  43.8044990  93.5079997 100.5089992  44.0274990  93.1189997
  99.8168292  44.2226360  93.6082693  64.0319992  98.7894990  18.4259997
  63.6009992  98.3444990  19.1549997  63.3139992  99.1604990  17.9129997
  63.8759176  98.7787063  18.4564913  57.2739992  98.5314990  25.4779997
  57.9049992  98.5024990  26.1969997  57.7239992  98.1064990  24.7469997
  57.4211082  98.4701269  25.4776307  58.5479992  99.2774990  20.9019997
  59.0229992  99.8684990  20.3169997  57.8309992  99.8074990  21.2489997
  58.5160406  99.4301011  20.8688495  68.7169992 102.8154990  30.9739997
  69.0409992 102.1844990  30.3309997  68.2769992 102.2814990  31.6349997
  68.7018707 102.6568261  30.9753195  65.4949992  98.7434990  25.7579997
  64.5839992  98.8004990  26.0469997  65.9999992  98.6834990  26.5689997
  65.4386873  98.7431838  25.9071190  60.3229992 100.3724990  24.5849997
  59.4339992 100.4714990  24.2449997  60.6189992  99.5304990  24.2389997
  60.2414001 100.2722473  24.4917318  63.9759992 100.3724990  22.2419997
  64.9079992 100.5014990  22.4199997  63.7609992 101.0414990  21.5919997
  64.0744472 100.4805817  22.1784873  69.8999992  97.9784990  29.0219997
  69.2229992  98.1094990  29.6859997  69.4139992  97.8234990  28.2119997
  69.7417265  97.9754665  29.0033380  62.6499992 101.5664990  19.8079997
  62.1079992 101.1874990  19.1169997  63.4839992 101.7614990  19.3799997
  62.6884390 101.5409091  19.6554374  66.8149992 101.5304990  27.6449997
  67.3789992 100.9844990  27.0979997  66.6669992 101.0094990  28.4339997
  66.8723037 101.3851798  27.6767212 102.5699992  38.9654990  89.7309997
 102.4719992  39.9114990  89.6249997 101.8269992  38.5924990  89.2549997
 102.4562363  39.0445987  89.6522029  61.8169992  97.6674990  24.0639997
  61.4989992  96.7644990  24.0279997  62.5979992  97.6694990  23.5109997
  61.8791079  97.5442240  23.9842908  65.4409992  99.9194990  30.0589997
  64.6059992 100.3734990  30.1699997  65.9649992 100.1954990  30.8109997
  65.3976072 100.0188960  30.1758118  65.9849992 106.1324990  21.7439997
  65.2399992 105.6244990  21.4219997  65.8509992 106.1814990  22.6899997
  65.8649334 106.0696144  21.8278892  73.1349992 105.2654990  30.5309997
  73.7769992 105.7214990  29.9869997  72.3049992 105.3784990  30.0679997
  73.1106536 105.3431813  30.3939579  69.8829992  98.9464990  19.9429997
  68.9439992  99.0574990  19.7919997  70.1799992  99.8024990  20.2499997
  69.7946136  99.0774977  19.9638568  67.5049992 106.3164990  32.9809997
  67.1589992 105.9344990  33.7879997  67.3049992 107.2494990  33.0519997
  67.4305987 106.3904013  33.1010443  70.6009992 100.8134990  21.6039997
  71.4929992 100.6754990  21.9229997  70.6579992 101.6044990  21.0669997
  70.7307380 100.9014777  21.5750981  61.1099992 105.4274990  27.5139997
  61.8549992 105.4244990  26.9119997  61.1879992 104.6034990  27.9949997
  61.2223365 105.3157395  27.4967412  68.1109992 107.5904990  20.7689997
  67.8159992 108.4174990  21.1509997  67.4079992 106.9714990  20.9659997
  67.9756379 107.6199182  20.8478636  65.1349992 103.4044990  35.0419997
  64.8389992 103.2394990  34.1459997  66.0659992 103.1844990  35.0309997
  65.2204401 103.3521891  34.9180189 103.8339992  43.2864990  93.2939997
 103.5979992  43.0674990  94.1959997 103.0509992  43.0794990  92.7849997
 103.6958444  43.2285688  93.3484518  69.7549992 108.7784990  32.9309997
  68.8539992 108.9614990  32.6639997  69.7889992 109.0374990  33.8519997
  69.6363861 108.8385245  33.0189517  75.4859992 101.0224990  21.2989997
  74.9319992 100.6264990  20.6259997  75.5869992 101.9334990  21.0209997
  75.4238589 101.0913904  21.1693839  75.4489992 106.8234990  34.1359997
  74.5979992 107.0614990  33.7679997  76.0399992 106.8064990  33.3819997
  75.4123831 106.8537623  33.9838448  73.7809992 109.8084990  21.7639997
  73.4089992 108.9834990  22.0729997  74.0589992 109.6254990  20.8659997
  73.7675807 109.6707031  21.6850063  70.9419992 104.6164990  28.7849997
  70.0139992 104.3854990  28.7579997  71.3929992 103.8394990  28.4549997
  70.8758165 104.4797785  28.7366772  63.4849992 108.9454990  24.9179997
  64.0119992 109.7184990  24.7179997  62.6049992 109.1694990  24.6159997
  63.4382121 109.0817344  24.8497460  59.2399992 103.8074990  19.5049997
  59.8559992 104.4344990  19.8849997  58.3779992 104.1234990  19.7769997
  59.2077678 103.9359423  19.5937192  64.9119992 106.6084990  24.4939997
  64.6709992 107.5334990  24.5359997  64.1719992 106.1494990  24.8909997
  64.7789463 106.6730969  24.5534279  65.4269992 110.7574990  30.8089997
  65.7899992 111.6114990  30.5759997  65.9589992 110.4654990  31.5499997
  65.5485141 110.8348907  30.8772079  63.5949992 111.6294990  24.0399997
  62.6459992 111.7354990  24.0909997  63.9469992 112.4504990  24.3839997
  63.5125647 111.7550029  24.0934882 106.5499992  42.4144990  92.3699997
 105.6019992  42.4464990  92.5019997 106.8619992  41.7884990  93.0239997
 106.4625293  42.3342934  92.4764130  68.9709992 106.8564990  30.5099997
  68.5449992 106.6284990  31.3359997  69.5519992 106.1174990  30.3279997
  68.9912088 106.7254393  30.5984454  71.1739992 107.7854990  19.5839997
  71.5269992 107.4054990  20.3879997  70.2249992 107.6914990  19.6709997
  71.0940956 107.7207867  19.7058005  71.6299992 111.4084990  32.9789997
  71.0279992 110.8524990  32.4839997  71.9109992 112.0754990  32.3529997
  71.5855757 111.4225755  32.8265657  75.6769992 112.2644990  19.7849997
  76.4209992 112.8504990  19.6449997  74.9829992 112.8334990  20.1179997
  75.6849809 112.4215830  19.8108572  59.7519992  98.6414990  32.3869997
  58.8589992  98.9794990  32.3189997  59.6529992  97.7854990  32.8049997
  59.6164752  98.5720986  32.4341644  72.0399992 106.4574990  21.8109997
  71.7629992 105.7294990  22.3669997  72.9669992 106.5764990  22.0159997
  72.1274419 106.3739436  21.9148264  59.4029992 110.4454990  30.8219997
  59.6199992 109.5134990  30.7909997  59.6499992 110.7204990  31.7049997
  59.4660948 110.3550976  30.9371268  65.2649992 108.8974990  18.0309997
  65.5039992 108.1484990  17.4839997  64.9959992 108.5094990  18.8639997
  65.2613233 108.7426865  18.0687791  64.2019992 108.4674990  20.4869997
  64.3489992 107.9474990  21.2769997  64.1989992 109.3744990  20.7939997
  64.2217102 108.5188964  20.6365907  60.6549992 105.7194990  20.9979997
  59.9689992 106.0724990  21.5649997  61.1779992 106.4824990  20.7509997
  60.6318402 105.8708912  21.0421783 108.1839992  41.0484990  94.3749997
 108.0869992  40.0964990  94.3689997 107.8619992  41.3164990  95.2359997
 108.1272229  40.9544706  94.4905108  68.4859992  98.3824990  31.2769997
  69.1849992  98.4564990  31.9269997  68.1059992  97.5174990  31.4309997
  68.5302662  98.2757050  31.3867412  69.2709992  98.0344990  22.3739997
  69.4909992  98.5054990  21.5699997  69.8289992  98.4284990  23.0439997
  69.3766044  98.1522946  22.3545207  66.9399992 110.1644990  21.2369997
  66.1229992 110.6614990  21.2889997  67.4689992 110.6404990  20.5959997
  66.8998125 110.2967000  21.1575289  66.4709992  99.7624990  23.2089997
  67.2829992 100.2664990  23.2549997  66.2259992  99.6174990  24.1229997
  66.5491091  99.8119366  23.3388552  67.0069992 100.7484990  32.3929997
  67.1259992 101.3224990  33.1499997  67.6619992 100.0604990  32.5079997
  67.1118684 100.7340205  32.5121656  67.3549992  96.8434990  24.1469997
  67.0079992  97.4604990  24.7909997  68.0129992  97.3444990  23.6649997
  67.3964430  96.9956860  24.1700046  64.2779992 111.2084990  21.2179997
  64.4389992 112.0084990  20.7179997  64.0809992 111.5154990  22.1029997
  64.2733906 111.3593690  21.2692316  63.0119992  97.9064990  20.8339997
  62.9289992  98.7944990  21.1809997  63.9019992  97.6414990  21.0659997
  63.1209331  97.9921177  20.9128067  71.8129992 102.4054990  27.3239997
  71.0159992 101.9904990  26.9959997  72.2579992 101.7154990  27.8149997
  71.7640367 102.2553372  27.3454897  61.2709992 108.3334990  19.8939997
  61.8629992 109.0334990  20.1709997  61.7299992 107.9004990  19.1749997
  61.4141652 108.3707686  19.8346515  98.0109992  42.2574990  93.4229997
  98.2219992  41.5514990  92.8119997  97.8989992  41.8204990  94.2669997
  98.0247674  42.1016376  93.4534199  59.5869992 100.9984990  19.0099997
  59.5419992 101.9374990  19.1889997  58.6989992 100.7624990  18.7409997
  59.4608166 101.0951698  18.9981507  72.8999992 111.6614990  28.9459997
  72.7439992 112.3404990  28.2889997  73.8319992 111.7334990  29.1489997
  73.0047328 111.7641586  28.8835529  60.3949992  95.7794990  27.6829997
  60.1659992  95.8384990  26.7559997  59.9519992  94.9884990  27.9899997
  60.3037387  95.6806413  27.5975223  59.3249992 109.7204990  23.8439997
  58.4929992 110.1924990  23.8709997  59.8709992 110.2304990  23.2449997
  59.2848710 109.8540317  23.7667570  67.3029992 110.7604990  18.1689997
  66.6589992 110.1294990  18.4909997  68.0649992 110.2294990  17.9379997
  67.3178708 110.6023171  18.1818461  71.9069992 110.5774990  18.4029997
  72.1899992 109.7824990  18.8559997  72.6469992 110.8104990  17.8419997
  72.0457295 110.5002349  18.3891469  62.8619992 106.4864990  18.2609997
  62.9259992 105.6924990  18.7909997  63.5149992 106.3684990  17.5709997
  62.9590483 106.3617496  18.2403407  68.2139992 107.5334990  17.9969997
  67.9459992 107.7144990  18.8969997  68.0079992 106.6084990  17.8649997
  68.1493443 107.4331873  18.1026643  64.0109992 104.4594990  20.5669997
  63.5519992 103.9754990  21.2519997  64.2659992 103.7904990  19.9309997
  63.9825997 104.3028491  20.5748734  63.2999992 102.3524990  32.9229997
  62.6819992 103.0264990  33.2029997  63.6439992 102.6734990  32.0889997
  63.2618078 102.4882298  32.8486609 102.7919992  38.2594990  92.4019997
 103.5029992  37.6194990  92.3879997 102.6909992  38.5254990  91.4879997
 102.8756732  38.2078451  92.2765475  65.0819992 102.7024990  18.8289997
  64.9019992 102.5474990  17.9019997  66.0319992 102.8104990  18.8739997
  65.1857804 102.6958821  18.7081966  74.4719992 105.0564990  18.2749997
  74.1989992 104.6324990  17.4619997  74.5119992 105.9884990  18.0579997
  74.4400201 105.1243523  18.1343548  63.6399992  99.7074990  34.0049997
  63.7899992  98.9784990  33.4029997  63.6419992 100.4844990  33.4459997
  63.6607967  99.7127720  33.8470523  64.0519992  98.0764990  31.4979997
  64.5879992  98.5284990  30.8459997  63.1999992  97.9684990  31.0749997
  64.0101795  98.1237444  31.3516211  65.6339992 103.5164990  31.7369997
  66.3849992 103.3604990  31.1639997  65.2949992 104.3684990  31.4619997
  65.6909587 103.6103149  31.6214060  71.3659992 104.1204990  34.8429997
  71.0849992 104.8294990  34.2649997  72.3089992 104.0474990  34.6919997
  71.4549272 104.2076704  34.7434976  64.8579992  95.5334990  31.9289997
  64.7599992  96.4794990  31.8239997  64.1149992  95.1604990  31.4529997
  64.7442123  95.6126811  31.8503204  64.9799992 113.3924990  19.8299997
  65.9129992 113.5504990  19.9739997  64.7149992 114.0684990  19.2049997
  65.0719846 113.5054567  19.7652930  58.5479992 108.0294990  19.3129997
  59.4619992 108.1084990  19.5859997  58.5549992 107.3424990  18.6469997
  58.6740624 107.9474074  19.2603045  57.1969992 113.4224990  24.3899997
  56.5499992 112.9604990  23.8579997  57.5519992 112.7504990  24.9729997
  57.1563741 113.2684785  24.3959157 103.1449992  39.9414990  94.4559997
 103.0139992  39.4664990  93.6349997 102.5459992  40.6864990  94.3999997
 103.0461524  39.9771968  94.3361553  58.0669992 111.5024990  26.1949997
  57.7329992 110.6224990  26.3669997  58.2889992 111.8484990  27.0599997
  58.0512565 111.4287410  26.3354263  75.6159992 112.3124990  29.1759997
  75.5939992 112.4974990  30.1139997  76.3059992 112.8804990  28.8349997
  75.7063383 112.4147104  29.2584580  75.1789992 111.8794990  32.0969997
  74.6919992 111.1434990  31.7259997  75.7279992 111.4854990  32.7749997
  75.1866101 111.7256267  32.1379034  74.9309992 105.9254990  22.2499997
  75.7809992 106.3464990  22.3769997  74.9359992 105.1854990  22.8569997
  75.0481143 105.8831106  22.3494732  75.3249992 103.9794990  24.0729997
  74.5989992 103.4994990  24.4709997  75.9059992 104.1844990  24.8049997
  75.3042504 103.9415592  24.2264199  75.0839992 106.7644990  29.0209997
  75.9179992 106.3864990  28.7399997  75.1959992 107.7074990  28.9019997
  75.2131917 106.8402954  28.9664844  73.5699992 109.6424990  31.3279997
  72.9229992 109.9674990  31.9529997  73.0529992 109.2014990  30.6539997
  73.4114112 109.6274133  31.3225272  75.5929992 103.8804990  20.4639997
  75.0719992 104.2364990  19.7459997  75.5599992 104.5554990  21.1429997
  75.5170955 104.0205023  20.4572634  73.9419992 101.1194990  19.0149997
  74.0389992 101.7864990  18.3349997  73.8019992 100.3044990  18.5339997
  73.9363407 101.1005670  18.8568312  73.1119992 102.5004990  24.6359997
  72.9619992 101.5554990  24.6159997  72.7579992 102.7814990  25.4799997
  73.0436351 102.4091656  24.7473202 102.6919992  56.8244990  77.6319997
 103.6249992  56.9824990  77.7759997 102.4269992  57.5004990  77.0069997
 102.7839846  56.9374567  77.5672930  58.1469992 104.5784990  28.6469997
  58.3309992 104.4964990  27.7109997  58.9959992 104.4544990  29.0699997
  58.2870132 104.5505066  28.5761460  73.1899992  98.5274990  18.1329997
  73.7999992  98.1564990  18.7699997  72.3529992  98.1064990  18.3289997
  73.1603704  98.4197942  18.2467077  72.8219992 100.0824990  23.0989997
  73.1019992  99.1754990  23.2229997  73.5809992 100.5164990  22.7099997
  72.9629258 100.0170935  23.0633691  73.4339992 100.6644990  28.5349997
  74.3669992 100.8764990  28.4999997  73.1989992 100.7654990  29.4569997
  73.5299517 100.7071844  28.6549113  73.4629992 101.4014990  31.3109997
  72.6199992 101.6694990  31.6759997  73.9059992 102.2234990  31.0999997
  73.4074035 101.5493351  31.3324770  73.4359992  97.3454990  23.1469997
  73.6179992  96.8964990  23.9719997  72.8359992  96.7614990  22.6829997
  73.3798187  97.2050563  23.1972721  58.9659992  98.1614990  27.6789997
  59.4109992  97.3694990  27.9809997  59.4319992  98.8774990  28.1089997
  59.0899718  98.1499546  27.7785247  57.2699992 101.1604990  28.7479997
  57.7619992 100.9394990  27.9569997  57.6319992 102.0004990  29.0289997
  57.3862923 101.2438480  28.6777389  75.3019992  97.4134990  19.6749997
  75.7149992  96.6924990  19.1999997  75.9839992  98.0824990  19.7329997
  75.4506060  97.4053741  19.6179233  57.5829992  97.4184990  22.8019997
  56.6579992  97.6264990  22.6729997  58.0369992  97.9024990  22.1119997
  57.5176298  97.5124311  22.6910433  94.9089992  56.8544990  82.1919997
  94.2619992  56.3924990  81.6589997  95.2639992  56.1824990  82.7749997
  94.8683861  56.7004707  82.1977939  72.3539992 112.4024990  24.7479997
  73.0059992 112.0544990  24.1399997  72.8649992 112.8904990  25.3939997
  72.5122872 112.4208248  24.7520964  57.5469992  96.1564990  31.1459997
  56.8819992  95.9104990  31.7889997  57.1039992  96.7784990  30.5689997
  57.3961168  96.2069225  31.1559830  59.7389992 109.3314990  35.2909997
  58.9179992 109.5064990  34.8299997  59.4869992 109.2584990  36.2109997
  59.5925594 109.3455728  35.3523593  62.6929992 110.3054990  31.5489997
  62.2679992 111.1154990  31.2669997  63.5969992 110.3914990  31.2469997
  62.7570706 110.4279557  31.4695836  67.0039992 111.7044990  34.5089997
  67.1889992 111.3714990  35.3869997  67.8509992 112.0144990  34.1869997
  67.1437291 111.7008214  34.5856140  69.3489992 112.9904990  33.7529997
  70.0259992 112.3574990  33.5129997  69.6709992 113.3914990  34.5599997
  69.4851618 112.9581147  33.8292802  60.0949992 113.5624990  31.5969997
  59.3739992 114.0024990  31.1459997  59.7289992 113.3114990  32.4449997
  59.9469632 113.5887235  31.6499649  62.5619992 113.1624990  30.6259997
  61.6969992 113.2344990  31.0299997  62.5069992 113.7094990  29.8429997
  62.4362289 113.2463242  30.5753749  67.2729992 113.0504990  29.8019997
  66.8159992 113.5794990  29.1479997  67.4349992 113.6534990  30.5269997
  67.2323919 113.2043990  29.8105740  69.5999992 111.9284990  30.7469997
  68.6959992 112.0934990  30.4809997  70.0289992 112.7814990  30.6809997
  69.5342017 112.0664184  30.7016495  95.7789992  54.9344990  83.9969997
  95.4449992  54.0544990  84.1689997  96.0009992  55.2804990  84.8609997
  95.7632677  54.8607366  84.1374252  72.2039992 113.4984990  31.0419997
  72.0229992 114.4144990  30.8309997  72.3809992 113.0874990  30.1949997
  72.2031377 113.5683365  30.8987178  59.5099992 112.1854990  28.5069997
  59.4909992 111.7594990  29.3639997  60.3139992 111.8664990  28.0979997
  59.6161393 112.0840297  28.5690155  61.6509992 110.8954990  27.1619997
  61.4319992 109.9784990  27.3319997  62.4749992 111.0354990  27.6279997
  61.7324702 110.7890523  27.2482510  64.1879992 111.3654990  28.0109997
  64.4009992 110.4774990  27.7239997  64.2529992 111.3304990  28.9649997
  64.2259149 111.2393338  28.1007351  67.6969992  97.0294990  27.1549997
  67.0219992  96.3994990  27.4109997  68.2609992  96.5454990  26.5519997
  67.6809363  96.8778886  27.1084810  72.8389992  95.1364990  27.2679997
  73.4429992  95.6844990  26.7659997  71.9699992  95.4554990  27.0269997
  72.8040419  95.2545628  27.1667741  74.5659992  96.2754990  25.6009997
  75.1779992  95.7614990  25.0739997  74.9489992  97.1524990  25.6239997
  74.7013867  96.3237613  25.5320888  60.0229992  95.6634990  24.9769997
  59.2459992  95.4284990  24.4699997  60.5539992  94.8664990  24.9859997
  59.9883735  95.5236462  24.9088090  58.8599992  95.4614990  20.7809997
  59.2989992  96.0724990  20.1889997  58.2259992  95.9994990  21.2549997
  58.8343859  95.6179076  20.7640287  64.6029992  95.5894990  24.7899997
  65.4769992  95.9784990  24.7609997  64.4669992  95.3744990  25.7129997
  64.7041953  95.6136654  24.9107599 113.3279992  55.7444990  86.9769997
 113.3059992  55.9294990  87.9159997 114.0179992  56.3124990  86.6359997
 113.4183439  55.8466898  87.0594774  70.1589992  95.6194990  26.4399997
  70.2359992  95.7154990  25.4899997  69.8839992  94.7124990  26.5679997
  70.1323233  95.5099093  26.3273665  71.5129992  95.6454990  22.1319997
  70.8099992  96.2604990  21.9219997  71.0679992  94.8084990  22.2629997
  71.3566550  95.6164679  22.1209819  58.7609992 111.4094990  21.6779997
  58.0759992 111.3714990  21.0109997  58.7639992 112.3214990  21.9659997
  58.6676806 111.5276669  21.6256961  60.7209992  97.3774990  19.2229997
  61.2119992  96.7474990  18.6959997  61.3439992  97.6734990  19.8859997
  60.8725304  97.3312387  19.2404922  65.7469992  97.6704990  21.6799997
  65.9249992  97.0234990  22.3629997  65.6929992  98.5044990  22.1469997
  65.7640678  97.6946615  21.8366283  67.6249992 112.6184990  20.0759997
  68.4909992 112.9854990  19.8979997  67.3779992 112.1794990  19.2619997
  67.7101853 112.6094021  19.9415813  74.3339992 112.1814990  22.7549997
  74.1399992 111.4334990  22.1899997  74.2949992 112.9394990  22.1719997
  74.3021645 112.1815797  22.5988131  60.5789992 112.3294990  18.7029997
  60.3109992 112.6154990  19.5769997  61.3499992 111.7834990  18.8559997
  60.6465926 112.2947790  18.8431188  87.9579992 104.8194990  24.9359997
  88.0469992 105.7634990  24.8029997  87.3189992 104.5444990  24.2779997
  87.8838378 104.9113846  24.8289258  86.8909992 104.0744990  28.3549997
  86.8519992 103.4284990  29.0599997  86.5679992 103.6074990  27.5829997
  86.8420469 103.9230005  28.3472803 112.8909992  55.3114990  89.8989997
 112.4039992  54.5754990  89.5279997 113.4399992  54.9174990  90.5769997
 112.8986101  55.1576267  89.9399034  79.2589992 103.6884990  29.9479997
  79.2999992 103.0634990  30.6709997  79.9619992 104.3124990  30.1299997
  79.3596223 103.6872318  30.0716164  90.5969992 107.0134990  26.6559997
  90.1559992 106.2934990  27.1069997  90.5839992 107.7344990  27.2859997
  90.5349215 107.0124303  26.8028088  80.1829992 108.1384990  28.4829997
  79.8129992 107.3364990  28.1129997  81.1239992 107.9704990  28.5289997
  80.2595984 108.0059649  28.4385586  76.7929992 101.7984990  23.8749997
  76.3449992 102.6444990  23.8569997  76.2319992 101.2194990  23.3599997
  76.6558546 101.8359004  23.8028874  77.5029992 103.9604990  26.0009997
  77.7169992 103.1904990  26.5279997  78.2409992 104.0504990  25.3979997
  77.6320073 103.8673546  25.9915786  87.7079992 112.1174990  26.8679997
  88.3279992 111.4414990  26.5949997  87.4999992 111.8994990  27.7769997
  87.7647679 111.9955032  26.9534518  85.2799992 106.5064990  28.7609997
  85.5839992 105.8204990  28.1659997  86.0019992 106.6254990  29.3789997
  85.4191240 106.4287325  28.7630941  93.9429992  98.1084990  29.6209997
  93.9919992  98.7184990  30.3569997  94.3689992  98.5694990  28.8979997
  94.0072851  98.2543266  29.6240532  88.4209992 100.9004990  29.0879997
  88.5629992  99.9544990  29.1079997  88.3149992 101.1074990  28.1599997
  88.4261051 100.7989706  28.9652249  81.5759992  99.0024990  26.3609997
  81.6189992  99.8624990  25.9419997  81.1179992  98.4494990  25.7269997
  81.5200163  99.0454174  26.2180604 111.3419992  51.1014990  94.5369997
 110.4759992  50.9964990  94.9309997 111.7179992  51.8594990  94.9839997
 111.2743768  51.1896151  94.6513258  89.2979992  99.1334990  24.7609997
  89.9439992  98.8044990  25.3859997  89.8079992  99.6504990  24.1389997
  89.4554289  99.1584333  24.7623681  78.1959992 101.3994990  27.1229997
  78.8499992 100.8494990  27.5549997  78.2199992 101.1254990  26.2059997
  78.2887199 101.2872178  27.0581650  83.3519992 102.9494990  26.3379997
  83.9679992 102.4224990  26.8469997  82.7659992 102.3094990  25.9339997
  83.3570652 102.7908919  26.3530277  94.3349992  99.5864990  31.8569997
  93.6459992 100.2444990  31.7619997  94.3499992  99.3884990  32.7939997
  94.2427756  99.6497614  31.9705795  80.3859992  97.9204990  30.4349997
  80.1669992  98.4504990  29.6679997  79.7179992  98.1464990  31.0819997
  80.2656975  98.0235979  30.4175123  87.7549992 107.4204990  23.9789997
  87.4589992 107.0974990  23.1269997  87.4309992 108.3204990  24.0199997
  87.6707458 107.4979678  23.8680598  82.9549992 105.5954990  30.7219997
  82.2149992 106.1944990  30.8259997  83.6689992 106.1494990  30.4059997
  82.9503146 105.7522611  30.6935150  91.0619992  98.4244990  26.7419997
  90.8469992  97.6584990  27.2749997  91.7179992  98.8964990  27.2549997
  91.1212673  98.3835739  26.8841972  79.9799992  99.8124990  28.3869997
  80.5929992 100.4454990  28.7599997  80.4919992  99.3404990  27.7309997
  80.1331933  99.8353380  28.3493477  81.3619992 107.5604990  31.5089997
  81.3569992 108.4394990  31.1309997  80.5089992 107.4764990  31.9339997
  81.2459199 107.6695901  31.5146942 113.0369992  47.4114990  81.8749997
 112.3109992  46.9314990  82.2729997 113.6179992  47.6164990  82.6069997
 113.0162504  47.3735592  82.0284199  77.4839992 107.2314990  22.2909997
  77.2119992 107.4604990  21.4019997  77.5289992 108.0684990  22.7519997
  77.4528360 107.3761034  22.2316186  91.1089992 108.8524990  29.0039997
  90.1669992 108.9114990  29.1659997  91.3849992 109.7584990  28.8669997
  91.0175865 108.9830299  29.0076174  91.4089992  97.1394990  30.4209997
  90.6729992  97.7494990  30.3839997  92.0929992  97.5544990  29.8949997
  91.4005367  97.2792562  30.3448156  84.4119992  95.2254990  27.8869997
  84.2949992  94.2774990  27.8329997  83.5569992  95.5584990  28.1599997
  84.2803691  95.1405842  27.9165072  89.3609992 110.6334990  25.6289997
  89.7859992 109.9264990  25.1439997  89.6779992 111.4354990  25.2119997
  89.4620266 110.6450201  25.5062461  90.5199992 108.5344990  24.1379997
  90.2629992 107.8444990  23.5259997  90.5909992 108.0914990  24.9829997
  90.4944322 108.3801568  24.1685372  92.2059992 107.1014990  32.6149997
  92.3459992 106.5094990  31.8759997  92.3739992 107.9744990  32.2589997
  92.2478734 107.1384041  32.4656937  86.6789992 104.0634990  22.3879997
  85.9669992 104.5984990  22.0359997  87.3699992 104.1184990  21.7279997
  86.6749704 104.1441663  22.2505797  86.7329992 102.5204990  19.4259997
  87.4339992 102.5434990  20.0779997  87.0349992 101.8924990  18.7699997
  86.8698202 102.4387223  19.4265591  94.0479992 103.4414990  30.6809997
  93.3959992 104.1354990  30.7699997  94.5129992 103.6514990  29.8709997
  94.0215357 103.5649544  30.5837056 112.7959992  50.1964990  86.8229997
 113.6299992  49.8184990  86.5419997 112.9079992  51.1394990  86.7039997
 112.9251917  50.2722954  86.7684844  90.0849992 104.2724990  23.3389997
  89.3529992 104.5014990  23.9119997  90.5319992 103.5594990  23.7939997
  90.0452753 104.2073984  23.4789698  89.9819992 102.4474990  32.4069997
  90.0619992 103.2104990  32.9789997  89.3809992 102.7264990  31.7169997
  89.9116547 102.5897468  32.3920029  81.7299992 104.9034990  25.2219997
  81.3999992 104.5324990  24.4039997  82.3179992 104.2324990  25.5689997
  81.7643182 104.7620648  25.1569898  83.0969992 108.3314990  27.9029997
  83.0019992 107.7524990  27.1469997  83.8259992 107.9604990  28.3989997
  83.1826011 108.2020572  27.8666011  82.0969992 103.6714990  28.8549997
  82.6619992 103.7934990  28.0929997  82.4149992 104.3094990  29.4939997
  82.2173619 103.7744388  28.8370019  88.4059992 109.1754990  29.5889997
  88.1649992 109.8374990  30.2369997  88.2079992 108.3404990  30.0139997
  88.3462662 109.1532704  29.7351008  82.9769992 108.0714990  33.5729997
  82.6649992 108.8534990  34.0279997  82.3269992 107.9184990  32.8869997
  82.8464858 108.1577882  33.5425344  88.9559992 103.4354990  21.0249997
  89.5349992 103.5854990  21.7709997  89.3699992 103.9054990  20.3009997
  89.0913358 103.5195966  21.0293935  79.8969992 104.2694990  32.8009997
  79.9669992 104.9204990  33.4999997  79.0059992 104.3724990  32.4659997
  79.7861690 104.3724261  32.8513026  86.6819992 110.1714990  24.4599997
  87.1559992 110.4674990  25.2369997  86.1189992 110.9104990  24.2269997
  86.6707890 110.3118047  24.5348084 111.2819992  53.0744990  89.1299997
 110.6349992  53.3994990  89.7549997 110.7649992  52.6334990  88.4549997
 111.1234068  53.0594726  89.1244918  81.2159992 110.1424990  34.3359997
  81.2239992 110.0064990  33.3889997  80.2999992 110.0254990  34.5879997
  81.0932528 110.1080475  34.2403226  92.6539992  95.1854990  20.8369997
  91.7539992  95.3234990  21.1329997  92.9059992  96.0164990  20.4359997
  92.5647727  95.3168705  20.8232935  80.7199992 103.9724990  22.8109997
  80.4279992 104.7404990  22.3199997  80.0459992 103.3134990  22.6479997
  80.5888843 103.9884537  22.7217695  93.8439992 109.5514990  19.2139997
  93.9169992 110.4904990  19.3839997  94.7489992 109.2464990  19.1579997
  93.9764170 109.6388294  19.2297045  76.8129992 106.3354990  31.6259997
  76.3119992 106.3074990  30.8109997  76.8189992 105.4304990  31.9359997
  76.7451690 106.2092234  31.5562770  76.5639992 109.1164990  28.5099997
  77.5099992 108.9714990  28.4909997  76.4509992 109.9004990  29.0469997
  76.6783578 109.2026708  28.5800300  94.7609992 109.7824990  34.1929997
  94.7119992 108.8264990  34.1549997  93.9349992 110.0494990  34.5939997
  94.6425096 109.6878416  34.2420698  86.1539992 113.1284990  22.8749997
  86.0789992 113.0074990  21.9279997  86.1869992 114.0774990  22.9929997
  86.1482083 113.2402639  22.7614973  79.8079992 111.9174990  24.6559997
  79.9599992 111.5694990  25.5339997  78.9569992 111.5604990  24.3999997
  79.7138344 111.8215891  24.7416851  89.2559992 112.2824990  19.8769997
  89.6309992 111.5384990  19.4059997  89.2599992 112.0124990  20.7949997
  89.3078969 112.1440920  19.9366475 111.6539992  44.5514990  76.8169997
 111.7509992  45.2184990  76.1369997 111.5139992  43.7364990  76.3349997
 111.6483428  44.5325667  76.6588311  88.9249992 112.2084990  22.6259997
  87.9899992 112.3084990  22.8049997  89.2049992 111.4984990  23.2049997
  88.8349471 112.1262944  22.7286678  79.0619992 107.6594990  32.6689997
  79.2779992 107.2974990  33.5289997  78.2069992 107.2844990  32.4599997
  78.9759082 107.5593377  32.7582396  81.6809992  96.1294990  28.6649997
  80.8189992  96.0424990  28.2569997  81.6589992  96.9854990  29.0929997
  81.5600557  96.2333078  28.6670202  86.3439992  95.8514990  32.0399997
  86.7639992  95.4364990  32.7929997  85.4109992  95.6724990  32.1569997
  86.2753736  95.7704921  32.1588950  89.6699992  99.6064990  32.8929997
  89.1559992  99.4814990  33.6909997  89.5149992 100.5194990  32.6489997
  89.5787802  99.7127433  32.9691504  90.4329992 104.4674990  18.6539997
  90.4749992 104.2454990  17.7239997  91.2819992 104.8664990  18.8439997
  90.5535253 104.4910510  18.5523804  86.0059992  98.3434990  19.3249997
  85.7519992  98.3624990  20.2469997  85.7489992  97.4724990  19.0229997
  85.9364508  98.2283292  19.4104786  81.7719992 101.0944990  29.7599997
  81.1299992 101.0544990  30.4689997  81.8089992 102.0214990  29.5219997
  81.6891659 101.2142540  29.8248463  81.7689992 101.3154990  24.6719997
  80.8759992 100.9754990  24.6129997  82.2199992 100.9384990  23.9159997
  81.7077185 101.2180220  24.5617698  87.3049992 101.7314990  23.4889997
  86.8959992 102.5464990  23.1969997  88.0249992 101.5914990  22.8749997
  87.3464439 101.8240383  23.3660098 110.8239992  45.9324990  82.4379997
 110.6739992  44.9874990  82.4179997 110.4699992  46.2134990  83.2819997
 110.7556351  45.8411656  82.5493202  88.3089992 101.1774990  26.3029997
  88.1139992 101.7834990  25.5879997  88.4909992 100.3444990  25.8689997
  88.3069195 101.1477936  26.1464079  79.5219992 101.4154990  31.6269997
  79.4839992 101.8154990  32.4959997  79.0309992 100.5984990  31.7169997
  79.4504374 101.3598228  31.7580980  82.8879992  98.7894990  18.4259997
  82.4569992  98.3444990  19.1549997  82.1699992  99.1604990  17.9129997
  82.7319176  98.7787063  18.4564913  76.1299992  98.5314990  25.4779997
  76.7609992  98.5024990  26.1969997  76.5799992  98.1064990  24.7469997
  76.2771082  98.4701269  25.4776307  77.4039992  99.2774990  20.9019997
  77.8789992  99.8684990  20.3169997  76.6869992  99.8074990  21.2489997
  77.3720406  99.4301011  20.8688495  87.5729992 102.8154990  30.9739997
  87.8969992 102.1844990  30.3309997  87.1329992 102.2814990  31.6349997
  87.5578707 102.6568261  30.9753195  84.3509992  98.7434990  25.7579997
  83.4399992  98.8004990  26.0469997  84.8559992  98.6834990  26.5689997
  84.2946873  98.7431838  25.9071190  79.1789992 100.3724990  24.5849997
  78.2899992 100.4714990  24.2449997  79.4749992  99.5304990  24.2389997
  79.0974001 100.2722473  24.4917318  82.8319992 100.3724990  22.2419997
  83.7639992 100.5014990  22.4199997  82.6169992 101.0414990  21.5919997
  82.9304472 100.4805817  22.1784873  88.7559992  97.9784990  29.0219997
  88.0789992  98.1094990  29.6859997  88.2699992  97.8234990  28.2119997
  88.5977265  97.9754665  29.0033380  95.8589992  48.0104990  86.4479997
  96.0429992  47.9284990  85.5129997  96.7079992  47.8864990  86.8719997
  95.9990259  47.9824915  86.3771771  81.5059992 101.5664990  19.8079997
  80.9639992 101.1874990  19.1169997  82.3399992 101.7614990  19.3799997
  81.5444390 101.5409091  19.6554374  79.6409992 106.1234990  34.9069997
  80.3729992 106.3784990  35.4689997  78.8609992 106.3284990  35.4229997
  79.6356526 106.1860438  35.0535168  85.6709992 101.5304990  27.6449997
  86.2349992 100.9844990  27.0979997  85.5229992 101.0094990  28.4339997
  85.7283037 101.3851798  27.6767212  80.6729992  97.6674990  24.0639997
  80.3549992  96.7644990  24.0279997  81.4539992  97.6694990  23.5109997
  80.7351079  97.5442240  23.9842908  84.2969992  99.9194990  30.0589997
  83.4619992 100.3734990  30.1699997  84.8209992 100.1954990  30.8109997
  84.2536072 100.0188960  30.1758118  84.8409992 106.1324990  21.7439997
  84.0959992 105.6244990  21.4219997  84.7069992 106.1814990  22.6899997
  84.7209334 106.0696144  21.8278892  91.9909992 105.2654990  30.5309997
  92.6329992 105.7214990  29.9869997  91.1609992 105.3784990  30.0679997
  91.9666536 105.3431813  30.3939579  88.7389992  98.9464990  19.9429997
  87.7999992  99.0574990  19.7919997  89.0359992  99.8024990  20.2499997
  88.6506136  99.0774977  19.9638568  86.3609992 106.3164990  32.9809997
  86.0149992 105.9344990  33.7879997  86.1609992 107.2494990  33.0519997
  86.2865987 106.3904013  33.1010443  89.4569992 100.8134990  21.6039997
  90.3489992 100.6754990  21.9229997  89.5139992 101.6044990  21.0669997
  89.5867380 100.9014777  21.5750981 111.6799992  47.9024990  92.0769997
 112.2629992  47.1674990  92.2679997 112.2439992  48.6744990  92.1229997
 111.8360326  47.9062746  92.1093579  79.9659992 105.4274990  27.5139997
  80.7109992 105.4244990  26.9119997  80.0439992 104.6034990  27.9949997
  80.0783365 105.3157395  27.4967412  86.9669992 107.5904990  20.7689997
  86.6719992 108.4174990  21.1509997  86.2639992 106.9714990  20.9659997
  86.8316379 107.6199182  20.8478636  88.6109992 108.7784990  32.9309997
  87.7099992 108.9614990  32.6639997  88.6449992 109.0374990  33.8519997
  88.4923861 108.8385245  33.0189517  94.3419992 101.0224990  21.2989997
  93.7879992 100.6264990  20.6259997  94.4429992 101.9334990  21.0209997
  94.2798589 101.0913904  21.1693839  92.6369992 109.8084990  21.7639997
  92.2649992 108.9834990  22.0729997  92.9149992 109.6254990  20.8659997
  92.6235807 109.6707031  21.6850063  89.7979992 104.6164990  28.7849997
  88.8699992 104.3854990  28.7579997  90.2489992 103.8394990  28.4549997
  89.7318165 104.4797785  28.7366772  82.3409992 108.9454990  24.9179997
  82.8679992 109.7184990  24.7179997  81.4609992 109.1694990  24.6159997
  82.2942121 109.0817344  24.8497460  78.0959992 103.8074990  19.5049997
  78.7119992 104.4344990  19.8849997  77.2339992 104.1234990  19.7769997
  78.0637678 103.9359423  19.5937192  83.7679992 106.6084990  24.4939997
  83.5269992 107.5334990  24.5359997  83.0279992 106.1494990  24.8909997
  83.6349463 106.6730969  24.5534279  84.2829992 110.7574990  30.8089997
  84.6459992 111.6114990  30.5759997  84.8149992 110.4654990  31.5499997
  84.4045141 110.8348907  30.8772079 113.1769992  45.8054990  92.7609997
 112.3129992  45.4264990  92.5959997 113.7809992  45.0664990  92.6869997
 113.1404912  45.6537937  92.7284360  82.4509992 111.6294990  24.0399997
  81.5019992 111.7354990  24.0909997  82.8029992 112.4504990  24.3839997
  82.3685647 111.7550029  24.0934882  87.8269992 106.8564990  30.5099997
  87.4009992 106.6284990  31.3359997  88.4079992 106.1174990  30.3279997
  87.8472088 106.7254393  30.5984454  90.0299992 107.7854990  19.5839997
  90.3829992 107.4054990  20.3879997  89.0809992 107.6914990  19.6709997
  89.9500956 107.7207867  19.7058005  94.5329992 112.2644990  19.7849997
  95.2769992 112.8504990  19.6449997  93.8389992 112.8334990  20.1179997
  94.5409809 112.4215830  19.8108572  78.6079992  98.6414990  32.3869997
  77.7149992  98.9794990  32.3189997  78.5089992  97.7854990  32.8049997
  78.4724752  98.5720986  32.4341644  90.8959992 106.4574990  21.8109997
  90.6189992 105.7294990  22.3669997  91.8229992 106.5764990  22.0159997
  90.9834419 106.3739436  21.9148264  78.2589992 110.4454990  30.8219997
  78.4759992 109.5134990  30.7909997  78.5059992 110.7204990  31.7049997
  78.3220948 110.3550976  30.9371268  84.1209992 108.8974990  18.0309997
  84.3599992 108.1484990  17.4839997  83.8519992 108.5094990  18.8639997
  84.1173233 108.7426865  18.0687791  83.0579992 108.4674990  20.4869997
  83.2049992 107.9474990  21.2769997  83.0549992 109.3744990  20.7939997
  83.0777102 108.5188964  20.6365907  79.5109992 105.7194990  20.9979997
  78.8249992 106.0724990  21.5649997  80.0339992 106.4824990  20.7509997
  79.4878402 105.8708912  21.0421783 110.5339992  43.5144990  80.8999997
 110.8139992  42.6074990  81.0249997 111.2929992  43.9484990  80.5109997
 110.6749471  43.4490654  80.8645052  87.3419992  98.3824990  31.2769997
  88.0409992  98.4564990  31.9269997  86.9619992  97.5174990  31.4309997
  87.3862662  98.2757050  31.3867412  88.1269992  98.0344990  22.3739997
  88.3469992  98.5054990  21.5699997  88.6849992  98.4284990  23.0439997
  88.2326044  98.1522946  22.3545207  85.7959992 110.1644990  21.2369997
  84.9789992 110.6614990  21.2889997  86.3249992 110.6404990  20.5959997
  85.7558125 110.2967000  21.1575289  85.3269992  99.7624990  23.2089997
  86.1389992 100.2664990  23.2549997  85.0819992  99.6174990  24.1229997
  85.4051091  99.8119366  23.3388552  85.8629992 100.7484990  32.3929997
  85.9819992 101.3224990  33.1499997  86.5179992 100.0604990  32.5079997
  85.9678684 100.7340205  32.5121656  86.2109992  96.8434990  24.1469997
  85.8639992  97.4604990  24.7909997  86.8689992  97.3444990  23.6649997
  86.2524430  96.9956860  24.1700046  83.1339992 111.2084990  21.2179997
  83.2949992 112.0084990  20.7179997  82.9369992 111.5154990  22.1029997
  83.1293906 111.3593690  21.2692316  81.8679992  97.9064990  20.8339997
  81.7849992  98.7944990  21.1809997  82.7579992  97.6414990  21.0659997
  81.9769331  97.9921177  20.9128067  92.0669992  98.6554990  33.2279997
  91.1509992  98.9174990  33.1409997  92.4029992  98.6524990  32.3319997
  91.9868499  98.6910174  33.0948748  90.6689992 102.4054990  27.3239997
  89.8719992 101.9904990  26.9959997  91.1139992 101.7154990  27.8149997
  90.6200367 102.2553372  27.3454897 111.1459992  44.0964990  86.3359997
 112.0789992  44.3084990  86.3019997 110.9109992  44.1974990  87.2589997
 111.2418357  44.1391303  86.4560232  80.1269992 108.3334990  19.8939997
  80.7189992 109.0334990  20.1709997  80.5859992 107.9004990  19.1749997
  80.2701652 108.3707686  19.8346515  78.4429992 100.9984990  19.0099997
  78.3979992 101.9374990  19.1889997  77.5549992 100.7624990  18.7409997
  78.3168166 101.0951698  18.9981507  91.7559992 111.6614990  28.9459997
  91.5999992 112.3404990  28.2889997  92.6879992 111.7334990  29.1489997
  91.8607328 111.7641586  28.8835529  79.2509992  95.7794990  27.6829997
  79.0219992  95.8384990  26.7559997  78.8079992  94.9884990  27.9899997
  79.1597387  95.6806413  27.5975223  78.1809992 109.7204990  23.8439997
  77.3489992 110.1924990  23.8709997  78.7269992 110.2304990  23.2449997
  78.1408710 109.8540317  23.7667570  86.1589992 110.7604990  18.1689997
  85.5149992 110.1294990  18.4909997  86.9209992 110.2294990  17.9379997
  86.1738708 110.6023171  18.1818461  90.7629992 110.5774990  18.4029997
  91.0459992 109.7824990  18.8559997  91.5029992 110.8104990  17.8419997
  90.9017295 110.5002349  18.3891469  81.7179992 106.4864990  18.2609997
  81.7819992 105.6924990  18.7909997  82.3709992 106.3684990  17.5709997
  81.8150483 106.3617496  18.2403407  87.0699992 107.5334990  17.9969997
  86.8019992 107.7144990  18.8969997  86.8639992 106.6084990  17.8649997
  87.0053443 107.4331873  18.1026643  89.7669992 106.0284990  32.9439997
  90.5119992 106.6174990  32.8249997  89.0089992 106.6104990  33.0069997
  89.7665289 106.1877067  32.9362292 111.1749992  44.8334990  89.1119997
 110.3319992  45.1014990  89.4779997 111.6179992  45.6554990  88.9009997
 111.1194358  44.9813294  89.1335999  82.8669992 104.4594990  20.5669997
  82.4079992 103.9754990  21.2519997  83.1219992 103.7904990  19.9309997
  82.8385997 104.3028491  20.5748734  83.9379992 102.7024990  18.8289997
  83.7579992 102.5474990  17.9019997  84.8879992 102.8104990  18.8739997
  84.0417804 102.6958821  18.7081966  93.3279992 105.0564990  18.2749997
  93.0549992 104.6324990  17.4619997  93.3679992 105.9884990  18.0579997
  93.2960201 105.1243523  18.1343548  82.9079992  98.0764990  31.4979997
  83.4439992  98.5284990  30.8459997  82.0559992  97.9684990  31.0749997
  82.8661795  98.1237444  31.3516211  84.4899992 103.5164990  31.7369997
  85.2409992 103.3604990  31.1639997  84.1509992 104.3684990  31.4619997
  84.5469587 103.6103149  31.6214060  83.7139992  95.5334990  31.9289997
  83.6159992  96.4794990  31.8239997  82.9709992  95.1604990  31.4529997
  83.6002123  95.6126811  31.8503204  87.6939992  98.9824990  34.5679997
  86.7459992  99.0144990  34.6999997  88.0059992  98.3564990  35.2219997
  87.6065293  98.9022934  34.6744130  79.1549992  98.8254990  35.6209997
  79.3659992  98.1194990  35.0109997  79.0429992  98.3884990  36.4649997
  79.1687668  98.6696619  35.6515445  83.9359992  94.8274990  34.5999997
  84.6469992  94.1874990  34.5859997  83.8349992  95.0934990  33.6869997
  84.0196858  94.7758591  34.4745501  83.8359992 113.3924990  19.8299997
  84.7689992 113.5504990  19.9739997  83.5709992 114.0684990  19.2049997
  83.9279846 113.5054567  19.7652930  95.4559992  43.2804990  92.5889997
  96.3759992  43.1584990  92.8249997  95.0069992  42.5304990  92.9779997
  95.5211561  43.1623720  92.6739015  77.4039992 108.0294990  19.3129997
  78.3179992 108.1084990  19.5859997  77.4109992 107.3424990  18.6469997
  77.5300624 107.9474074  19.2603045  76.0529992 113.4224990  24.3899997
  75.4059992 112.9604990  23.8579997  76.4079992 112.7504990  24.9729997
  76.0123741 113.2684785  24.3959157  76.9229992 111.5024990  26.1949997
  76.5889992 110.6224990  26.3669997  77.1449992 111.8484990  27.0599997
  76.9072565 111.4287410  26.3354263  94.4719992 112.3124990  29.1759997
  94.4499992 112.4974990  30.1139997  95.1619992 112.8804990  28.8349997
  94.5623383 112.4147104  29.2584580  94.0349992 111.8794990  32.0969997
  93.5479992 111.1434990  31.7259997  94.5839992 111.4854990  32.7749997
  94.0426101 111.7256267  32.1379034  93.7869992 105.9254990  22.2499997
  94.6369992 106.3464990  22.3769997  93.7919992 105.1854990  22.8569997
  93.9041143 105.8831106  22.3494732  94.1809992 103.9794990  24.0729997
  93.4549992 103.4994990  24.4709997  94.7619992 104.1844990  24.8049997
  94.1602504 103.9415592  24.2264199  93.9399992 106.7644990  29.0209997
  94.7739992 106.3864990  28.7399997  94.0519992 107.7074990  28.9019997
  94.0691917 106.8402954  28.9664844  92.4259992 109.6424990  31.3279997
  91.7789992 109.9674990  31.9529997  91.9089992 109.2014990  30.6539997
  92.2674112 109.6274133  31.3225272  94.4489992 103.8804990  20.4639997
  93.9279992 104.2364990  19.7459997  94.4159992 104.5554990  21.1429997
  94.3730955 104.0205023  20.4572634 113.4579992  38.8134990  94.4659997
 113.8079992  38.1594990  93.8599997 113.6049992  39.6504990  94.0259997
 113.5257192  38.8372545  94.3236712  92.7979992 101.1194990  19.0149997
  92.8949992 101.7864990  18.3349997  92.6579992 100.3044990  18.5339997
  92.7923407 101.1005670  18.8568312  91.9679992 102.5004990  24.6359997
  91.8179992 101.5554990  24.6159997  91.6139992 102.7814990  25.4799997
  91.8996351 102.4091656  24.7473202  77.0029992 104.5784990  28.6469997
  77.1869992 104.4964990  27.7109997  77.8519992 104.4544990  29.0699997
  77.1430132 104.5505066  28.5761460  92.0459992  98.5274990  18.1329997
  92.6559992  98.1564990  18.7699997  91.2089992  98.1064990  18.3289997
  92.0163704  98.4197942  18.2467077  91.6779992 100.0824990  23.0989997
  91.9579992  99.1754990  23.2229997  92.4369992 100.5164990  22.7099997
  91.8189258 100.0170935  23.0633691  92.2899992 100.6644990  28.5349997
  93.2229992 100.8764990  28.4999997  92.0549992 100.7654990  29.4569997
  92.3859517 100.7071844  28.6549113  92.3189992 101.4014990  31.3109997
  91.4759992 101.6694990  31.6759997  92.7619992 102.2234990  31.0999997
  92.2634035 101.5493351  31.3324770  92.2919992  97.3454990  23.1469997
  92.4739992  96.8964990  23.9719997  91.6919992  96.7614990  22.6829997
  92.2358187  97.2050563  23.1972721  77.8219992  98.1614990  27.6789997
  78.2669992  97.3694990  27.9809997  78.2879992  98.8774990  28.1089997
  77.9459718  98.1499546  27.7785247  76.1259992 101.1604990  28.7479997
  76.6179992 100.9394990  27.9569997  76.4879992 102.0004990  29.0289997
  76.2422923 101.2438480  28.6777389 111.1479992  40.7774990  80.9489997
 111.3299992  40.3284990  81.7739997 110.5479992  40.1934990  80.4849997
 111.0918187  40.6370563  80.9992721  94.1579992  97.4134990  19.6749997
  94.5709992  96.6924990  19.1999997  94.8399992  98.0824990  19.7329997
  94.3066060  97.4053741  19.6179233  76.4389992  97.4184990  22.8019997
  75.5139992  97.6264990  22.6729997  76.8929992  97.9024990  22.1119997
  76.3736298  97.5124311  22.6910433  91.2099992 112.4024990  24.7479997
  91.8619992 112.0544990  24.1399997  91.7209992 112.8904990  25.3939997
  91.3682872 112.4208248  24.7520964  76.4029992  96.1564990  31.1459997
  75.7379992  95.9104990  31.7889997  75.9599992  96.7784990  30.5689997
  76.2521168  96.2069225  31.1559830  81.5489992 110.3054990  31.5489997
  81.1239992 111.1154990  31.2669997  82.4529992 110.3914990  31.2469997
  81.6130706 110.4279557  31.4695836  85.8599992 111.7044990  34.5089997
  86.0449992 111.3714990  35.3869997  86.7069992 112.0144990  34.1869997
  85.9997291 111.7008214  34.5856140  93.1229992  95.5804990  32.8319997
  92.3099992  95.9054990  32.4449997  93.3559992  94.8194990  32.2989997
  93.0431347  95.5221891  32.7069824  78.9509992 113.5624990  31.5969997
  78.2299992 114.0024990  31.1459997  78.5849992 113.3114990  32.4449997
  78.8029632 113.5887235  31.6499649  81.4179992 113.1624990  30.6259997
  80.5529992 113.2344990  31.0299997  81.3629992 113.7094990  29.8429997
  81.2922289 113.2463242  30.5753749  86.1289992 113.0504990  29.8019997
  85.6719992 113.5794990  29.1479997  86.2909992 113.6534990  30.5269997
  86.0883919 113.2043990  29.8105740  96.6779992  41.5934990  85.4799997
  97.1229992  40.8014990  85.7819997  97.1439992  42.3094990  85.9109997
  96.8019059  41.5819485  85.5796061  88.4559992 111.9284990  30.7469997
  87.5519992 112.0934990  30.4809997  88.8849992 112.7814990  30.6809997
  88.3902017 112.0664184  30.7016495  91.0599992 113.4984990  31.0419997
  90.8789992 114.4144990  30.8309997  91.2369992 113.0874990  30.1949997
  91.0591377 113.5683365  30.8987178  78.3659992 112.1854990  28.5069997
  78.3469992 111.7594990  29.3639997  79.1699992 111.8664990  28.0979997
  78.4721393 112.0840297  28.5690155  80.5069992 110.8954990  27.1619997
  80.2879992 109.9784990  27.3319997  81.3309992 111.0354990  27.6279997
  80.5884702 110.7890523  27.2482510  83.0439992 111.3654990  28.0109997
  83.2569992 110.4774990  27.7239997  83.1089992 111.3304990  28.9649997
  83.0819149 111.2393338  28.1007351  86.5529992  97.0294990  27.1549997
  85.8779992  96.3994990  27.4109997  87.1169992  96.5454990  26.5519997
  86.5369363  96.8778886  27.1084810  91.6949992  95.1364990  27.2679997
  92.2989992  95.6844990  26.7659997  90.8259992  95.4554990  27.0269997
  91.6600419  95.2545628  27.1667741  93.4219992  96.2754990  25.6009997
  94.0339992  95.7614990  25.0739997  93.8049992  97.1524990  25.6239997
  93.5573867  96.3237613  25.5320888  78.8789992  95.6634990  24.9769997
  78.1019992  95.4284990  24.4699997  79.4099992  94.8664990  24.9859997
  78.8443735  95.5236462  24.9088090  77.7159992  95.4614990  20.7809997
  78.1549992  96.0724990  20.1889997  77.0819992  95.9994990  21.2549997
  77.6903859  95.6179076  20.7640287  94.9819992  44.5924990  86.5489997
  95.4739992  44.3714990  85.7589997  95.3439992  45.4324990  86.8299997
  95.0983429  44.6758220  86.4787918  83.4589992  95.5894990  24.7899997
  84.3329992  95.9784990  24.7609997  83.3229992  95.3744990  25.7129997
  83.5601953  95.6136654  24.9107599  89.0149992  95.6194990  26.4399997
  89.0919992  95.7154990  25.4899997  88.7399992  94.7124990  26.5679997
  88.9883233  95.5099093  26.3273665  90.3689992  95.6454990  22.1319997
  89.6659992  96.2604990  21.9219997  89.9239992  94.8084990  22.2629997
  90.2126550  95.6164679  22.1209819  77.6169992 111.4094990  21.6779997
  76.9319992 111.3714990  21.0109997  77.6199992 112.3214990  21.9659997
  77.5236806 111.5276669  21.6256961  79.5769992  97.3774990  19.2229997
  80.0679992  96.7474990  18.6959997  80.1999992  97.6734990  19.8859997
  79.7285304  97.3312387  19.2404922  84.6029992  97.6704990  21.6799997
  84.7809992  97.0234990  22.3629997  84.5489992  98.5044990  22.1469997
  84.6200678  97.6946615  21.8366283  86.4809992 112.6184990  20.0759997
  87.3469992 112.9854990  19.8979997  86.2339992 112.1794990  19.2619997
  86.5661853 112.6094021  19.9415813  93.1899992 112.1814990  22.7549997
  92.9959992 111.4334990  22.1899997  93.1509992 112.9394990  22.1719997
  93.1581645 112.1815797  22.5988131  79.4349992 112.3294990  18.7029997
  79.1669992 112.6154990  19.5769997  80.2059992 111.7834990  18.8559997
  79.5025926 112.2947790  18.8431188 106.8139992 104.8194990  24.9359997
 106.9029992 105.7634990  24.8029997 106.1749992 104.5444990  24.2779997
 106.7398378 104.9113846  24.8289258 112.9779992  40.9224990  92.8149997
 112.0609992  41.1934990  92.7789997 113.1009992  40.3874990  92.0309997
 112.8690828  40.8872711  92.7040767 105.7469992 104.0744990  28.3549997
 105.7079992 103.4284990  29.0599997 105.4239992 103.6074990  27.5829997
 105.6980469 103.9230005  28.3472803  98.1149992 103.6884990  29.9479997
  98.1559992 103.0634990  30.6709997  98.8179992 104.3124990  30.1299997
  98.2156223 103.6872318  30.0716164 109.4529992 107.0134990  26.6559997
 109.0119992 106.2934990  27.1069997 109.4399992 107.7344990  27.2859997
 109.3909215 107.0124303  26.8028088  99.0389992 108.1384990  28.4829997
  98.6689992 107.3364990  28.1129997  99.9799992 107.9704990  28.5289997
  99.1155984 108.0059649  28.4385586  95.6489992 101.7984990  23.8749997
  95.2009992 102.6444990  23.8569997  95.0879992 101.2194990  23.3599997
  95.5118546 101.8359004  23.8028874  96.3589992 103.9604990  26.0009997
  96.5729992 103.1904990  26.5279997  97.0969992 104.0504990  25.3979997
  96.4880073 103.8673546  25.9915786 106.5639992 112.1174990  26.8679997
 107.1839992 111.4414990  26.5949997 106.3559992 111.8994990  27.7769997
 106.6207679 111.9955032  26.9534518 104.1359992 106.5064990  28.7609997
 104.4399992 105.8204990  28.1659997 104.8579992 106.6254990  29.3789997
 104.2751240 106.4287325  28.7630941 112.7989992  98.1084990  29.6209997
 112.8479992  98.7184990  30.3569997 113.2249992  98.5694990  28.8979997
 112.8632851  98.2543266  29.6240532 107.2769992 100.9004990  29.0879997
 107.4189992  99.9544990  29.1079997 107.1709992 101.1074990  28.1599997
 107.2821051 100.7989706  28.9652249  95.2949992  40.8504990  80.6039997
  94.3699992  41.0584990  80.4739997  95.7489992  41.3344990  79.9139997
  95.2297401  40.9443895  80.4929433 100.4319992  99.0024990  26.3609997
 100.4749992  99.8624990  25.9419997  99.9739992  98.4494990  25.7269997
 100.3760163  99.0454174  26.2180604 108.1539992  99.1334990  24.7609997
 108.7999992  98.8044990  25.3859997 108.6639992  99.6504990  24.1389997
 108.3114289  99.1584333  24.7623681  97.0519992 101.3994990  27.1229997
  97.7059992 100.8494990  27.5549997  97.0759992 101.1254990  26.2059997
  97.1447199 101.2872178  27.0581650 102.2079992 102.9494990  26.3379997
 102.8239992 102.4224990  26.8469997 101.6219992 102.3094990  25.9339997
 102.2130652 102.7908919  26.3530277  99.2419992  97.9204990  30.4349997
  99.0229992  98.4504990  29.6679997  98.5739992  98.1464990  31.0819997
  99.1216975  98.0235979  30.4175123 106.6109992 107.4204990  23.9789997
 106.3149992 107.0974990  23.1269997 106.2869992 108.3204990  24.0199997
 106.5267458 107.4979678  23.8680598 101.8109992 105.5954990  30.7219997
 101.0709992 106.1944990  30.8259997 102.5249992 106.1494990  30.4059997
 101.8063146 105.7522611  30.6935150 109.9179992  98.4244990  26.7419997
 109.7029992  97.6584990  27.2749997 110.5739992  98.8964990  27.2549997
 109.9772673  98.3835739  26.8841972  98.8359992  99.8124990  28.3869997
  99.4489992 100.4454990  28.7599997  99.3479992  99.3404990  27.7309997
  98.9891933  99.8353380  28.3493477 100.2179992 107.5604990  31.5089997
 100.2129992 108.4394990  31.1309997  99.3649992 107.4764990  31.9339997
 100.1019199 107.6695901  31.5146942 110.0659992  55.8344990  82.5489997
 110.7179992  55.4864990  81.9409997 110.5769992  56.3224990  83.1949997
 110.2242872  55.8528248  82.5530964  96.3399992 107.2314990  22.2909997
  96.0679992 107.4604990  21.4019997  96.3849992 108.0684990  22.7519997
  96.3088360 107.3761034  22.2316186 109.9649992 108.8524990  29.0039997
 109.0229992 108.9114990  29.1659997 110.2409992 109.7584990  28.8669997
 109.8735865 108.9830299  29.0076174 110.2649992  97.1394990  30.4209997
 109.5289992  97.7494990  30.3839997 110.9489992  97.5544990  29.8949997
 110.2565367  97.2792562  30.3448156 103.2679992  95.2254990  27.8869997
 103.1509992  94.2774990  27.8329997 102.4129992  95.5584990  28.1599997
 103.1363691  95.1405842  27.9165072 108.2169992 110.6334990  25.6289997
 108.6419992 109.9264990  25.1439997 108.5339992 111.4354990  25.2119997
 108.3180266 110.6450201  25.5062461 109.3759992 108.5344990  24.1379997
 109.1189992 107.8444990  23.5259997 109.4469992 108.0914990  24.9829997
 109.3504322 108.3801568  24.1685372 111.0619992 107.1014990  32.6149997
 111.2019992 106.5094990  31.8759997 111.2299992 107.9744990  32.2589997
 111.1038734 107.1384041  32.4656937 105.5349992 104.0634990  22.3879997
 104.8229992 104.5984990  22.0359997 106.2259992 104.1184990  21.7279997
 105.5309704 104.1441663  22.2505797 105.5889992 102.5204990  19.4259997
 106.2899992 102.5434990  20.0779997 105.8909992 101.8924990  18.7699997
 105.7258202 102.4387223  19.4265591 112.9039992 103.4414990  30.6809997
 112.2519992 104.1354990  30.7699997 113.3689992 103.6514990  29.8709997
 112.8775357 103.5649544  30.5837056  95.2589992  39.5884990  88.9479997
  94.5939992  39.3424990  89.5909997  94.8159992  40.2104990  88.3709997
  95.1081168  39.6389225  88.9579830 108.9409992 104.2724990  23.3389997
 108.2089992 104.5014990  23.9119997 109.3879992 103.5594990  23.7939997
 108.9012753 104.2073984  23.4789698 108.8379992 102.4474990  32.4069997
 108.9179992 103.2104990  32.9789997 108.2369992 102.7264990  31.7169997
 108.7676547 102.5897468  32.3920029 100.5859992 104.9034990  25.2219997
 100.2559992 104.5324990  24.4039997 101.1739992 104.2324990  25.5689997
 100.6203182 104.7620648  25.1569898 101.9529992 108.3314990  27.9029997
 101.8579992 107.7524990  27.1469997 102.6819992 107.9604990  28.3989997
 102.0386011 108.2020572  27.8666011 100.9529992 103.6714990  28.8549997
 101.5179992 103.7934990  28.0929997 101.2709992 104.3094990  29.4939997
 101.0733619 103.7744388  28.8370019 107.2619992 109.1754990  29.5889997
 107.0209992 109.8374990  30.2369997 107.0639992 108.3404990  30.0139997
 107.2022662 109.1532704  29.7351008 101.8329992 108.0714990  33.5729997
 101.5209992 108.8534990  34.0279997 101.1829992 107.9184990  32.8869997
 101.7024858 108.1577882  33.5425344 107.8119992 103.4354990  21.0249997
 108.3909992 103.5854990  21.7709997 108.2259992 103.9054990  20.3009997
 107.9473358 103.5195966  21.0293935 105.5379992 110.1714990  24.4599997
 106.0119992 110.4674990  25.2369997 104.9749992 110.9104990  24.2269997
 105.5267890 110.3118047  24.5348084 100.0719992 110.1424990  34.3359997
 100.0799992 110.0064990  33.3889997  99.1559992 110.0254990  34.5879997
  99.9492528 110.1080475  34.2403226  97.4509992  52.7634990  93.0919997
  96.6299992  52.9384990  92.6319997  97.1989992  52.6904990  94.0129997
  97.3046173  52.7775806  93.1534954 111.5099992  95.1854990  20.8369997
 110.6099992  95.3234990  21.1329997 111.7619992  96.0164990  20.4359997
 111.4207727  95.3168705  20.8232935  99.5759992 103.9724990  22.8109997
  99.2839992 104.7404990  22.3199997  98.9019992 103.3134990  22.6479997
  99.4448843 103.9884537  22.7217695 112.6999992 109.5514990  19.2139997
 112.7729992 110.4904990  19.3839997 113.6049992 109.2464990  19.1579997
 112.8324170 109.6388294  19.2297045  95.6689992 106.3354990  31.6259997
  95.1679992 106.3074990  30.8109997  95.6749992 105.4304990  31.9359997
  95.6011690 106.2092234  31.5562770  95.4199992 109.1164990  28.5099997
  96.3659992 108.9714990  28.4909997  95.3069992 109.9004990  29.0469997
  95.5343578 109.2026708  28.5800300 113.6169992 109.7824990  34.1929997
 113.5679992 108.8264990  34.1549997 112.7909992 110.0494990  34.5939997
 113.4985096 109.6878416  34.2420698 104.5959992 109.3564990  33.0689997
 104.6829992 110.1824990  33.5439997 103.7319992 109.0264990  33.3179997
 104.4911944 109.4249871  33.1676558 105.0099992 113.1284990  22.8749997
 104.9349992 113.0074990  21.9279997 105.0429992 114.0774990  22.9929997
 105.0042083 113.2402639  22.7614973  98.6639992 111.9174990  24.6559997
  98.8159992 111.5694990  25.5339997  97.8129992 111.5604990  24.3999997
  98.5698344 111.8215891  24.7416851 108.1119992 112.2824990  19.8769997
 108.4869992 111.5384990  19.4059997 108.1159992 112.0124990  20.7949997
 108.1638969 112.1440920  19.9366475 100.4049992  53.7374990  89.3509997
  99.9799992  54.5474990  89.0679997 101.3089992  53.8234990  89.0489997
 100.4691002  53.8598728  89.2714798 107.7809992 112.2084990  22.6259997
 106.8459992 112.3084990  22.8049997 108.0609992 111.4984990  23.2049997
 107.6909471 112.1262944  22.7286678 100.5369992  96.1294990  28.6649997
  99.6749992  96.0424990  28.2569997 100.5149992  96.9854990  29.0929997
 100.4160557  96.2333078  28.6670202 105.1999992  95.8514990  32.0399997
 105.6199992  95.4364990  32.7929997 104.2669992  95.6724990  32.1569997
 105.1313736  95.7704921  32.1588950 108.5259992  99.6064990  32.8929997
 108.0119992  99.4814990  33.6909997 108.3709992 100.5194990  32.6489997
 108.4347802  99.7127433  32.9691504 109.2889992 104.4674990  18.6539997
 109.3309992 104.2454990  17.7239997 110.1379992 104.8664990  18.8439997
 109.4095253 104.4910510  18.5523804 104.8619992  98.3434990  19.3249997
 104.6079992  98.3624990  20.2469997 104.6049992  97.4724990  19.0229997
 104.7924508  98.2283292  19.4104786 100.6279992 101.0944990  29.7599997
  99.9859992 101.0544990  30.4689997 100.6649992 102.0214990  29.5219997
 100.5451659 101.2142540  29.8248463 100.6249992 101.3154990  24.6719997
  99.7319992 100.9754990  24.6129997 101.0759992 100.9384990  23.9159997
 100.5637185 101.2180220  24.5617698 106.1609992 101.7314990  23.4889997
 105.7519992 102.5464990  23.1969997 106.8809992 101.5914990  22.8749997
 106.2024439 101.8240383  23.3660098 107.1649992 101.1774990  26.3029997
 106.9699992 101.7834990  25.5879997 107.3469992 100.3444990  25.8689997
 107.1629195 101.1477936  26.1464079 104.7159992  55.1364990  92.3099997
 104.9009992  54.8034990  93.1879997 105.5629992  55.4464990  91.9879997
 104.8557291  55.1328214  92.3866140  98.3779992 101.4154990  31.6269997
  98.3399992 101.8154990  32.4959997  97.8869992 100.5984990  31.7169997
  98.3064374 101.3598228  31.7580980 101.7439992  98.7894990  18.4259997
 101.3129992  98.3444990  19.1549997 101.0259992  99.1604990  17.9129997
 101.5879176  98.7787063  18.4564913  94.9859992  98.5314990  25.4779997
  95.6169992  98.5024990  26.1969997  95.4359992  98.1064990  24.7469997
  95.1331082  98.4701269  25.4776307  96.2599992  99.2774990  20.9019997
  96.7349992  99.8684990  20.3169997  95.5429992  99.8074990  21.2489997
  96.2280406  99.4301011  20.8688495 106.4289992 102.8154990  30.9739997
 106.7529992 102.1844990  30.3309997 105.9889992 102.2814990  31.6349997
 106.4138707 102.6568261  30.9753195 103.2069992  98.7434990  25.7579997
 102.2959992  98.8004990  26.0469997 103.7119992  98.6834990  26.5689997
 103.1506873  98.7431838  25.9071190  98.0349992 100.3724990  24.5849997
  97.1459992 100.4714990  24.2449997  98.3309992  99.5304990  24.2389997
  97.9534001 100.2722473  24.4917318 101.6879992 100.3724990  22.2419997
 102.6199992 100.5014990  22.4199997 101.4729992 101.0414990  21.5919997
 101.7864472 100.4805817  22.1784873 107.6119992  97.9784990  29.0219997
 106.9349992  98.1094990  29.6859997 107.1259992  97.8234990  28.2119997
 107.4537265  97.9754665  29.0033380 100.3619992 101.5664990  19.8079997
  99.8199992 101.1874990  19.1169997 101.1959992 101.7614990  19.3799997
 100.4004390 101.5409091  19.6554374 107.0609992  56.4224990  91.5539997
 107.7379992  55.7894990  91.3139997 107.3829992  56.8234990  92.3619997
 107.1971280  56.3900638  91.6303190 110.8989992 113.6494990  35.2989997
 111.0989992 114.0734990  34.4649997 111.5549992 113.9934990  35.9059997
 111.0149937 113.7539993  35.2668645 104.5269992 101.5304990  27.6449997
 105.0909992 100.9844990  27.0979997 104.3789992 101.0094990  28.4339997
 104.5843037 101.3851798  27.6767212  99.5289992  97.6674990  24.0639997
  99.2109992  96.7644990  24.0279997 100.3099992  97.6694990  23.5109997
  99.5911079  97.5442240  23.9842908 103.1529992  99.9194990  30.0589997
 102.3179992 100.3734990  30.1699997 103.6769992 100.1954990  30.8109997
 103.1096072 100.0188960  30.1758118 103.6969992 106.1324990  21.7439997
 102.9519992 105.6244990  21.4219997 103.5629992 106.1814990  22.6899997
 103.5769334 106.0696144  21.8278892 110.8469992 105.2654990  30.5309997
 111.4889992 105.7214990  29.9869997 110.0169992 105.3784990  30.0679997
 110.8226536 105.3431813  30.3939579 107.5949992  98.9464990  19.9429997
 106.6559992  99.0574990  19.7919997 107.8919992  99.8024990  20.2499997
 107.5066136  99.0774977  19.9638568 105.2169992 106.3164990  32.9809997
 104.8709992 105.9344990  33.7879997 105.0169992 107.2494990  33.0519997
 105.1425987 106.3904013  33.1010443 108.3129992 100.8134990  21.6039997
 109.2049992 100.6754990  21.9229997 108.3699992 101.6044990  21.0669997
 108.4427380 100.9014777  21.5750981  98.8219992 105.4274990  27.5139997
  99.5669992 105.4244990  26.9119997  98.8999992 104.6034990  27.9949997
  98.9343365 105.3157395  27.4967412 111.9789992  39.0124990  90.6339997
 111.1659992  39.3374990  90.2459997 112.2119992  38.2514990  90.1009997
 111.8992566  38.9541570  90.5089196 105.8229992 107.5904990  20.7689997
 105.5279992 108.4174990  21.1509997 105.1199992 106.9714990  20.9659997
 105.6876379 107.6199182  20.8478636  95.8299992 103.8874990  32.8289997
  96.0529992 103.4694990  33.6599997  95.2279992 103.2754990  32.4059997
  95.7791513 103.7474617  32.8856722 102.8469992 103.4044990  35.0419997
 102.5509992 103.2394990  34.1459997 103.7779992 103.1844990  35.0309997
 102.9324401 103.3521891  34.9180189 107.4669992 108.7784990  32.9309997
 106.5659992 108.9614990  32.6639997 107.5009992 109.0374990  33.8519997
 107.3483861 108.8385245  33.0189517 113.1979992 101.0224990  21.2989997
 112.6439992 100.6264990  20.6259997 113.2989992 101.9334990  21.0209997
 113.1358589 101.0913904  21.1693839 111.4929992 109.8084990  21.7639997
 111.1209992 108.9834990  22.0729997 111.7709992 109.6254990  20.8659997
 111.4795807 109.6707031  21.6850063 108.6539992 104.6164990  28.7849997
 107.7259992 104.3854990  28.7579997 109.1049992 103.8394990  28.4549997
 108.5878165 104.4797785  28.7366772 101.1969992 108.9454990  24.9179997
 101.7239992 109.7184990  24.7179997 100.3169992 109.1694990  24.6159997
 101.1502121 109.0817344  24.8497460  96.9519992 103.8074990  19.5049997
  97.5679992 104.4344990  19.8849997  96.0899992 104.1234990  19.7769997
  96.9197678 103.9359423  19.5937192 102.6239992 106.6084990  24.4939997
 102.3829992 107.5334990  24.5359997 101.8839992 106.1494990  24.8909997
 102.4909463 106.6730969  24.5534279  97.8069992  56.9944990  89.3979997
  97.0859992  57.4344990  88.9469997  97.4409992  56.7434990  90.2469997
  97.6589785  57.0207691  89.4509849 103.1389992 110.7574990  30.8089997
 103.5019992 111.6114990  30.5759997 103.6709992 110.4654990  31.5499997
 103.2605141 110.8348907  30.8772079 101.3069992 111.6294990  24.0399997
 100.3579992 111.7354990  24.0909997 101.6589992 112.4504990  24.3839997
 101.2245647 111.7550029  24.0934882 106.6829992 106.8564990  30.5099997
 106.2569992 106.6284990  31.3359997 107.2639992 106.1174990  30.3279997
 106.7032088 106.7254393  30.5984454 108.8859992 107.7854990  19.5839997
 109.2389992 107.4054990  20.3879997 107.9369992 107.6914990  19.6709997
 108.8060956 107.7207867  19.7058005 109.3419992 111.4084990  32.9789997
 108.7399992 110.8524990  32.4839997 109.6229992 112.0754990  32.3529997
 109.2975757 111.4225755  32.8265657 113.3889992 112.2644990  19.7849997
 114.1329992 112.8504990  19.6449997 112.6949992 112.8334990  20.1179997
 113.3969809 112.4215830  19.8108572  97.4639992  98.6414990  32.3869997
  96.5709992  98.9794990  32.3189997  97.3649992  97.7854990  32.8049997
  97.3284752  98.5720986  32.4341644 109.7519992 106.4574990  21.8109997
 109.4749992 105.7294990  22.3669997 110.6789992 106.5764990  22.0159997
 109.8394419 106.3739436  21.9148264  97.1149992 110.4454990  30.8219997
  97.3319992 109.5134990  30.7909997  97.3619992 110.7204990  31.7049997
  97.1780948 110.3550976  30.9371268 102.9769992 108.8974990  18.0309997
 103.2159992 108.1484990  17.4839997 102.7079992 108.5094990  18.8639997
 102.9733233 108.7426865  18.0687791 100.2739992  56.5944990  88.4279997
  99.4089992  56.6664990  88.8319997 100.2189992  57.1414990  87.6439997
 100.1482066  56.6782678  88.3773371 101.9139992 108.4674990  20.4869997
 102.0609992 107.9474990  21.2769997 101.9109992 109.3744990  20.7939997
 101.9337102 108.5188964  20.6365907  98.3669992 105.7194990  20.9979997
  97.6809992 106.0724990  21.5649997  98.8899992 106.4824990  20.7509997
  98.3438402 105.8708912  21.0421783 106.1979992  98.3824990  31.2769997
 106.8969992  98.4564990  31.9269997 105.8179992  97.5174990  31.4309997
 106.2422662  98.2757050  31.3867412 106.9829992  98.0344990  22.3739997
 107.2029992  98.5054990  21.5699997 107.5409992  98.4284990  23.0439997
 107.0886044  98.1522946  22.3545207 104.6519992 110.1644990  21.2369997
 103.8349992 110.6614990  21.2889997 105.1809992 110.6404990  20.5959997
 104.6118125 110.2967000  21.1575289 104.1829992  99.7624990  23.2089997
 104.9949992 100.2664990  23.2549997 103.9379992  99.6174990  24.1229997
 104.2611091  99.8119366  23.3388552 104.7189992 100.7484990  32.3929997
 104.8379992 101.3224990  33.1499997 105.3739992 100.0604990  32.5079997
 104.8238684 100.7340205  32.5121656 105.0669992  96.8434990  24.1469997
 104.7199992  97.4604990  24.7909997 105.7249992  97.3444990  23.6649997
 105.1084430  96.9956860  24.1700045 101.9899992 111.2084990  21.2179997
 102.1509992 112.0084990  20.7179997 101.7929992 111.5154990  22.1029997
 101.9853906 111.3593690  21.2692316 100.7239992  97.9064990  20.8339997
 100.6409992  98.7944990  21.1809997 101.6139992  97.6414990  21.0659997
 100.8329331  97.9921177  20.9128067 104.9849992  56.4824990  87.6039997
 104.5279992  57.0114990  86.9499997 105.1469992  57.0854990  88.3289997
 104.9443919  56.6363990  87.6125740 110.9229992  98.6554990  33.2279997
 110.0069992  98.9174990  33.1409997 111.2589992  98.6524990  32.3319997
 110.8428499  98.6910174  33.0948748 109.5249992 102.4054990  27.3239997
 108.7279992 101.9904990  26.9959997 109.9699992 101.7154990  27.8149997
 109.4760367 102.2553372  27.3454897  98.9829992 108.3334990  19.8939997
  99.5749992 109.0334990  20.1709997  99.4419992 107.9004990  19.1749997
  99.1261652 108.3707686  19.8346515  97.2989992 100.9984990  19.0099997
  97.2539992 101.9374990  19.1889997  96.4109992 100.7624990  18.7409997
  97.1728166 101.0951698  18.9981507 110.6119992 111.6614990  28.9459997
 110.4559992 112.3404990  28.2889997 111.5439992 111.7334990  29.1489997
 110.7167328 111.7641586  28.8835529  98.1069992  95.7794990  27.6829997
  97.8779992  95.8384990  26.7559997  97.6639992  94.9884990  27.9899997
  98.0157387  95.6806412  27.5975223  97.0369992 109.7204990  23.8439997
  96.2049992 110.1924990  23.8709997  97.5829992 110.2304990  23.2449997
  96.9968710 109.8540317  23.7667570  96.3259992 112.3324990  35.1739997
  96.8659992 112.1164990  35.9339997  95.8439992 111.5274990  34.9839997
  96.3348485 112.1940463  35.2524870 105.0149992 110.7604990  18.1689997
 104.3709992 110.1294990  18.4909997 105.7769992 110.2294990  17.9379997
 105.0298708 110.6023171  18.1818461 109.6189992 110.5774990  18.4029997
 109.9019992 109.7824990  18.8559997 110.3589992 110.8104990  17.8419997
 109.7577295 110.5002349  18.3891469 107.3119992  55.3604990  88.5489997
 106.4079992  55.5254990  88.2829997 107.7409992  56.2134990  88.4829997
 107.2462017  55.4984184  88.5036495 100.5739992 106.4864990  18.2609997
 100.6379992 105.6924990  18.7909997 101.2269992 106.3684990  17.5709997
 100.6710483 106.3617496  18.2403407 102.8879992 106.1124990  35.5609997
 102.5599992 106.3834990  34.7039997 103.0399992 105.1714990  35.4729997
 102.8636412 106.0224058  35.4317804 105.9259992 107.5334990  17.9969997
 105.6579992 107.7144990  18.8969997 105.7199992 106.6084990  17.8649997
 105.8613443 107.4331873  18.1026643 108.6229992 106.0284990  32.9439997
 109.3679992 106.6174990  32.8249997 107.8649992 106.6104990  33.0069997
 108.6225289 106.1877067  32.9362292 101.7229992 104.4594990  20.5669997
 101.2639992 103.9754990  21.2519997 101.9779992 103.7904990  19.9309997
 101.6945997 104.3028491  20.5748734 101.0119992 102.3524990  32.9229997
 100.3939992 103.0264990  33.2029997 101.3559992 102.6734990  32.0889997
 100.9738078 102.4882298  32.8486609 102.7939992 102.7024990  18.8289997
 102.6139992 102.5474990  17.9019997 103.7439992 102.8104990  18.8739997
 102.8977804 102.6958821  18.7081966 112.1839992 105.0564990  18.2749997
 111.9109992 104.6324990  17.4619997 112.2239992 105.9884990  18.0579997
 112.1520201 105.1243523  18.1343548 101.7639992  98.0764990  31.4979997
 102.2999992  98.5284990  30.8459997 100.9119992  97.9684990  31.0749997
 101.7221795  98.1237444  31.3516211 103.3459992 103.5164990  31.7369997
 104.0969992 103.3604990  31.1639997 103.0069992 104.3684990  31.4619997
 103.4029587 103.6103149  31.6214060 109.9159992  56.9304990  88.8439997
 109.7349992  57.8464990  88.6329997 110.0929992  56.5194990  87.9969997
 109.9151377  57.0003365  88.7007178 102.5699992  95.5334990  31.9289997
 102.4719992  96.4794990  31.8239997 101.8269992  95.1604990  31.4529997
 102.4562123  95.6126811  31.8503204 103.8339992  99.8544990  35.4929997
 103.5979992  99.6354990  36.3939997 103.0509992  99.6474990  34.9829997
 103.6958382  99.7965340  35.5473991 102.7919992  94.8274990  34.5999997
 103.5029992  94.1874990  34.5859997 102.6909992  95.0934990  33.6869997
 102.8756858  94.7758591  34.4745501 102.6919992 113.3924990  19.8299997
 103.6249992 113.5504990  19.9739997 102.4269992 114.0684990  19.2049997
 102.7839846 113.5054567  19.7652930  96.2599992 108.0294990  19.3129997
  97.1739992 108.1084990  19.5859997  96.2669992 107.3424990  18.6469997
  96.3860624 107.9474074  19.2603045  94.9089992 113.4224990  24.3899997
  94.2619992 112.9604990  23.8579997  95.2639992 112.7504990  24.9729997
  94.8683741 113.2684785  24.3959157  95.7789992 111.5024990  26.1949997
  95.4449992 110.6224990  26.3669997  96.0009992 111.8484990  27.0599997
  95.7632565 111.4287410  26.3354263 113.3279992 112.3124990  29.1759997
 113.3059992 112.4974990  30.1139997 114.0179992 112.8804990  28.8349997
 113.4183383 112.4147104  29.2584580 112.8909992 111.8794990  32.0969997
 112.4039992 111.1434990  31.7259997 113.4399992 111.4854990  32.7749997
 112.8986101 111.7256267  32.1379034 112.6429992 105.9254990  22.2499997
 113.4929992 106.3464990  22.3769997 112.6479992 105.1854990  22.8569997
 112.7601143 105.8831106  22.3494732  97.2219992  55.6174990  86.3089997
  97.2029992  55.1914990  87.1659997  98.0259992  55.2984990  85.8999997
  97.3281393  55.5160297  86.3710155 113.0369992 103.9794990  24.0729997
 112.3109992 103.4994990  24.4709997 113.6179992 104.1844990  24.8049997
 113.0162504 103.9415592  24.2264199 112.7959992 106.7644990  29.0209997
 113.6299992 106.3864990  28.7399997 112.9079992 107.7074990  28.9019997
 112.9251917 106.8402954  28.9664844 111.2819992 109.6424990  31.3279997
 110.6349992 109.9674990  31.9529997 110.7649992 109.2014990  30.6539997
 111.1234112 109.6274133  31.3225272 113.3049992 103.8804990  20.4639997
 112.7839992 104.2364990  19.7459997 113.2719992 104.5554990  21.1429997
 113.2290955 104.0205023  20.4572634 111.6539992 101.1194990  19.0149997
 111.7509992 101.7864990  18.3349997 111.5139992 100.3044990  18.5339997
 111.6483407 101.1005670  18.8568312 110.8239992 102.5004990  24.6359997
 110.6739992 101.5554990  24.6159997 110.4699992 102.7814990  25.4799997
 110.7556351 102.4091656  24.7473202  95.8589992 104.5784990  28.6469997
  96.0429992 104.4964990  27.7109997  96.7079992 104.4544990  29.0699997
  95.9990132 104.5505066  28.5761460 111.6799992 104.4704990  34.2749997
 112.2629992 103.7354990  34.4669997 112.2439992 105.2424990  34.3219997
 111.8359781 104.4743156  34.3076146 110.9019992  98.5274990  18.1329997
 111.5119992  98.1564990  18.7699997 110.0649992  98.1064990  18.3289997
 110.8723704  98.4197942  18.2467077 110.5339992 100.0824990  23.0989997
 110.8139992  99.1754990  23.2229997 111.2929992 100.5164990  22.7099997
 110.6749258 100.0170935  23.0633691  99.3629992  54.3274990  84.9639997
  99.1439992  53.4104990  85.1329997 100.1869992  54.4674990  85.4299997
  99.4444637  54.2209586  85.0501414 111.1459992 100.6644990  28.5349997
 112.0789992 100.8764990  28.4999997 110.9109992 100.7654990  29.4569997
 111.2419517 100.7071844  28.6549113 111.1749992 101.4014990  31.3109997
 110.3319992 101.6694990  31.6759997 111.6179992 102.2234990  31.0999997
 111.1194035 101.5493351  31.3324770 111.1479992  97.3454990  23.1469997
 111.3299992  96.8964990  23.9719997 110.5479992  96.7614990  22.6829997
 111.0918187  97.2050563  23.1972721  96.6779992  98.1614990  27.6789997
  97.1229992  97.3694990  27.9809997  97.1439992  98.8774990  28.1089997
  96.8019718  98.1499546  27.7785247  94.9819992 101.1604990  28.7479997
  95.4739992 100.9394990  27.9569997  95.3439992 102.0004990  29.0289997
  95.0982923 101.2438480  28.6777389 113.0139992  97.4134990  19.6749997
 113.4269992  96.6924990  19.1999997 113.6959992  98.0824990  19.7329997
 113.1626060  97.4053741  19.6179233  95.2949992  97.4184990  22.8019997
  94.3699992  97.6264990  22.6729997  95.7489992  97.9024990  22.1119997
  95.2296298  97.5124311  22.6910433 110.0659992 112.4024990  24.7479997
 110.7179992 112.0544990  24.1399997 110.5769992 112.8904990  25.3939997
 110.2242872 112.4208248  24.7520964  95.2589992  96.1564990  31.1459997
  94.5939992  95.9104990  31.7889997  94.8159992  96.7784990  30.5689997
  95.1081168  96.2069225  31.1559830  97.4509992 109.3314990  35.2909997
  96.6299992 109.5064990  34.8299997  97.1989992 109.2584990  36.2109997
  97.3045594 109.3455728  35.3523593 101.8999992  54.7974990  85.8119997
 102.1129992  53.9094990  85.5249997 101.9649992  54.7624990  86.7669997
 101.9379075  54.6713318  85.9017355 100.4049992 110.3054990  31.5489997
  99.9799992 111.1154990  31.2669997 101.3089992 110.3914990  31.2469997
 100.4690706 110.4279557  31.4695836 111.9789992  95.5804990  32.8319997
 111.1659992  95.9054990  32.4449997 112.2119992  94.8194990  32.2989997
 111.8991347  95.5221891  32.7069824 100.2739992 113.1624990  30.6259997
  99.4089992 113.2344990  31.0299997 100.2189992 113.7094990  29.8429997
 100.1482289 113.2463242  30.5753749 104.9849992 113.0504990  29.8019997
 104.5279992 113.5794990  29.1479997 105.1469992 113.6534990  30.5269997
 104.9443919 113.2043990  29.8105740 107.3119992 111.9284990  30.7469997
 106.4079992 112.0934990  30.4809997 107.7409992 112.7814990  30.6809997
 107.2462017 112.0664184  30.7016495 109.9159992 113.4984990  31.0419997
 109.7349992 114.4144990  30.8309997 110.0929992 113.0874990  30.1949997
 109.9151377 113.5683365  30.8987178  97.2219992 112.1854990  28.5069997
  97.2029992 111.7594990  29.3639997  98.0259992 111.8664990  28.0979997
  97.3281393 112.0840297  28.5690155  99.3629992 110.8954990  27.1619997
  99.1439992 109.9784990  27.3319997 100.1869992 111.0354990  27.6279997
  99.4444702 110.7890523  27.2482510 101.8999992 111.3654990  28.0109997
 102.1129992 110.4774990  27.7239997 101.9649992 111.3304990  28.9649997
 101.9379149 111.2393338  28.1007351 105.4089992  97.0294990  27.1549997
 104.7339992  96.3994990  27.4109997 105.9729992  96.5454990  26.5519997
 105.3929363  96.8778886  27.1084810 105.4089992  40.4614990  84.9569997
 104.7339992  39.8314990  85.2119997 105.9729992  39.9774990  84.3539997
 105.3929558  40.3099283  84.9103451 110.5509992  95.1364990  27.2679997
 111.1549992  95.6844990  26.7659997 109.6819992  95.4554990  27.0269997
 110.5160419  95.2545628  27.1667741 112.2779992  96.2754990  25.6009997
 112.8899992  95.7614990  25.0739997 112.6609992  97.1524990  25.6239997
 112.4133867  96.3237613  25.5320888  97.7349992  95.6634990  24.9769997
  96.9579992  95.4284990  24.4699997  98.2659992  94.8664990  24.9859997
  97.7003735  95.5236462  24.9088090  96.5719992  95.4614990  20.7809997
  97.0109992  96.0724990  20.1889997  95.9379992  95.9994990  21.2549997
  96.5463859  95.6179076  20.7640287 102.3149992  95.5894990  24.7899997
 103.1889992  95.9784990  24.7609997 102.1789992  95.3744990  25.7129997
 102.4161953  95.6136654  24.9107599 107.8709992  95.6194990  26.4399997
 107.9479992  95.7154990  25.4899997 107.5959992  94.7124990  26.5679997
 107.8443233  95.5099093  26.3273665 109.2249992  95.6454990  22.1319997
 108.5219992  96.2604990  21.9219997 108.7799992  94.8084990  22.2629997
 109.0686550  95.6164679  22.1209819  96.4729992 111.4094990  21.6779997
  95.7879992 111.3714990  21.0109997  96.4759992 112.3214990  21.9659997
  96.3796806 111.5276669  21.6256961  98.4329992  97.3774990  19.2229997
  98.9239992  96.7474990  18.6959997  99.0559992  97.6734990  19.8859997
  98.5845304  97.3312387  19.2404922 103.4589992  97.6704990  21.6799997
 103.6369992  97.0234990  22.3629997 103.4049992  98.5044990  22.1469997
 103.4760678  97.6946615  21.8366283 110.5509992  38.5684990  85.0689997
 111.1549992  39.1164990  84.5679997 109.6819992  38.8874990  84.8289997
 110.5161126  38.6867070  84.9679180 105.3369992 112.6184990  20.0759997
 106.2029992 112.9854990  19.8979997 105.0899992 112.1794990  19.2619997
 105.4221853 112.6094021  19.9415813 112.0459992 112.1814990  22.7549997
 111.8519992 111.4334990  22.1899997 112.0069992 112.9394990  22.1719997
 112.0141645 112.1815797  22.5988131  97.6929992  96.1774990  34.4949997
  97.3269992  95.4114990  34.9369997  98.6059992  96.2064990  34.7809997
  97.7663172  96.0765335  34.5941872  98.2909992 112.3294990  18.7029997
  98.0229992 112.6154990  19.5769997  99.0619992 111.7834990  18.8559997
  98.3585926 112.2947790  18.8431188 125.6699992 104.8194990  24.9359997
 125.7589992 105.7634990  24.8029997 125.0309992 104.5444990  24.2779997
 125.5958378 104.9113846  24.8289258 124.6029992 104.0744990  28.3549997
 124.5639992 103.4284990  29.0599997 124.2799992 103.6074990  27.5829997
 124.5540469 103.9230005  28.3472803 116.9709992 103.6884990  29.9479997
 117.0119992 103.0634990  30.6709997 117.6739992 104.3124990  30.1299997
 117.0716223 103.6872318  30.0716164 128.3089992 107.0134990  26.6559997
 127.8679992 106.2934990  27.1069997 128.2959992 107.7344990  27.2859997
 128.2469215 107.0124303  26.8028088 117.8949992 108.1384990  28.4829997
 117.5249992 107.3364990  28.1129997 118.8359992 107.9704990  28.5289997
 117.9715984 108.0059649  28.4385586 114.5049992 101.7984990  23.8749997
 114.0569992 102.6444990  23.8569997 113.9439992 101.2194990  23.3599997
 114.3678546 101.8359004  23.8028874 112.2779992  39.7074990  83.4029997
 112.8899992  39.1934990  82.8759997 112.6609992  40.5844990  83.4259997
 112.4133867  39.7557613  83.3340888 115.2149992 103.9604990  26.0009997
 115.4289992 103.1904990  26.5279997 115.9529992 104.0504990  25.3979997
 115.3440073 103.8673546  25.9915786 125.4199992 112.1174990  26.8679997
 126.0399992 111.4414990  26.5949997 125.2119992 111.8994990  27.7769997
 125.4767679 111.9955032  26.9534518 122.9919992 106.5064990  28.7609997
 123.2959992 105.8204990  28.1659997 123.7139992 106.6254990  29.3789997
 123.1311240 106.4287325  28.7630941 131.6549992  98.1084990  29.6209997
 131.7039992  98.7184990  30.3569997 132.0809992  98.5694990  28.8979997
 131.7192851  98.2543266  29.6240532 126.1329992 100.9004990  29.0879997
 126.2749992  99.9544990  29.1079997 126.0269992 101.1074990  28.1599997
 126.1381051 100.7989706  28.9652249 119.2879992  99.0024990  26.3609997
 119.3309992  99.8624990  25.9419997 118.8299992  98.4494990  25.7269997
 119.2320163  99.0454174  26.2180604 127.0099992  99.1334990  24.7609997
 127.6559992  98.8044990  25.3859997 127.5199992  99.6504990  24.1389997
 127.1674289  99.1584333  24.7623681 115.9079992 101.3994990  27.1229997
 116.5619992 100.8494990  27.5549997 115.9319992 101.1254990  26.2059997
 116.0007199 101.2872178  27.0581650 121.0639992 102.9494990  26.3379997
 121.6799992 102.4224990  26.8469997 120.4779992 102.3094990  25.9339997
 121.0690652 102.7908919  26.3530277 132.0469992  99.5864990  31.8569997
 131.3579992 100.2444990  31.7619997 132.0619992  99.3884990  32.7939997
 131.9547756  99.6497614  31.9705795  97.7349992  39.0954990  82.7789997
  96.9579992  38.8604990  82.2709997  98.2659992  38.2984990  82.7879997
  97.7004443  38.9556721  82.7107200 118.0979992  97.9204990  30.4349997
 117.8789992  98.4504990  29.6679997 117.4299992  98.1464990  31.0819997
 117.9776975  98.0235979  30.4175123 125.4669992 107.4204990  23.9789997
 125.1709992 107.0974990  23.1269997 125.1429992 108.3204990  24.0199997
 125.3827458 107.4979678  23.8680598 120.6669992 105.5954990  30.7219997
 119.9269992 106.1944990  30.8259997 121.3809992 106.1494990  30.4059997
 120.6623146 105.7522611  30.6935150 128.7739992  98.4244990  26.7419997
 128.5589992  97.6584990  27.2749997 129.4299992  98.8964990  27.2549997
 128.8332673  98.3835739  26.8841972 117.6919992  99.8124990  28.3869997
 118.3049992 100.4454990  28.7599997 118.2039992  99.3404990  27.7309997
 117.8451933  99.8353380  28.3493477 119.0739992 107.5604990  31.5089997
 119.0689992 108.4394990  31.1309997 118.2209992 107.4764990  31.9339997
 118.9579199 107.6695901  31.5146942 115.1959992 107.2314990  22.2909997
 114.9239992 107.4604990  21.4019997 115.2409992 108.0684990  22.7519997
 115.1648360 107.3761034  22.2316186 128.8209992 108.8524990  29.0039997
 127.8789992 108.9114990  29.1659997 129.0969992 109.7584990  28.8669997
 128.7295865 108.9830299  29.0076174 129.1209992  97.1394990  30.4209997
 128.3849992  97.7494990  30.3839997 129.8049992  97.5544990  29.8949997
 129.1125367  97.2792562  30.3448156 122.1239992  95.2254990  27.8869997
 122.0069992  94.2774990  27.8329997 121.2689992  95.5584990  28.1599997
 121.9923691  95.1405842  27.9165072  96.5719992  38.8934990  78.5819997
  97.0109992  39.5044990  77.9909997  95.9379992  39.4314990  79.0559997
  96.5464103  39.0499233  78.5651376 127.0729992 110.6334990  25.6289997
 127.4979992 109.9264990  25.1439997 127.3899992 111.4354990  25.2119997
 127.1740266 110.6450201  25.5062461 128.2319992 108.5344990  24.1379997
 127.9749992 107.8444990  23.5259997 128.3029992 108.0914990  24.9829997
 128.2064322 108.3801568  24.1685372 129.9179992 107.1014990  32.6149997
 130.0579992 106.5094990  31.8759997 130.0859992 107.9744990  32.2589997
 129.9598734 107.1384041  32.4656937 124.3909992 104.0634990  22.3879997
 123.6789992 104.5984990  22.0359997 125.0819992 104.1184990  21.7279997
 124.3869704 104.1441663  22.2505797 124.4449992 102.5204990  19.4259997
 125.1459992 102.5434990  20.0779997 124.7469992 101.8924990  18.7699997
 124.5818202 102.4387223  19.4265591 131.7599992 103.4414990  30.6809997
 131.1079992 104.1354990  30.7699997 132.2249992 103.6514990  29.8709997
 131.7335357 103.5649544  30.5837056 127.7969992 104.2724990  23.3389997
 127.0649992 104.5014990  23.9119997 128.2439992 103.5594990  23.7939997
 127.7572753 104.2073984  23.4789698 127.6939992 102.4474990  32.4069997
 127.7739992 103.2104990  32.9789997 127.0929992 102.7264990  31.7169997
 127.6236547 102.5897468  32.3920029 119.4419992 104.9034990  25.2219997
 119.1119992 104.5324990  24.4039997 120.0299992 104.2324990  25.5689997
 119.4763182 104.7620648  25.1569898 120.8089992 108.3314990  27.9029997
 120.7139992 107.7524990  27.1469997 121.5379992 107.9604990  28.3989997
 120.8946011 108.2020572  27.8666011 102.3149992  39.0214990  82.5919997
 103.1889992  39.4104990  82.5619997 102.1789992  38.8064990  83.5149997
 102.4163125  39.0457120  82.7126523 119.8089992 103.6714990  28.8549997
 120.3739992 103.7934990  28.0929997 120.1269992 104.3094990  29.4939997
 119.9293619 103.7744388  28.8370019 126.1179992 109.1754990  29.5889997
 125.8769992 109.8374990  30.2369997 125.9199992 108.3404990  30.0139997
 126.0582662 109.1532704  29.7351008 126.6679992 103.4354990  21.0249997
 127.2469992 103.5854990  21.7709997 127.0819992 103.9054990  20.3009997
 126.8033358 103.5195966  21.0293935 117.6089992 104.2694990  32.8009997
 117.6789992 104.9204990  33.4999997 116.7179992 104.3724990  32.4659997
 117.4981690 104.3724261  32.8513026 124.3939992 110.1714990  24.4599997
 124.8679992 110.4674990  25.2369997 123.8309992 110.9104990  24.2269997
 124.3827890 110.3118047  24.5348084 130.3659992  95.1854990  20.8369997
 129.4659992  95.3234990  21.1329997 130.6179992  96.0164990  20.4359997
 130.2767727  95.3168705  20.8232935 118.4319992 103.9724990  22.8109997
 118.1399992 104.7404990  22.3199997 117.7579992 103.3134990  22.6479997
 118.3008843 103.9884537  22.7217695 131.5559992 109.5514990  19.2139997
 131.6289992 110.4904990  19.3839997 132.4609992 109.2464990  19.1579997
 131.6884170 109.6388294  19.2297045 114.5249992 106.3354990  31.6259997
 114.0239992 106.3074990  30.8109997 114.5309992 105.4304990  31.9359997
 114.4571690 106.2092234  31.5562770 114.2759992 109.1164990  28.5099997
 115.2219992 108.9714990  28.4909997 114.1629992 109.9004990  29.0469997
 114.3903578 109.2026708  28.5800300 107.8709992  39.0514990  84.2409997
 107.9479992  39.1474990  83.2919997 107.5959992  38.1444990  84.3699997
 107.8443407  38.9419188  84.1283532 123.8659992 113.1284990  22.8749997
 123.7909992 113.0074990  21.9279997 123.8989992 114.0774990  22.9929997
 123.8602083 113.2402639  22.7614973 117.5199992 111.9174990  24.6559997
 117.6719992 111.5694990  25.5339997 116.6689992 111.5604990  24.3999997
 117.4258344 111.8215891  24.7416851 126.9679992 112.2824990  19.8769997
 127.3429992 111.5384990  19.4059997 126.9719992 112.0124990  20.7949997
 127.0198969 112.1440920  19.9366475 126.6369992 112.2084990  22.6259997
 125.7019992 112.3084990  22.8049997 126.9169992 111.4984990  23.2049997
 126.5469471 112.1262944  22.7286678 129.6249992 101.2754990  34.6729997
 129.2179992 101.7554990  33.9519997 129.6659992 100.3694990  34.3649997
 129.5748403 101.2187989  34.5327253 116.7739992 107.6594990  32.6689997
 116.9899992 107.2974990  33.5289997 115.9189992 107.2844990  32.4599997
 116.6879082 107.5593377  32.7582396 119.3929992  96.1294990  28.6649997
 118.5309992  96.0424990  28.2569997 119.3709992  96.9854990  29.0929997
 119.2720557  96.2333078  28.6670202 127.3819992  99.6064990  32.8929997
 126.8679992  99.4814990  33.6909997 127.2269992 100.5194990  32.6489997
 127.2907802  99.7127433  32.9691504 128.1449992 104.4674990  18.6539997
 128.1869992 104.2454990  17.7239997 128.9939992 104.8664990  18.8439997
 128.2655253 104.4910510  18.5523804 123.7179992  98.3434990  19.3249997
 123.4639992  98.3624990  20.2469997 123.4609992  97.4724990  19.0229997
 123.6484508  98.2283292  19.4104786 109.2249992  39.0774990  79.9339997
 108.5219992  39.6924990  79.7239997 108.7799992  38.2404990  80.0649997
 109.0686550  39.0484679  79.9229819 119.4839992 101.0944990  29.7599997
 118.8419992 101.0544990  30.4689997 119.5209992 102.0214990  29.5219997
 119.4011659 101.2142540  29.8248463 119.4809992 101.3154990  24.6719997
 118.5879992 100.9754990  24.6129997 119.9319992 100.9384990  23.9159997
 119.4197185 101.2180220  24.5617698 125.0169992 101.7314990  23.4889997
 124.6079992 102.5464990  23.1969997 125.7369992 101.5914990  22.8749997
 125.0584439 101.8240383  23.3660098 126.0209992 101.1774990  26.3029997
 125.8259992 101.7834990  25.5879997 126.2029992 100.3444990  25.8689997
 126.0189195 101.1477936  26.1464079 117.2339992 101.4154990  31.6269997
 117.1959992 101.8154990  32.4959997 116.7429992 100.5984990  31.7169997
 117.1624374 101.3598228  31.7580980 120.5999992  98.7894990  18.4259997
 120.1689992  98.3444990  19.1549997 119.8819992  99.1604990  17.9129997
 120.4439176  98.7787063  18.4564913 113.8419992  98.5314990  25.4779997
 114.4729992  98.5024990  26.1969997 114.2919992  98.1064990  24.7469997
 113.9891082  98.4701269  25.4776307 115.1159992  99.2774990  20.9019997
 115.5909992  99.8684990  20.3169997 114.3989992  99.8074990  21.2489997
 115.0840406  99.4301011  20.8688495 125.2849992 102.8154990  30.9739997
 125.6089992 102.1844990  30.3309997 124.8449992 102.2814990  31.6349997
 125.2698707 102.6568261  30.9753195 122.0629992  98.7434990  25.7579997
 121.1519992  98.8004990  26.0469997 122.5679992  98.6834990  26.5689997
 122.0066873  98.7431838  25.9071190 103.4589992  41.1024990  79.4819997
 103.6369992  40.4554990  80.1649997 103.4049992  41.9364990  79.9489997
 103.4760678  41.1266615  79.6386283 116.8909992 100.3724990  24.5849997
 116.0019992 100.4714990  24.2449997 117.1869992  99.5304990  24.2389997
 116.8094001 100.2722473  24.4917318 120.5439992 100.3724990  22.2419997
 121.4759992 100.5014990  22.4199997 120.3289992 101.0414990  21.5919997
 120.6424472 100.4805817  22.1784873 126.4679992  97.9784990  29.0219997
 125.7909992  98.1094990  29.6859997 125.9819992  97.8234990  28.2119997
 126.3097265  97.9754665  29.0033380 119.2179992 101.5664990  19.8079997
 118.6759992 101.1874990  19.1169997 120.0519992 101.7614990  19.3799997
 119.2564390 101.5409091  19.6554374 123.3829992 101.5304990  27.6449997
 123.9469992 100.9844990  27.0979997 123.2349992 101.0094990  28.4339997
 123.4403037 101.3851798  27.6767212 118.3849992  97.6674990  24.0639997
 118.0669992  96.7644990  24.0279997 119.1659992  97.6694990  23.5109997
 118.4471079  97.5442240  23.9842908 122.0089992  99.9194990  30.0589997
 121.1739992 100.3734990  30.1699997 122.5329992 100.1954990  30.8109997
 121.9656072 100.0188960  30.1758118 122.5529992 106.1324990  21.7439997
 121.8079992 105.6244990  21.4219997 122.4189992 106.1814990  22.6899997
 122.4329334 106.0696144  21.8278892 129.7029992 105.2654990  30.5309997
 130.3449992 105.7214990  29.9869997 128.8729992 105.3784990  30.0679997
 129.6786536 105.3431813  30.3939579 126.4509992  98.9464990  19.9429997
 125.5119992  99.0574990  19.7919997 126.7479992  99.8024990  20.2499997
 126.3626136  99.0774977  19.9638568 105.3369992  56.0504990  77.8769997
 106.2029992  56.4174990  77.6989997 105.0899992  55.6114990  77.0639997
 105.4222041  56.0413648  77.7425958 124.0729992 106.3164990  32.9809997
 123.7269992 105.9344990  33.7879997 123.8729992 107.2494990  33.0519997
 123.9985987 106.3904013  33.1010443 127.1689992 100.8134990  21.6039997
 128.0609992 100.6754990  21.9229997 127.2259992 101.6044990  21.0669997
 127.2987380 100.9014777  21.5750981 117.6779992 105.4274990  27.5139997
 118.4229992 105.4244990  26.9119997 117.7559992 104.6034990  27.9949997
 117.7903365 105.3157395  27.4967412 124.6789992 107.5904990  20.7689997
 124.3839992 108.4174990  21.1509997 123.9759992 106.9714990  20.9659997
 124.5436379 107.6199182  20.8478636 114.6859992 103.8874990  32.8289997
 114.9089992 103.4694990  33.6599997 114.0839992 103.2754990  32.4059997
 114.6351513 103.7474617  32.8856722 126.3229992 108.7784990  32.9309997
 125.4219992 108.9614990  32.6639997 126.3569992 109.0374990  33.8519997
 126.2043861 108.8385245  33.0189517 132.0539992 101.0224990  21.2989997
 131.4999992 100.6264990  20.6259997 132.1549992 101.9334990  21.0209997
 131.9918589 101.0913904  21.1693839 130.3489992 109.8084990  21.7639997
 129.9769992 108.9834990  22.0729997 130.6269992 109.6254990  20.8659997
 130.3355807 109.6707031  21.6850063 127.5099992 104.6164990  28.7849997
 126.5819992 104.3854990  28.7579997 127.9609992 103.8394990  28.4549997
 127.4438165 104.4797785  28.7366772 120.0529992 108.9454990  24.9179997
 120.5799992 109.7184990  24.7179997 119.1729992 109.1694990  24.6159997
 120.0062121 109.0817344  24.8497460 112.0459992  55.6134990  80.5569997
 111.8519992  54.8654990  79.9919997 112.0069992  56.3714990  79.9729997
 112.0141907  55.6135770  80.4008077 115.8079992 103.8074990  19.5049997
 116.4239992 104.4344990  19.8849997 114.9459992 104.1234990  19.7769997
 115.7757678 103.9359423  19.5937192 121.4799992 106.6084990  24.4939997
 121.2389992 107.5334990  24.5359997 120.7399992 106.1494990  24.8909997
 121.3469463 106.6730969  24.5534279 121.9949992 110.7574990  30.8089997
 122.3579992 111.6114990  30.5759997 122.5269992 110.4654990  31.5499997
 122.1165141 110.8348907  30.8772079 120.1629992 111.6294990  24.0399997
 119.2139992 111.7354990  24.0909997 120.5149992 112.4504990  24.3839997
 120.0805647 111.7550029  24.0934882 125.5389992 106.8564990  30.5099997
 125.1129992 106.6284990  31.3359997 126.1199992 106.1174990  30.3279997
 125.5592088 106.7254393  30.5984454 127.7419992 107.7854990  19.5839997
 128.0949992 107.4054990  20.3879997 126.7929992 107.6914990  19.6709997
 127.6620956 107.7207867  19.7058005 128.1979992 111.4084990  32.9789997
 127.5959992 110.8524990  32.4839997 128.4789992 112.0754990  32.3529997
 128.1535757 111.4225755  32.8265657 132.2449992 112.2644990  19.7849997
 132.9889992 112.8504990  19.6449997 131.5509992 112.8334990  20.1179997
 132.2529809 112.4215830  19.8108572 128.6079992 106.4574990  21.8109997
 128.3309992 105.7294990  22.3669997 129.5349992 106.5764990  22.0159997
 128.6954419 106.3739436  21.9148264 115.9709992 110.4454990  30.8219997
 116.1879992 109.5134990  30.7909997 116.2179992 110.7204990  31.7049997
 116.0340948 110.3550976  30.9371268  97.6929992  39.6094990  92.2959997
  97.3269992  38.8434990  92.7389997  98.6059992  39.6384990  92.5829997
  97.7663225  39.5086917  92.3953441 121.8329992 108.8974990  18.0309997
 122.0719992 108.1484990  17.4839997 121.5639992 108.5094990  18.8639997
 121.8293233 108.7426865  18.0687791 120.7699992 108.4674990  20.4869997
 120.9169992 107.9474990  21.2769997 120.7669992 109.3744990  20.7939997
 120.7897102 108.5188964  20.6365907 117.2229992 105.7194990  20.9979997
 116.5369992 106.0724990  21.5649997 117.7459992 106.4824990  20.7509997
 117.1998402 105.8708912  21.0421783 125.0539992  98.3824990  31.2769997
 125.7529992  98.4564990  31.9269997 124.6739992  97.5174990  31.4309997
 125.0982662  98.2757050  31.3867412 125.8389992  98.0344990  22.3739997
 126.0589992  98.5054990  21.5699997 126.3969992  98.4284990  23.0439997
 125.9446044  98.1522946  22.3545207 123.5079992 110.1644990  21.2369997
 122.6909992 110.6614990  21.2889997 124.0369992 110.6404990  20.5959997
 123.4678125 110.2967000  21.1575289 123.0389992  99.7624990  23.2089997
 123.8509992 100.2664990  23.2549997 122.7939992  99.6174990  24.1229997
 123.1171091  99.8119366  23.3388552 123.5749992 100.7484990  32.3929997
 123.6939992 101.3224990  33.1499997 124.2299992 100.0604990  32.5079997
 123.6798684 100.7340205  32.5121656 123.9229992  96.8434990  24.1469997
 123.5759992  97.4604990  24.7909997 124.5809992  97.3444990  23.6649997
 123.9644430  96.9956860  24.1700046 120.8459992 111.2084990  21.2179997
 121.0069992 112.0084990  20.7179997 120.6489992 111.5154990  22.1029997
 120.8413906 111.3593690  21.2692316  99.6659992  38.9594990  93.8319997
 100.5649992  38.6854990  93.6469997  99.2799992  38.2174990  94.2959997
  99.7367237  38.8216520  93.8694693 119.5799992  97.9064990  20.8339997
 119.4969992  98.7944990  21.1809997 120.4699992  97.6414990  21.0659997
 119.6889331  97.9921177  20.9128067 129.7789992  98.6554990  33.2279997
 128.8629992  98.9174990  33.1409997 130.1149992  98.6524990  32.3319997
 129.6988499  98.6910174  33.0948748 128.3809992 102.4054990  27.3239997
 127.5839992 101.9904990  26.9959997 128.8259992 101.7154990  27.8149997
 128.3320367 102.2553372  27.3454897 117.8389992 108.3334990  19.8939997
 118.4309992 109.0334990  20.1709997 118.2979992 107.9004990  19.1749997
 117.9821652 108.3707686  19.8346515 116.1549992 100.9984990  19.0099997
 116.1099992 101.9374990  19.1889997 115.2669992 100.7624990  18.7409997
 116.0288166 101.0951698  18.9981507 129.4679992 111.6614990  28.9459997
 129.3119992 112.3404990  28.2889997 130.3999992 111.7334990  29.1489997
 129.5727328 111.7641586  28.8835529 116.9629992  95.7794990  27.6829997
 116.7339992  95.8384990  26.7559997 116.5199992  94.9884990  27.9899997
 116.8717387  95.6806412  27.5975223 115.8929992 109.7204990  23.8439997
 115.0609992 110.1924990  23.8709997 116.4389992 110.2304990  23.2449997
 115.8528710 109.8540317  23.7667570 123.8709992 110.7604990  18.1689997
 123.2269992 110.1294990  18.4909997 124.6329992 110.2294990  17.9379997
 123.8858708 110.6023171  18.1818462 128.4749992 110.5774990  18.4029997
 128.7579992 109.7824990  18.8559997 129.2149992 110.8104990  17.8419997
 128.6137295 110.5002349  18.3891469 108.0869992  38.2924990  94.0139997
 108.1639992  37.8664990  94.8679997 108.9809992  38.3054990  93.6719997
 108.2183315  38.2360320  94.0845052 119.4299992 106.4864990  18.2609997
 119.4939992 105.6924990  18.7909997 120.0829992 106.3684990  17.5709997
 119.5270483 106.3617496  18.2403407 121.7439992 106.1124990  35.5609997
 121.4159992 106.3834990  34.7039997 121.8959992 105.1714990  35.4729997
 121.7196412 106.0224058  35.4317804 124.7819992 107.5334990  17.9969997
 124.5139992 107.7144990  18.8969997 124.5759992 106.6084990  17.8649997
 124.7173443 107.4331873  18.1026643 127.4789992 106.0284990  32.9439997
 128.2239992 106.6174990  32.8249997 126.7209992 106.6104990  33.0069997
 127.4785289 106.1877067  32.9362292 120.5789992 104.4594990  20.5669997
 120.1199992 103.9754990  21.2519997 120.8339992 103.7904990  19.9309997
 120.5505997 104.3028491  20.5748734 119.8679992 102.3524990  32.9229997
 119.2499992 103.0264990  33.2029997 120.2119992 102.6734990  32.0889997
 119.8298078 102.4882298  32.8486609 121.6499992 102.7024990  18.8289997
 121.4699992 102.5474990  17.9019997 122.5999992 102.8104990  18.8739997
 121.7537804 102.6958821  18.7081966 131.0399992 105.0564990  18.2749997
 130.7669992 104.6324990  17.4619997 131.0799992 105.9884990  18.0579997
 131.0080201 105.1243523  18.1343548 120.2079992  99.7074990  34.0049997
 120.3579992  98.9784990  33.4029997 120.2099992 100.4844990  33.4459997
 120.2287967  99.7127720  33.8470523 120.6199992  98.0764990  31.4979997
 121.1559992  98.5284990  30.8459997 119.7679992  97.9684990  31.0749997
 120.5781795  98.1237444  31.3516211 111.2639992  54.3644990  92.7069997
 110.4819992  54.1784990  92.1869997 111.1919992  55.2944990  92.9239997
 111.1472975  54.4646973  92.6651822 122.2019992 103.5164990  31.7369997
 122.9529992 103.3604990  31.1639997 121.8629992 104.3684990  31.4619997
 122.2589587 103.6103149  31.6214060 121.5479992 113.3924990  19.8299997
 122.4809992 113.5504990  19.9739997 121.2829992 114.0684990  19.2049997
 121.6399846 113.5054567  19.7652930 115.1159992 108.0294990  19.3129997
 116.0299992 108.1084990  19.5859997 115.1229992 107.3424990  18.6469997
 115.2420624 107.9474074  19.2603045 113.7649992 113.4224990  24.3899997
 113.1179992 112.9604990  23.8579997 114.1199992 112.7504990  24.9729997
 113.7243741 113.2684785  24.3959157 114.6349992 111.5024990  26.1949997
 114.3009992 110.6224990  26.3669997 114.8569992 111.8484990  27.0599997
 114.6192565 111.4287410  26.3354263 132.1839992 112.3124990  29.1759997
 132.1619992 112.4974990  30.1139997 132.8739992 112.8804990  28.8349997
 132.2743383 112.4147104  29.2584580 131.7469992 111.8794990  32.0969997
 131.2599992 111.1434990  31.7259997 132.2959992 111.4854990  32.7749997
 131.7546101 111.7256267  32.1379034 131.4989992 105.9254990  22.2499997
 132.3489992 106.3464990  22.3769997 131.5039992 105.1854990  22.8569997
 131.6161143 105.8831106  22.3494732 131.8929992 103.9794990  24.0729997
 131.1669992 103.4994990  24.4709997 132.4739992 104.1844990  24.8049997
 131.8722504 103.9415592  24.2264199 131.6519992 106.7644990  29.0209997
 132.4859992 106.3864990  28.7399997 131.7639992 107.7074990  28.9019997
 131.7811917 106.8402954  28.9664844 125.6699992  48.2514990  82.7369997
 125.7589992  49.1954990  82.6049997 125.0309992  47.9764990  82.0789997
 125.5958319  48.3434984  82.6300276 130.1379992 109.6424990  31.3279997
 129.4909992 109.9674990  31.9529997 129.6209992 109.2014990  30.6539997
 129.9794112 109.6274133  31.3225272 132.1609992 103.8804990  20.4639997
 131.6399992 104.2364990  19.7459997 132.1279992 104.5554990  21.1429997
 132.0850955 104.0205023  20.4572634 130.5099992 101.1194990  19.0149997
 130.6069992 101.7864990  18.3349997 130.3699992 100.3044990  18.5339997
 130.5043407 101.1005670  18.8568312 129.6799992 102.5004990  24.6359997
 129.5299992 101.5554990  24.6159997 129.3259992 102.7814990  25.4799997
 129.6116351 102.4091656  24.7473202 114.7149992 104.5784990  28.6469997
 114.8989992 104.4964990  27.7109997 115.5639992 104.4544990  29.0699997
 114.8550132 104.5505066  28.5761460 130.5359992 104.4704990  34.2749997
 131.1189992 103.7354990  34.4669997 131.0999992 105.2424990  34.3219997
 130.6919781 104.4743156  34.3076146 132.0329992 102.3734990  34.9599997
 131.1689992 101.9944990  34.7939997 132.6369992 101.6344990  34.8849997
 131.9965394 102.2218378  34.9271778 129.7579992  98.5274990  18.1329997
 130.3679992  98.1564990  18.7699997 128.9209992  98.1064990  18.3289997
 129.7283704  98.4197942  18.2467077 129.3899992 100.0824990  23.0989997
 129.6699992  99.1754990  23.2229997 130.1489992 100.5164990  22.7099997
 129.5309258 100.0170935  23.0633691 130.0019992 100.6644990  28.5349997
 130.9349992 100.8764990  28.4999997 129.7669992 100.7654990  29.4569997
 130.0979517 100.7071844  28.6549113 124.6029992  47.5064990  86.1559997
 124.5639992  46.8604990  86.8609997 124.2799992  47.0394990  85.3849997
 124.5540199  47.3550089  86.1482865 130.0309992 101.4014990  31.3109997
 129.1879992 101.6694990  31.6759997 130.4739992 102.2234990  31.0999997
 129.9754035 101.5493351  31.3324770 130.0039992  97.3454990  23.1469997
 130.1859992  96.8964990  23.9719997 129.4039992  96.7614990  22.6829997
 129.9478187  97.2050563  23.1972721 115.5339992  98.1614990  27.6789997
 115.9789992  97.3694990  27.9809997 115.9999992  98.8774990  28.1089997
 115.6579718  98.1499546  27.7785247 113.8379992 101.1604990  28.7479997
 114.3299992 100.9394990  27.9569997 114.1999992 102.0004990  29.0289997
 113.9542923 101.2438480  28.6777389 131.8699992  97.4134990  19.6749997
 132.2829992  96.6924990  19.1999997 132.5519992  98.0824990  19.7329997
 132.0186060  97.4053741  19.6179233 114.1509992  97.4184990  22.8019997
 113.2259992  97.6264990  22.6729997 114.6049992  97.9024990  22.1119997
 114.0856298  97.5124311  22.6910433 128.9219992 112.4024990  24.7479997
 129.5739992 112.0544990  24.1399997 129.4329992 112.8904990  25.3939997
 129.0802872 112.4208248  24.7520964 114.1149992  96.1564990  31.1459997
 113.4499992  95.9104990  31.7889997 113.6719992  96.7784990  30.5689997
 113.9641168  96.2069225  31.1559830 119.2609992 110.3054990  31.5489997
 118.8359992 111.1154990  31.2669997 120.1649992 110.3914990  31.2469997
 119.3250706 110.4279557  31.4695836 125.9169992 112.9904990  33.7529997
 126.5939992 112.3574990  33.5129997 126.2389992 113.3914990  34.5599997
 126.0531618 112.9581147  33.8292802 116.9709992  47.1204990  87.7489997
 117.0119992  46.4954990  88.4729997 117.6739992  47.7444990  87.9309997
 117.0716054  47.1193262  87.8726311 116.6629992 113.5624990  31.5969997
 115.9419992 114.0024990  31.1459997 116.2969992 113.3114990  32.4449997
 116.5149632 113.5887235  31.6499649 119.1299992 113.1624990  30.6259997
 118.2649992 113.2344990  31.0299997 119.0749992 113.7094990  29.8429997
 119.0042289 113.2463242  30.5753749 123.8409992 113.0504990  29.8019997
 123.3839992 113.5794990  29.1479997 124.0029992 113.6534990  30.5269997
 123.8003919 113.2043990  29.8105740 126.1679992 111.9284990  30.7469997
 125.2639992 112.0934990  30.4809997 126.5969992 112.7814990  30.6809997
 126.1022017 112.0664184  30.7016495 128.7719992 113.4984990  31.0419997
 128.5909992 114.4144990  30.8309997 128.9489992 113.0874990  30.1949997
 128.7711377 113.5683365  30.8987178 116.0779992 112.1854990  28.5069997
 116.0589992 111.7594990  29.3639997 116.8819992 111.8664990  28.0979997
 116.1841393 112.0840297  28.5690155 118.2189992 110.8954990  27.1619997
 117.9999992 109.9784990  27.3319997 119.0429992 111.0354990  27.6279997
 118.3004702 110.7890523  27.2482510 120.7559992 111.3654990  28.0109997
 120.9689992 110.4774990  27.7239997 120.8209992 111.3304990  28.9649997
 120.7939149 111.2393338  28.1007351 124.2649992  97.0294990  27.1549997
 123.5899992  96.3994990  27.4109997 124.8289992  96.5454990  26.5519997
 124.2489363  96.8778886  27.1084810 129.4069992  95.1364990  27.2679997
 130.0109992  95.6844990  26.7659997 128.5379992  95.4554990  27.0269997
 129.3720419  95.2545628  27.1667741 128.3089992  50.4454990  84.4579997
 127.8679992  49.7254990  84.9079997 128.2959992  51.1664990  85.0879997
 128.2468398  50.4443187  84.6047734 131.1339992  96.2754990  25.6009997
 131.7459992  95.7614990  25.0739997 131.5169992  97.1524990  25.6239997
 131.2693867  96.3237613  25.5320888 116.5909992  95.6634990  24.9769997
 115.8139992  95.4284990  24.4699997 117.1219992  94.8664990  24.9859997
 116.5563735  95.5236462  24.9088090 115.4279992  95.4614990  20.7809997
 115.8669992  96.0724990  20.1889997 114.7939992  95.9994990  21.2549997
 115.4023859  95.6179076  20.7640287 121.1709992  95.5894990  24.7899997
 122.0449992  95.9784990  24.7609997 121.0349992  95.3744990  25.7129997
 121.2721953  95.6136654  24.9107599 126.7269992  95.6194990  26.4399997
 126.8039992  95.7154990  25.4899997 126.4519992  94.7124990  26.5679997
 126.7003233  95.5099093  26.3273665 128.0809992  95.6454990  22.1319997
 127.3779992  96.2604990  21.9219997 127.6359992  94.8084990  22.2629997
 127.9246550  95.6164679  22.1209819 115.3289992 111.4094990  21.6779997
 114.6439992 111.3714990  21.0109997 115.3319992 112.3214990  21.9659997
 115.2356806 111.5276669  21.6256961 117.2889992  97.3774990  19.2229997
 117.7799992  96.7474990  18.6959997 117.9119992  97.6734990  19.8859997
 117.4405304  97.3312387  19.2404922 122.3149992  97.6704990  21.6799997
 122.4929992  97.0234990  22.3629997 122.2609992  98.5044990  22.1469997
 122.3320678  97.6946615  21.8366283 124.1929992 112.6184990  20.0759997
 125.0589992 112.9854990  19.8979997 123.9459992 112.1794990  19.2619997
 124.2781853 112.6094021  19.9415813 117.8949992  51.5704990  86.2839997
 117.5249992  50.7684990  85.9149997 118.8359992  51.4024990  86.3309997
 117.9715630  51.4378680  86.2397873 130.9019992 112.1814990  22.7549997
 130.7079992 111.4334990  22.1899997 130.8629992 112.9394990  22.1719997
 130.8701645 112.1815797  22.5988131 117.1469992 112.3294990  18.7029997
 116.8789992 112.6154990  19.5769997 117.9179992 111.7834990  18.8559997
 117.2145926 112.2947790  18.8431188 135.8269992 103.6884990  29.9479997
 135.8679992 103.0634990  30.6709997 136.5299992 104.3124990  30.1299997
 135.9276223 103.6872318  30.0716164 136.7509992 108.1384990  28.4829997
 136.3809992 107.3364990  28.1129997 137.6919992 107.9704990  28.5289997
 136.8275984 108.0059649  28.4385586 133.3609992 101.7984990  23.8749997
 132.9129992 102.6444990  23.8569997 132.7999992 101.2194990  23.3599997
 133.2238546 101.8359004  23.8028874 134.0709992 103.9604990  26.0009997
 134.2849992 103.1904990  26.5279997 134.8089992 104.0504990  25.3979997
 134.2000073 103.8673546  25.9915786 138.1439992  99.0024990  26.3609997
 138.1869992  99.8624990  25.9419997 137.6859992  98.4494990  25.7269997
 138.0880163  99.0454174  26.2180604 134.7639992 101.3994990  27.1229997
 135.4179992 100.8494990  27.5549997 134.7879992 101.1254990  26.2059997
 134.8567199 101.2872179  27.0581650 136.9539992  97.9204990  30.4349997
 136.7349992  98.4504990  29.6679997 136.2859992  98.1464990  31.0819997
 136.8336975  98.0235979  30.4175123 139.5229992 105.5954990  30.7219997
 138.7829992 106.1944990  30.8259997 140.2369992 106.1494990  30.4059997
 139.5183146 105.7522611  30.6935150 114.5049992  45.2304990  81.6769997
 114.0569992  46.0764990  81.6589997 113.9439992  44.6514990  81.1619997
 114.3678546  45.2679004  81.6048874 136.5479992  99.8124990  28.3869997
 137.1609992 100.4454990  28.7599997 137.0599992  99.3404990  27.7309997
 136.7011933  99.8353380  28.3493477 137.9299992 107.5604990  31.5089997
 137.9249992 108.4394990  31.1309997 137.0769992 107.4764990  31.9339997
 137.8139199 107.6695901  31.5146942 134.0519992 107.2314990  22.2909997
 133.7799992 107.4604990  21.4019997 134.0969992 108.0684990  22.7519997
 134.0208360 107.3761034  22.2316186 138.2979992 104.9034990  25.2219997
 137.9679992 104.5324990  24.4039997 138.8859992 104.2324990  25.5689997
 138.3323182 104.7620648  25.1569898 138.6649992 103.6714990  28.8549997
 139.2299992 103.7934990  28.0929997 138.9829992 104.3094990  29.4939997
 138.7853619 103.7744388  28.8370019 136.4649992 104.2694990  32.8009997
 136.5349992 104.9204990  33.4999997 135.5739992 104.3724990  32.4659997
 136.3541690 104.3724261  32.8513026 137.2879992 103.9724990  22.8109997
 136.9959992 104.7404990  22.3199997 136.6139992 103.3134990  22.6479997
 137.1568843 103.9884537  22.7217695 133.3809992 106.3354990  31.6259997
 132.8799992 106.3074990  30.8109997 133.3869992 105.4304990  31.9359997
 133.3131690 106.2092234  31.5562770 133.1319992 109.1164990  28.5099997
 134.0779992 108.9714990  28.4909997 133.0189992 109.9004990  29.0469997
 133.2463578 109.2026708  28.5800300 136.3759992 111.9174990  24.6559997
 136.5279992 111.5694990  25.5339997 135.5249992 111.5604990  24.3999997
 136.2818344 111.8215891  24.7416851 115.2149992  47.3924990  83.8029997
 115.4289992  46.6224990  84.3299997 115.9529992  47.4824990  83.1999997
 115.3440073  47.2993546  83.7935786 135.6299992 107.6594990  32.6689997
 135.8459992 107.2974990  33.5289997 134.7749992 107.2844990  32.4599997
 135.5439082 107.5593377  32.7582396 138.2489992  96.1294990  28.6649997
 137.3869992  96.0424990  28.2569997 138.2269992  96.9854990  29.0929997
 138.1280557  96.2333078  28.6670202 138.3399992 101.0944990  29.7599997
 137.6979992 101.0544990  30.4689997 138.3769992 102.0214990  29.5219997
 138.2571659 101.2142540  29.8248463 138.3369992 101.3154990  24.6719997
 137.4439992 100.9754990  24.6129997 138.7879992 100.9384990  23.9159997
 138.2757185 101.2180220  24.5617698 136.0899992 101.4154990  31.6269997
 136.0519992 101.8154990  32.4959997 135.5989992 100.5984990  31.7169997
 136.0184374 101.3598228  31.7580980 139.4559992  98.7894990  18.4259997
 139.0249992  98.3444990  19.1549997 138.7379992  99.1604990  17.9129997
 139.2999176  98.7787063  18.4564913 132.6979992  98.5314990  25.4779997
 133.3289992  98.5024990  26.1969997 133.1479992  98.1064990  24.7469997
 132.8451082  98.4701269  25.4776307 133.9719992  99.2774990  20.9019997
 134.4469992  99.8684990  20.3169997 133.2549992  99.8074990  21.2489997
 133.9400406  99.4301011  20.8688495 135.7469992 100.3724990  24.5849997
 134.8579992 100.4714990  24.2449997 136.0429992  99.5304990  24.2389997
 135.6654001 100.2722473  24.4917318 139.3999992 100.3724990  22.2419997
 140.3319992 100.5014990  22.4199997 139.1849992 101.0414990  21.5919997
 139.4984472 100.4805817  22.1784873 125.4199992  55.5494990  84.6699997
 126.0399992  54.8734990  84.3969997 125.2119992  55.3314990  85.5779997
 125.4767360  55.4274792  84.7554387 138.0739992 101.5664990  19.8079997
 137.5319992 101.1874990  19.1169997 138.9079992 101.7614990  19.3799997
 138.1124390 101.5409091  19.6554374 137.2409992  97.6674990  24.0639997
 136.9229992  96.7644990  24.0279997 138.0219992  97.6694990  23.5109997
 137.3031079  97.5442240  23.9842908 136.5339992 105.4274990  27.5139997
 137.2789992 105.4244990  26.9119997 136.6119992 104.6034990  27.9949997
 136.6463365 105.3157395  27.4967412 133.5419992 103.8874990  32.8289997
 133.7649992 103.4694990  33.6599997 132.9399992 103.2754990  32.4059997
 133.4911513 103.7474617  32.8856722 138.9089992 108.9454990  24.9179997
 139.4359992 109.7184990  24.7179997 138.0289992 109.1694990  24.6159997
 138.8622121 109.0817344  24.8497460 134.6639992 103.8074990  19.5049997
 135.2799992 104.4344990  19.8849997 133.8019992 104.1234990  19.7769997
 134.6317678 103.9359423  19.5937192 139.0189992 111.6294990  24.0399997
 138.0699992 111.7354990  24.0909997 139.3709992 112.4504990  24.3839997
 138.9365647 111.7550029  24.0934882 135.1759992  98.6414990  32.3869997
 134.2829992  98.9794990  32.3189997 135.0769992  97.7854990  32.8049997
 135.0404752  98.5720986  32.4341644 134.8269992 110.4454990  30.8219997
 135.0439992 109.5134990  30.7909997 135.0739992 110.7204990  31.7049997
 134.8900948 110.3550976  30.9371268 136.0789992 105.7194990  20.9979997
 135.3929992 106.0724990  21.5649997 136.6019992 106.4824990  20.7509997
 136.0558402 105.8708912  21.0421784 122.9919992  49.9384990  86.5619997
 123.2959992  49.2524990  85.9679997 123.7139992  50.0574990  87.1799997
 123.1311152  49.8607201  86.5642106 138.4359992  97.9064990  20.8339997
 138.3529992  98.7944990  21.1809997 139.3259992  97.6414990  21.0659997
 138.5449331  97.9921177  20.9128067 136.6949992 108.3334990  19.8939997
 137.2869992 109.0334990  20.1709997 137.1539992 107.9004990  19.1749997
 136.8381652 108.3707686  19.8346515 135.0109992 100.9984990  19.0099997
 134.9659992 101.9374990  19.1889997 134.1229992 100.7624990  18.7409997
 134.8848166 101.0951698  18.9981507 135.8189992  95.7794990  27.6829997
 135.5899992  95.8384990  26.7559997 135.3759992  94.9884990  27.9899997
 135.7277387  95.6806412  27.5975223 134.7489992 109.7204990  23.8439997
 133.9169992 110.1924990  23.8709997 135.2949992 110.2304990  23.2449997
 134.7088710 109.8540317  23.7667570 134.0379992 112.3324990  35.1739997
 134.5779992 112.1164990  35.9339997 133.5559992 111.5274990  34.9839997
 134.0468485 112.1940463  35.2524870 138.2859992 106.4864990  18.2609997
 138.3499992 105.6924990  18.7909997 138.9389992 106.3684990  17.5709997
 138.3830483 106.3617496  18.2403407 139.4349992 104.4594990  20.5669997
 138.9759992 103.9754990  21.2519997 139.6899992 103.7904990  19.9309997
 139.4065997 104.3028491  20.5748734 138.7239992 102.3524990  32.9229997
 138.1059992 103.0264990  33.2029997 139.0679992 102.6734990  32.0889997
 138.6858078 102.4882298  32.8486609 139.4759992  98.0764990  31.4979997
 140.0119992  98.5284990  30.8459997 138.6239992  97.9684990  31.0749997
 139.4341795  98.1237444  31.3516211 131.6549992  41.5404990  87.4229997
 131.7039992  42.1504990  88.1589997 132.0809992  42.0014990  86.6999997
 131.7192851  41.6863266  87.4260532 133.9719992 108.0294990  19.3129997
 134.8859992 108.1084990  19.5859997 133.9789992 107.3424990  18.6469997
 134.0980624 107.9474074  19.2603045 132.6209992 113.4224990  24.3899997
 131.9739992 112.9604990  23.8579997 132.9759992 112.7504990  24.9729997
 132.5803741 113.2684785  24.3959157 133.4909992 111.5024990  26.1949997
 133.1569992 110.6224990  26.3669997 133.7129992 111.8484990  27.0599997
 133.4752565 111.4287410  26.3354263 133.5709992 104.5784990  28.6469997
 133.7549992 104.4964990  27.7109997 134.4199992 104.4544990  29.0699997
 133.7110132 104.5505066  28.5761460 134.3899992  98.1614990  27.6789997
 134.8349992  97.3694990  27.9809997 134.8559992  98.8774990  28.1089997
 134.5139718  98.1499546  27.7785247 132.6939992 101.1604990  28.7479997
 133.1859992 100.9394990  27.9569997 133.0559992 102.0004990  29.0289997
 132.8102923 101.2438480  28.6777389 133.0069992  97.4184990  22.8019997
 132.0819992  97.6264990  22.6729997 133.4609992  97.9024990  22.1119997
 132.9416298  97.5124311  22.6910433 132.9709992  96.1564990  31.1459997
 132.3059992  95.9104990  31.7889997 132.5279992  96.7784990  30.5689997
 132.8201168  96.2069225  31.1559830 138.1169992 110.3054990  31.5489997
 137.6919992 111.1154990  31.2669997 139.0209992 110.3914990  31.2469997
 138.1810706 110.4279557  31.4695836 135.5189992 113.5624990  31.5969997
 134.7979992 114.0024990  31.1459997 135.1529992 113.3114990  32.4449997
 135.3709632 113.5887235  31.6499649 126.1329992  44.3324990  86.8899997
 126.2749992  43.3864990  86.9099997 126.0269992  44.5394990  85.9609997
 126.1381158  44.2309722  86.7672241 137.9859992 113.1624990  30.6259997
 137.1209992 113.2344990  31.0299997 137.9309992 113.7094990  29.8429997
 137.8602289 113.2463242  30.5753749 134.9339992 112.1854990  28.5069997
 134.9149992 111.7594990  29.3639997 135.7379992 111.8664990  28.0979997
 135.0401393 112.0840297  28.5690155 137.0749992 110.8954990  27.1619997
 136.8559992 109.9784990  27.3319997 137.8989992 111.0354990  27.6279997
 137.1564702 110.7890523  27.2482510 135.4469992  95.6634990  24.9769997
 134.6699992  95.4284990  24.4699997 135.9779992  94.8664990  24.9859997
 135.4123735  95.5236462  24.9088090 134.2839992  95.4614990  20.7809997
 134.7229992  96.0724990  20.1889997 133.6499992  95.9994990  21.2549997
 134.2583859  95.6179076  20.7640287 134.1849992 111.4094990  21.6779997
 133.4999992 111.3714990  21.0109997 134.1879992 112.3214990  21.9659997
 134.0916806 111.5276669  21.6256961 136.1449992  97.3774990  19.2229997
 136.6359992  96.7474990  18.6959997 136.7679992  97.6734990  19.8859997
 136.2965304  97.3312387  19.2404922 136.0029992 112.3294990  18.7029997
 135.7349992 112.6154990  19.5769997 136.7739992 111.7834990  18.8559997
 136.0705926 112.2947790  18.8431188  12.5339992 123.6754990  24.9359997
  12.6229992 124.6194990  24.8029997  11.8949992 123.4004990  24.2779997
  12.4598378 123.7673846  24.8289258  11.4669992 122.9304990  28.3549997
  11.4279992 122.2844990  29.0599997  11.1439992 122.4634990  27.5829997
  11.4180469 122.7790005  28.3472803 119.2879992  42.4344990  84.1619997
 119.3309992  43.2944990  83.7439997 118.8299992  41.8814990  83.5289997
 119.2319613  42.4775689  84.0191276   3.8349992 122.5444990  29.9479997
   3.8759992 121.9194990  30.6709997   4.5379992 123.1684990  30.1299997
   3.9356223 122.5432318  30.0716164  15.1729992 125.8694990  26.6559997
  14.7319992 125.1494990  27.1069997  15.1599992 126.5904990  27.2859997
  15.1109215 125.8684303  26.8028088   4.7589992 126.9944990  28.4829997
   4.3889992 126.1924990  28.1129997   5.6999992 126.8264990  28.5289997
   4.8355984 126.8619649  28.4385586   1.3689992 120.6544990  23.8749997
   0.9209992 121.5004990  23.8569997   0.8079992 120.0754990  23.3599997
   1.2318546 120.6919004  23.8028874   2.0789992 122.8164990  26.0009997
   2.2929992 122.0464990  26.5279997   2.8169992 122.9064990  25.3979997
   2.2080073 122.7233546  25.9915786  12.2839992 130.9734990  26.8679997
  12.9039992 130.2974990  26.5949997  12.0759992 130.7554990  27.7769997
  12.3407679 130.8515032  26.9534518   9.8559992 125.3624990  28.7609997
  10.1599992 124.6764990  28.1659997  10.5779992 125.4814990  29.3789997
   9.9951240 125.2847325  28.7630941  18.5189992 116.9644990  29.6209997
  18.5679992 117.5744990  30.3569997  18.9449992 117.4254990  28.8979997
  18.5832851 117.1103266  29.6240532  12.9969992 119.7564990  29.0879997
  13.1389992 118.8104990  29.1079997  12.8909992 119.9634990  28.1599997
  13.0021051 119.6549706  28.9652249   6.1519992 117.8584990  26.3609997
   6.1949992 118.7184990  25.9419997   5.6939992 117.3054990  25.7269997
   6.0960163 117.9014174  26.2180604 127.0099992  42.5654990  82.5629997
 127.6559992  42.2364990  83.1879997 127.5199992  43.0824990  81.9399997
 127.1674392  42.5903710  82.5643248  13.8739992 117.9894990  24.7609997
  14.5199992 117.6604990  25.3859997  14.3839992 118.5064990  24.1389997
  14.0314289 118.0144333  24.7623681   2.7719992 120.2554990  27.1229997
   3.4259992 119.7054990  27.5549997   2.7959992 119.9814990  26.2059997
   2.8647199 120.1432178  27.0581650   7.9279992 121.8054990  26.3379997
   8.5439992 121.2784990  26.8469997   7.3419992 121.1654990  25.9339997
   7.9330652 121.6468919  26.3530277  18.9109992 118.4424990  31.8569997
  18.2219992 119.1004990  31.7619997  18.9259992 118.2444990  32.7939997
  18.8187756 118.5057614  31.9705795   4.9619992 116.7764990  30.4349997
   4.7429992 117.3064990  29.6679997   4.2939992 117.0024990  31.0819997
   4.8416975 116.8795979  30.4175123  12.3309992 126.2764990  23.9789997
  12.0349992 125.9534990  23.1269997  12.0069992 127.1764990  24.0199997
  12.2467458 126.3539678  23.8680598   7.5309992 124.4514990  30.7219997
   6.7909992 125.0504990  30.8259997   8.2449992 125.0054990  30.4059997
   7.5263146 124.6082611  30.6935150  15.6379992 117.2804990  26.7419997
  15.4229992 116.5144990  27.2749997  16.2939992 117.7524990  27.2549997
  15.6972673 117.2395739  26.8841972   4.5559992 118.6684990  28.3869997
   5.1689992 119.3014990  28.7599997   5.0679992 118.1964990  27.7309997
   4.7091933 118.6913380  28.3493477   5.9379992 126.4164990  31.5089997
   5.9329992 127.2954990  31.1309997   5.0849992 126.3324990  31.9339997
   5.8219199 126.5255901  31.5146942 115.9079992  44.8314990  84.9239997
 116.5619992  44.2814990  85.3559997 115.9319992  44.5574990  84.0079997
 116.0007022  44.7192005  84.8591698   2.0599992 126.0874990  22.2909997
   1.7879992 126.3164990  21.4019997   2.1049992 126.9244990  22.7519997
   2.0288360 126.2321034  22.2316186  15.6849992 127.7084990  29.0039997
  14.7429992 127.7674990  29.1659997  15.9609992 128.6144990  28.8669997
  15.5935865 127.8390299  29.0076174  15.9849992 115.9954990  30.4209997
  15.2489992 116.6054990  30.3839997  16.6689992 116.4104990  29.8949997
  15.9765367 116.1352562  30.3448156   8.9879992 114.0814990  27.8869997
   8.8709992 113.1334990  27.8329997   8.1329992 114.4144990  28.1599997
   8.8563691 113.9965842  27.9165072  13.9369992 129.4894990  25.6289997
  14.3619992 128.7824990  25.1439997  14.2539992 130.2914990  25.2119997
  14.0380266 129.5010201  25.5062461  15.0959992 127.3904990  24.1379997
  14.8389992 126.7004990  23.5259997  15.1669992 126.9474990  24.9829997
  15.0704322 127.2361568  24.1685372  16.7819992 125.9574990  32.6149997
  16.9219992 125.3654990  31.8759997  16.9499992 126.8304990  32.2589997
  16.8238734 125.9944041  32.4656937  11.2549992 122.9194990  22.3879997
  10.5429992 123.4544990  22.0359997  11.9459992 122.9744990  21.7279997
  11.2509704 123.0001663  22.2505797  11.3089992 121.3764990  19.4259997
  12.0099992 121.3994990  20.0779997  11.6109992 120.7484990  18.7699997
  11.4458202 121.2947223  19.4265591  18.6239992 122.2974990  30.6809997
  17.9719992 122.9914990  30.7699997  19.0889992 122.5074990  29.8709997
  18.5975357 122.4209544  30.5837056 121.0639992  46.3814990  84.1399997
 121.6799992  45.8544990  84.6489997 120.4779992  45.7414990  83.7359997
 121.0690652  46.2228919  84.1550277  14.6609992 123.1284990  23.3389997
  13.9289992 123.3574990  23.9119997  15.1079992 122.4154990  23.7939997
  14.6212753 123.0633984  23.4789698  14.5579992 121.3034990  32.4069997
  14.6379992 122.0664990  32.9789997  13.9569992 121.5824990  31.7169997
  14.4876547 121.4457468  32.3920029   6.3059992 123.7594990  25.2219997
   5.9759992 123.3884990  24.4039997   6.8939992 123.0884990  25.5689997
   6.3403182 123.6180648  25.1569898   7.6729992 127.1874990  27.9029997
   7.5779992 126.6084990  27.1469997   8.4019992 126.8164990  28.3989997
   7.7586011 127.0580572  27.8666011   6.6729992 122.5274990  28.8549997
   7.2379992 122.6494990  28.0929997   6.9909992 123.1654990  29.4939997
   6.7933619 122.6304388  28.8370019  12.9819992 128.0314990  29.5889997
  12.7409992 128.6934990  30.2369997  12.7839992 127.1964990  30.0139997
  12.9222662 128.0092704  29.7351008   7.5529992 126.9274990  33.5729997
   7.2409992 127.7094990  34.0279997   6.9029992 126.7744990  32.8869997
   7.4224858 127.0137882  33.5425344  13.5319992 122.2914990  21.0249997
  14.1109992 122.4414990  21.7709997  13.9459992 122.7614990  20.3009997
  13.6673358 122.3755966  21.0293935  11.2579992 129.0274990  24.4599997
  11.7319992 129.3234990  25.2369997  10.6949992 129.7664990  24.2269997
  11.2467890 129.1678047  24.5348084   5.7919992 128.9984990  34.3359997
   5.7999992 128.8624990  33.3889997   4.8759992 128.8814990  34.5879997
   5.6692528 128.9640475  34.2403226 132.0469992  43.0184990  89.6589997
 131.3579992  43.6764990  89.5639997 132.0619992  42.8204990  90.5959997
 131.9547756  43.0817614  89.7725795  17.2299992 114.0414990  20.8369997
  16.3299992 114.1794990  21.1329997  17.4819992 114.8724990  20.4359997
  17.1407727 114.1728705  20.8232935   5.2959992 122.8284990  22.8109997
   5.0039992 123.5964990  22.3199997   4.6219992 122.1694990  22.6479997
   5.1648843 122.8444537  22.7217695  18.4199992 128.4074990  19.2139997
  18.4929992 129.3464990  19.3839997  19.3249992 128.1024990  19.1579997
  18.5524170 128.4948294  19.2297045   1.3889992 125.1914990  31.6259997
   0.8879992 125.1634990  30.8109997   1.3949992 124.2864990  31.9359997
   1.3211690 125.0652234  31.5562770   1.1399992 127.9724990  28.5099997
   2.0859992 127.8274990  28.4909997   1.0269992 128.7564990  29.0469997
   1.2543578 128.0586708  28.5800300  10.3159992 128.2124990  33.0689997
  10.4029992 129.0384990  33.5439997   9.4519992 127.8824990  33.3179997
  10.2111944 128.2809871  33.1676558  10.7299992 131.9844990  22.8749997
  10.6549992 131.8634990  21.9279997  10.7629992 132.9334990  22.9929997
  10.7242083 132.0962639  22.7614973   4.3839992 130.7734990  24.6559997
   4.5359992 130.4254990  25.5339997   3.5329992 130.4164990  24.3999997
   4.2898344 130.6775891  24.7416851  13.8319992 131.1384990  19.8769997
  14.2069992 130.3944990  19.4059997  13.8359992 130.8684990  20.7949997
  13.8838969 131.0000920  19.9366475  13.5009992 131.0644990  22.6259997
  12.5659992 131.1644990  22.8049997  13.7809992 130.3544990  23.2049997
  13.4109471 130.9822944  22.7286678 118.0979992  41.3524990  88.2359997
 117.8789992  41.8824990  87.4699997 117.4299992  41.5784990  88.8839997
 117.9777271  41.4556508  88.2186206   3.6379992 126.5154990  32.6689997
   3.8539992 126.1534990  33.5289997   2.7829992 126.1404990  32.4599997
   3.5519082 126.4153377  32.7582396   6.2569992 114.9854990  28.6649997
   5.3949992 114.8984990  28.2569997   6.2349992 115.8414990  29.0929997
   6.1360557 115.0893078  28.6670202  10.9199992 114.7074990  32.0399997
  11.3399992 114.2924990  32.7929997   9.9869992 114.5284990  32.1569997
  10.8513736 114.6264921  32.1588950  15.0089992 123.3234990  18.6539997
  15.0509992 123.1014990  17.7239997  15.8579992 123.7224990  18.8439997
  15.1295253 123.3470510  18.5523804  10.5819992 117.1994990  19.3249997
  10.3279992 117.2184990  20.2469997  10.3249992 116.3284990  19.0229997
  10.5124508 117.0843292  19.4104786   6.3479992 119.9504990  29.7599997
   5.7059992 119.9104990  30.4689997   6.3849992 120.8774990  29.5219997
   6.2651659 120.0702540  29.8248463   6.3449992 120.1714990  24.6719997
   5.4519992 119.8314990  24.6129997   6.7959992 119.7944990  23.9159997
   6.2837185 120.0740220  24.5617698  11.8809992 120.5874990  23.4889997
  11.4719992 121.4024990  23.1969997  12.6009992 120.4474990  22.8749997
  11.9224439 120.6800383  23.3660098  10.9829992 120.7634990  34.9769997
  10.4199992 120.0584990  35.2979997  11.8089992 120.6424990  35.4449997
  11.0176674 120.6507176  35.0841734  12.8849992 120.0334990  26.3029997
  12.6899992 120.6394990  25.5879997  13.0669992 119.2004990  25.8689997
  12.8829195 120.0037936  26.1464079 125.4669992  50.8524990  81.7799997
 125.1709992  50.5294990  80.9289997 125.1429992  51.7524990  81.8219997
 125.3826501  50.9299058  81.6690893   4.0979992 120.2714990  31.6269997
   4.0599992 120.6714990  32.4959997   3.6069992 119.4544990  31.7169997
   4.0264373 120.2158228  31.7580980   7.4639992 117.6454990  18.4259997
   7.0329992 117.2004990  19.1549997   6.7459992 118.0164990  17.9129997
   7.3079176 117.6347063  18.4564913   0.7059992 117.3874990  25.4779997
   1.3369992 117.3584990  26.1969997   1.1559992 116.9624990  24.7469997
   0.8531082 117.3261269  25.4776307   1.9799992 118.1334990  20.9019997
   2.4549992 118.7244990  20.3169997   1.2629992 118.6634990  21.2489997
   1.9480406 118.2861011  20.8688495  12.1489992 121.6714990  30.9739997
  12.4729992 121.0404990  30.3309997  11.7089992 121.1374990  31.6349997
  12.1338707 121.5128261  30.9753195   8.9269992 117.5994990  25.7579997
   8.0159992 117.6564990  26.0469997   9.4319992 117.5394990  26.5689997
   8.8706873 117.5991838  25.9071190   3.7549992 119.2284990  24.5849997
   2.8659992 119.3274990  24.2449997   4.0509992 118.3864990  24.2389997
   3.6734001 119.1282473  24.4917318   7.4079992 119.2284990  22.2419997
   8.3399992 119.3574990  22.4199997   7.1929992 119.8974990  21.5919997
   7.5064472 119.3365817  22.1784873  13.3319992 116.8344990  29.0219997
  12.6549992 116.9654990  29.6859997  12.8459992 116.6794990  28.2119997
  13.1737265 116.8314665  29.0033380   6.0819992 120.4224990  19.8079997
   5.5399992 120.0434990  19.1169997   6.9159992 120.6174990  19.3799997
   6.1204390 120.3969091  19.6554374 120.6669992  49.0274990  88.5239997
 119.9269992  49.6264990  88.6269997 121.3809992  49.5814990  88.2079997
 120.6623288  49.1842368  88.4953787   4.2169992 124.9794990  34.9069997
   4.9489992 125.2344990  35.4689997   3.4369992 125.1844990  35.4229997
   4.2116526 125.0420438  35.0535168  10.2469992 120.3864990  27.6449997
  10.8109992 119.8404990  27.0979997  10.0989992 119.8654990  28.4339997
  10.3043037 120.2411798  27.6767212   5.2489992 116.5234990  24.0639997
   4.9309992 115.6204990  24.0279997   6.0299992 116.5254990  23.5109997
   5.3111079 116.4002240  23.9842908   8.8729992 118.7754990  30.0589997
   8.0379992 119.2294990  30.1699997   9.3969992 119.0514990  30.8109997
   8.8296072 118.8748960  30.1758118   9.4169992 124.9884990  21.7439997
   8.6719992 124.4804990  21.4219997   9.2829992 125.0374990  22.6899997
   9.2969334 124.9256144  21.8278892  16.5669992 124.1214990  30.5309997
  17.2089992 124.5774990  29.9869997  15.7369992 124.2344990  30.0679997
  16.5426536 124.1991813  30.3939579  13.3149992 117.8024990  19.9429997
  12.3759992 117.9134990  19.7919997  13.6119992 118.6584990  20.2499997
  13.2266136 117.9334977  19.9638568  10.9369992 125.1724990  32.9809997
  10.5909992 124.7904990  33.7879997  10.7369992 126.1054990  33.0519997
  10.8625987 125.2464013  33.1010443  14.0329992 119.6694990  21.6039997
  14.9249992 119.5314990  21.9229997  14.0899992 120.4604990  21.0669997
  14.1627380 119.7574777  21.5750981   4.5419992 124.2834990  27.5139997
   5.2869992 124.2804990  26.9119997   4.6199992 123.4594990  27.9949997
   4.6543365 124.1717395  27.4967412 128.7739992  41.8564990  84.5439997
 128.5589992  41.0904990  85.0759997 129.4299992  42.3284990  85.0569997
 128.8332451  41.8154472  84.6861699  11.5429992 126.4464990  20.7689997
  11.2479992 127.2734990  21.1509997  10.8399992 125.8274990  20.9659997
  11.4076379 126.4759182  20.8478636   1.5499992 122.7434990  32.8289997
   1.7729992 122.3254990  33.6599997   0.9479992 122.1314990  32.4059997
   1.4991513 122.6034617  32.8856722  13.1869992 127.6344990  32.9309997
  12.2859992 127.8174990  32.6639997  13.2209992 127.8934990  33.8519997
  13.0683861 127.6945245  33.0189517  18.9179992 119.8784990  21.2989997
  18.3639992 119.4824990  20.6259997  19.0189992 120.7894990  21.0209997
  18.8558589 119.9473904  21.1693839  17.2129992 128.6644990  21.7639997
  16.8409992 127.8394990  22.0729997  17.4909992 128.4814990  20.8659997
  17.1995807 128.5267031  21.6850063  14.3739992 123.4724990  28.7849997
  13.4459992 123.2414990  28.7579997  14.8249992 122.6954990  28.4549997
  14.3078165 123.3357785  28.7366772   6.9169992 127.8014990  24.9179997
   7.4439992 128.5744990  24.7179997   6.0369992 128.0254990  24.6159997
   6.8702121 127.9377344  24.8497460   2.6719992 122.6634990  19.5049997
   3.2879992 123.2904990  19.8849997   1.8099992 122.9794990  19.7769997
   2.6397678 122.7919423  19.5937192   8.3439992 125.4644990  24.4939997
   8.1029992 126.3894990  24.5359997   7.6039992 125.0054990  24.8909997
   8.2109463 125.5290969  24.5534279   8.8589992 129.6134990  30.8089997
   9.2219992 130.4674990  30.5759997   9.3909992 129.3214990  31.5499997
   8.9805141 129.6908907  30.8772079 117.6919992  43.2444990  86.1889997
 118.3049992  43.8774990  86.5619997 118.2039992  42.7724990  85.5319997
 117.8451680  43.2674006  86.1512830   7.0269992 130.4854990  24.0399997
   6.0779992 130.5914990  24.0909997   7.3789992 131.3064990  24.3839997
   6.9445647 130.6110029  24.0934882  12.4029992 125.7124990  30.5099997
  11.9769992 125.4844990  31.3359997  12.9839992 124.9734990  30.3279997
  12.4232088 125.5814393  30.5984454  14.6059992 126.6414990  19.5839997
  14.9589992 126.2614990  20.3879997  13.6569992 126.5474990  19.6709997
  14.5260956 126.5767867  19.7058005  15.0619992 130.2644990  32.9789997
  14.4599992 129.7084990  32.4839997  15.3429992 130.9314990  32.3529997
  15.0175757 130.2785755  32.8265657  19.1089992 131.1204990  19.7849997
  19.8529992 131.7064990  19.6449997  18.4149992 131.6894990  20.1179997
  19.1169809 131.2775830  19.8108572   3.1839992 117.4974990  32.3869997
   2.2909992 117.8354990  32.3189997   3.0849992 116.6414990  32.8049997
   3.0484752 117.4280986  32.4341644  15.4719992 125.3134990  21.8109997
  15.1949992 124.5854990  22.3669997  16.3989992 125.4324990  22.0159997
  15.5594419 125.2299436  21.9148264   2.8349992 129.3014990  30.8219997
   3.0519992 128.3694990  30.7909997   3.0819992 129.5764990  31.7049997
   2.8980948 129.2110976  30.9371268   8.6969992 127.7534990  18.0309997
   8.9359992 127.0044990  17.4839997   8.4279992 127.3654990  18.8639997
   8.6933233 127.5986865  18.0687791   7.6339992 127.3234990  20.4869997
   7.7809992 126.8034990  21.2769997   7.6309992 128.2304990  20.7939997
   7.6537102 127.3748964  20.6365907 119.0739992  50.9924990  89.3109997
 119.0689992  51.8714990  88.9329997 118.2209992  50.9084990  89.7359997
 118.9579199  51.1015901  89.3166942   4.0869992 124.5754990  20.9979997
   3.4009992 124.9284990  21.5649997   4.6099992 125.3384990  20.7509997
   4.0638402 124.7268912  21.0421783  11.9179992 117.2384990  31.2769997
  12.6169992 117.3124990  31.9269997  11.5379992 116.3734990  31.4309997
  11.9622662 117.1317050  31.3867412  12.7029992 116.8904990  22.3739997
  12.9229992 117.3614990  21.5699997  13.2609992 117.2844990  23.0439997
  12.8086044 117.0082946  22.3545207  10.3719992 129.0204990  21.2369997
   9.5549992 129.5174990  21.2889997  10.9009992 129.4964990  20.5959997
  10.3318125 129.1527000  21.1575289   9.9029992 118.6184990  23.2089997
  10.7149992 119.1224990  23.2549997   9.6579992 118.4734990  24.1229997
   9.9811091 118.6679366  23.3388552  10.4389992 119.6044990  32.3929997
  10.5579992 120.1784990  33.1499997  11.0939992 118.9164990  32.5079997
  10.5438684 119.5900205  32.5121656  10.7869992 115.6994990  24.1469997
  10.4399992 116.3164990  24.7909997  11.4449992 116.2004990  23.6649997
  10.8284430 115.8516860  24.1700046   7.7099992 130.0644990  21.2179997
   7.8709992 130.8644990  20.7179997   7.5129992 130.3714990  22.1029997
   7.7053906 130.2153690  21.2692316   6.4439992 116.7624990  20.8339997
   6.3609992 117.6504990  21.1809997   7.3339992 116.4974990  21.0659997
   6.5529331 116.8481177  20.9128067  15.2449992 121.2614990  27.3239997
  14.4479992 120.8464990  26.9959997  15.6899992 120.5714990  27.8149997
  15.1960367 121.1113372  27.3454897 115.1959992  50.6634990  80.0929997
 114.9239992  50.8924990  79.2039997 115.2409992  51.5004990  80.5529997
 115.1648709  50.8081069  80.0336089   4.7029992 127.1894990  19.8939997
   5.2949992 127.8894990  20.1709997   5.1619992 126.7564990  19.1749997
   4.8461652 127.2267686  19.8346515   3.0189992 119.8544990  19.0099997
   2.9739992 120.7934990  19.1889997   2.1309992 119.6184990  18.7409997
   2.8928166 119.9511698  18.9981507  16.3319992 130.5174990  28.9459997
  16.1759992 131.1964990  28.2889997  17.2639992 130.5894990  29.1489997
  16.4367328 130.6201586  28.8835529   3.8269992 114.6354990  27.6829997
   3.5979992 114.6944990  26.7559997   3.3839992 113.8444990  27.9899997
   3.7357387 114.5366412  27.5975223   2.7569992 128.5764990  23.8439997
   1.9249992 129.0484990  23.8709997   3.3029992 129.0864990  23.2449997
   2.7168710 128.7100317  23.7667570   2.0459992 131.1884990  35.1739997
   2.5859992 130.9724990  35.9339997   1.5639992 130.3834990  34.9839997
   2.0548485 131.0500463  35.2524870  10.7349992 129.6164990  18.1689997
  10.0909992 128.9854990  18.4909997  11.4969992 129.0854990  17.9379997
  10.7498708 129.4583171  18.1818461  15.3389992 129.4334990  18.4029997
  15.6219992 128.6384990  18.8559997  16.0789992 129.6664990  17.8419997
  15.4777295 129.3562349  18.3891469   6.2939992 125.3424990  18.2609997
   6.3579992 124.5484990  18.7909997   6.9469992 125.2244990  17.5709997
   6.3910483 125.2177496  18.2403407  11.6459992 126.3894990  17.9969997
  11.3779992 126.5704990  18.8969997  11.4399992 125.4644990  17.8649997
  11.5813443 126.2891873  18.1026643 128.8209992  52.2844990  86.8059997
 127.8789992  52.3434990  86.9669997 129.0969992  53.1904990  86.6689997
 128.7295771  52.4150270  86.8094827  14.3429992 124.8844990  32.9439997
  15.0879992 125.4734990  32.8249997  13.5849992 125.4664990  33.0069997
  14.3425289 125.0437067  32.9362292   7.4429992 123.3154990  20.5669997
   6.9839992 122.8314990  21.2519997   7.6979992 122.6464990  19.9309997
   7.4145997 123.1588491  20.5748734   8.5139992 121.5584990  18.8289997
   8.3339992 121.4034990  17.9019997   9.4639992 121.6664990  18.8739997
   8.6177804 121.5518821  18.7081966  17.9039992 123.9124990  18.2749997
  17.6309992 123.4884990  17.4619997  17.9439992 124.8444990  18.0579997
  17.8720201 123.9803523  18.1343548   7.0719992 118.5634990  34.0049997
   7.2219992 117.8344990  33.4029997   7.0739992 119.3404990  33.4459997
   7.0927967 118.5687720  33.8470523   7.4839992 116.9324990  31.4979997
   8.0199992 117.3844990  30.8459997   6.6319992 116.8244990  31.0749997
   7.4421795 116.9797444  31.3516211   9.0659992 122.3724990  31.7369997
   9.8169992 122.2164990  31.1639997   8.7269992 123.2244990  31.4619997
   9.1229587 122.4663149  31.6214060  14.7979992 122.9764990  34.8429997
  14.5169992 123.6854990  34.2649997  15.7409992 122.9034990  34.6919997
  14.8869272 123.0636704  34.7434976   8.2899992 114.3894990  31.9289997
   8.1919992 115.3354990  31.8239997   7.5469992 114.0164990  31.4529997
   8.1762123 114.4686811  31.8503204   3.7309992 117.6814990  35.6209997
   3.9419992 116.9754990  35.0109997   3.6189992 117.2444990  36.4649997
   3.7447668 117.5256619  35.6515445 129.1209992  40.5714990  88.2229997
 128.3849992  41.1814990  88.1849997 129.8049992  40.9864990  87.6969997
 129.1125885  40.7111924  88.1466931   8.4119992 132.2484990  19.8299997
   9.3449992 132.4064990  19.9739997   8.1469992 132.9244990  19.2049997
   8.5039846 132.3614567  19.7652930   1.9799992 126.8854990  19.3129997
   2.8939992 126.9644990  19.5859997   1.9869992 126.1984990  18.6469997
   2.1060624 126.8034074  19.2603045   0.6289992 132.2784990  24.3899997
  -0.0180008 131.8164990  23.8579997   0.9839992 131.6064990  24.9729997
   0.5883741 132.1244785  24.3959157   1.4989992 130.3584990  26.1949997
   1.1649992 129.4784990  26.3669997   1.7209992 130.7044990  27.0599997
   1.4832565 130.2847410  26.3354263  19.0479992 131.1684990  29.1759997
  19.0259992 131.3534990  30.1139997  19.7379992 131.7364990  28.8349997
  19.1383383 131.2707104  29.2584580  18.6109992 130.7354990  32.0969997
  18.1239992 129.9994990  31.7259997  19.1599992 130.3414990  32.7749997
  18.6186101 130.5816267  32.1379034  18.3629992 124.7814990  22.2499997
  19.2129992 125.2024990  22.3769997  18.3679992 124.0414990  22.8569997
  18.4801143 124.7391106  22.3494732  18.7569992 122.8354990  24.0729997
  18.0309992 122.3554990  24.4709997  19.3379992 123.0404990  24.8049997
  18.7362504 122.7975592  24.2264199  18.5159992 125.6204990  29.0209997
  19.3499992 125.2424990  28.7399997  18.6279992 126.5634990  28.9019997
  18.6451917 125.6962954  28.9664844  17.0019992 128.4984990  31.3279997
  16.3549992 128.8234990  31.9529997  16.4849992 128.0574990  30.6539997
  16.8434112 128.4834133  31.3225272 122.1239992  38.6574990  85.6889997
 122.0069992  37.7094990  85.6349997 121.2689992  38.9904990  85.9619997
 121.9923691  38.5725842  85.7185072  19.0249992 122.7364990  20.4639997
  18.5039992 123.0924990  19.7459997  18.9919992 123.4114990  21.1429997
  18.9490955 122.8765023  20.4572634  17.3739992 119.9754990  19.0149997
  17.4709992 120.6424990  18.3349997  17.2339992 119.1604990  18.5339997
  17.3683407 119.9565670  18.8568312  16.5439992 121.3564990  24.6359997
  16.3939992 120.4114990  24.6159997  16.1899992 121.6374990  25.4799997
  16.4756351 121.2651656  24.7473202   1.5789992 123.4344990  28.6469997
   1.7629992 123.3524990  27.7109997   2.4279992 123.3104990  29.0699997
   1.7190132 123.4065066  28.5761460  17.3999992 123.3264990  34.2749997
  17.9829992 122.5914990  34.4669997  17.9639992 124.0984990  34.3219997
  17.5559781 123.3303156  34.3076146  16.6219992 117.3834990  18.1329997
  17.2319992 117.0124990  18.7699997  15.7849992 116.9624990  18.3289997
  16.5923704 117.2757942  18.2467077  16.2539992 118.9384990  23.0989997
  16.5339992 118.0314990  23.2229997  17.0129992 119.3724990  22.7099997
  16.3949258 118.8730935  23.0633691  16.8659992 119.5204990  28.5349997
  17.7989992 119.7324990  28.4999997  16.6309992 119.6214990  29.4569997
  16.9619517 119.5631844  28.6549113  16.8949992 120.2574990  31.3109997
  16.0519992 120.5254990  31.6759997  17.3379992 121.0794990  31.0999997
  16.8394035 120.4053351  31.3324770   1.1759992 118.7044990  34.7869997
   2.0959992 118.5824990  35.0239997   0.7269992 117.9544990  35.1769997
   1.2410500 118.5864576  34.8721016 127.0729992  54.0654990  83.4309997
 127.4979992  53.3584990  82.9459997 127.3899992  54.8674990  83.0139997
 127.1740266  54.0770201  83.3082461  16.8679992 116.2014990  23.1469997
  17.0499992 115.7524990  23.9719997  16.2679992 115.6174990  22.6829997
  16.8118187 116.0610563  23.1972721   2.3979992 117.0174990  27.6789997
   2.8429992 116.2254990  27.9809997   2.8639992 117.7334990  28.1089997
   2.5219718 117.0059546  27.7785247   0.7019992 120.0164990  28.7479997
   1.1939992 119.7954990  27.9569997   1.0639992 120.8564990  29.0289997
   0.8182923 120.0998480  28.6777389  18.7339992 116.2694990  19.6749997
  19.1469992 115.5484990  19.1999997  19.4159992 116.9384990  19.7329997
  18.8826060 116.2613741  19.6179233   1.0149992 116.2744990  22.8019997
   0.0899992 116.4824990  22.6729997   1.4689992 116.7584990  22.1119997
   0.9496298 116.3684311  22.6910433  15.7859992 131.2584990  24.7479997
  16.4379992 130.9104990  24.1399997  16.2969992 131.7464990  25.3939997
  15.9442872 131.2768248  24.7520964   0.9789992 115.0124990  31.1459997
   0.3139992 114.7664990  31.7889997   0.5359992 115.6344990  30.5689997
   0.8281168 115.0629225  31.1559830   3.1709992 128.1874990  35.2909997
   2.3499992 128.3624990  34.8299997   2.9189992 128.1144990  36.2109997
   3.0245594 128.2015728  35.3523593   6.1249992 129.1614990  31.5489997
   5.6999992 129.9714990  31.2669997   7.0289992 129.2474990  31.2469997
   6.1890706 129.2839557  31.4695836  12.7809992 131.8464990  33.7529997
  13.4579992 131.2134990  33.5129997  13.1029992 132.2474990  34.5599997
  12.9171618 131.8141147  33.8292802 128.2319992  51.9664990  81.9399997
 127.9749992  51.2764990  81.3279997 128.3029992  51.5234990  82.7849997
 128.2064322  51.8121568  81.9705372  17.6989992 114.4364990  32.8319997
  16.8859992 114.7614990  32.4449997  17.9319992 113.6754990  32.2989997
  17.6191347 114.3781891  32.7069824   3.5269992 132.4184990  31.5969997
   2.8059992 132.8584990  31.1459997   3.1609992 132.1674990  32.4449997
   3.3789632 132.4447235  31.6499649   5.9939992 132.0184990  30.6259997
   5.1289992 132.0904990  31.0299997   5.9389992 132.5654990  29.8429997
   5.8682289 132.1023242  30.5753749  10.7049992 131.9064990  29.8019997
  10.2479992 132.4354990  29.1479997  10.8669992 132.5094990  30.5269997
  10.6643919 132.0603990  29.8105740  13.0319992 130.7844990  30.7469997
  12.1279992 130.9494990  30.4809997  13.4609992 131.6374990  30.6809997
  12.9662017 130.9224184  30.7016495  15.6359992 132.3544990  31.0419997
  15.4549992 133.2704990  30.8309997  15.8129992 131.9434990  30.1949997
  15.6351377 132.4243365  30.8987178   2.9419992 131.0414990  28.5069997
   2.9229992 130.6154990  29.3639997   3.7459992 130.7224990  28.0979997
   3.0481393 130.9400297  28.5690155   5.0829992 129.7514990  27.1619997
   4.8639992 128.8344990  27.3319997   5.9069992 129.8914990  27.6279997
   5.1644702 129.6450523  27.2482510   7.6199992 130.2214990  28.0109997
   7.8329992 129.3334990  27.7239997   7.6849992 130.1864990  28.9649997
   7.6579149 130.0953338  28.1007351  11.1289992 115.8854990  27.1549997
  10.4539992 115.2554990  27.4109997  11.6929992 115.4014990  26.5519997
  11.1129363 115.7338886  27.1084810 129.9179992  50.5334990  90.4169997
 130.0579992  49.9414990  89.6779997 130.0859992  51.4064990  90.0609997
 129.9598734  50.5704041  90.2676937  16.2709992 113.9924990  27.2679997
  16.8749992 114.5404990  26.7659997  15.4019992 114.3114990  27.0269997
  16.2360419 114.1105628  27.1667741  17.9979992 115.1314990  25.6009997
  18.6099992 114.6174990  25.0739997  18.3809992 116.0084990  25.6239997
  18.1333867 115.1797613  25.5320888   3.4549992 114.5194990  24.9769997
   2.6779992 114.2844990  24.4699997   3.9859992 113.7224990  24.9859997
   3.4203735 114.3796462  24.9088090   2.2919992 114.3174990  20.7809997
   2.7309992 114.9284990  20.1889997   1.6579992 114.8554990  21.2549997
   2.2663859 114.4739076  20.7640287   8.0349992 114.4454990  24.7899997
   8.9089992 114.8344990  24.7609997   7.8989992 114.2304990  25.7129997
   8.1361953 114.4696654  24.9107599  13.5909992 114.4754990  26.4399997
  13.6679992 114.5714990  25.4899997  13.3159992 113.5684990  26.5679997
  13.5643233 114.3659093  26.3273665  14.9449992 114.5014990  22.1319997
  14.2419992 115.1164990  21.9219997  14.4999992 113.6644990  22.2629997
  14.7886550 114.4724679  22.1209819   2.1929992 130.2654990  21.6779997
   1.5079992 130.2274990  21.0109997   2.1959992 131.1774990  21.9659997
   2.0996806 130.3836669  21.6256961   4.1529992 116.2334990  19.2229997
   4.6439992 115.6034990  18.6959997   4.7759992 116.5294990  19.8859997
   4.3045304 116.1872387  19.2404922   9.1789992 116.5264990  21.6799997
   9.3569992 115.8794990  22.3629997   9.1249992 117.3604990  22.1469997
   9.1960678 116.5506615  21.8366283 124.3909992  47.4954990  80.1889997
 123.6789992  48.0304990  79.8379997 125.0819992  47.5504990  79.5289997
 124.3868696  47.5762591  80.0516372  11.0569992 131.4744990  20.0759997
  11.9229992 131.8414990  19.8979997  10.8099992 131.0354990  19.2619997
  11.1421853 131.4654021  19.9415813  17.7659992 131.0374990  22.7549997
  17.5719992 130.2894990  22.1899997  17.7269992 131.7954990  22.1719997
  17.7341645 131.0375797  22.5988131   4.0109992 131.1854990  18.7029997
   3.7429992 131.4714990  19.5769997   4.7819992 130.6394990  18.8559997
   4.0785926 131.1507790  18.8431188  31.3899992 123.6754990  24.9359997
  31.4789992 124.6194990  24.8029997  30.7509992 123.4004990  24.2779997
  31.3158378 123.7673846  24.8289258  30.3229992 122.9304990  28.3549997
  30.2839992 122.2844990  29.0599997  29.9999992 122.4634990  27.5829997
  30.2740469 122.7790005  28.3472803  22.6909992 122.5444990  29.9479997
  22.7319992 121.9194990  30.6709997  23.3939992 123.1684990  30.1299997
  22.7916223 122.5432318  30.0716164  34.0289992 125.8694990  26.6559997
  33.5879992 125.1494990  27.1069997  34.0159992 126.5904990  27.2859997
  33.9669215 125.8684303  26.8028088  23.6149992 126.9944990  28.4829997
  23.2449992 126.1924990  28.1129997  24.5559992 126.8264990  28.5289997
  23.6915984 126.8619649  28.4385586  20.2249992 120.6544990  23.8749997
  19.7769992 121.5004990  23.8569997  19.6639992 120.0754990  23.3599997
  20.0878546 120.6919004  23.8028874  20.9349992 122.8164990  26.0009997
  21.1489992 122.0464990  26.5279997  21.6729992 122.9064990  25.3979997
  21.0640073 122.7233546  25.9915786 124.4449992  45.9524990  77.2279997
 125.1459992  45.9754990  77.8789997 124.7469992  45.3244990  76.5719997
 124.5818282  45.8707350  77.2284478  31.1399992 130.9734990  26.8679997
  31.7599992 130.2974990  26.5949997  30.9319992 130.7554990  27.7769997
  31.1967679 130.8515032  26.9534518  28.7119992 125.3624990  28.7609997
  29.0159992 124.6764990  28.1659997  29.4339992 125.4814990  29.3789997
  28.8511240 125.2847325  28.7630941  37.3749992 116.9644990  29.6209997
  37.4239992 117.5744990  30.3569997  37.8009992 117.4254990  28.8979997
  37.4392851 117.1103266  29.6240532  31.8529992 119.7564990  29.0879997
  31.9949992 118.8104990  29.1079997  31.7469992 119.9634990  28.1599997
  31.8581051 119.6549706  28.9652249  25.0079992 117.8584990  26.3609997
  25.0509992 118.7184990  25.9419997  24.5499992 117.3054990  25.7269997
  24.9520163 117.9014174  26.2180604  32.7299992 117.9894990  24.7609997
  33.3759992 117.6604990  25.3859997  33.2399992 118.5064990  24.1389997
  32.8874289 118.0144333  24.7623681  21.6279992 120.2554990  27.1229997
  22.2819992 119.7054990  27.5549997  21.6519992 119.9814990  26.2059997
  21.7207199 120.1432178  27.0581650  26.7839992 121.8054990  26.3379997
  27.3999992 121.2784990  26.8469997  26.1979992 121.1654990  25.9339997
  26.7890652 121.6468919  26.3530277  37.7669992 118.4424990  31.8569997
  37.0779992 119.1004990  31.7619997  37.7819992 118.2444990  32.7939997
  37.6747756 118.5057614  31.9705795  23.8179992 116.7764990  30.4349997
  23.5989992 117.3064990  29.6679997  23.1499992 117.0024990  31.0819997
  23.6976975 116.8795979  30.4175123 131.7599992  46.8734990  88.4829997
 131.1079992  47.5674990  88.5719997 132.2249992  47.0834990  87.6729997
 131.7335357  46.9969544  88.3857056  31.1869992 126.2764990  23.9789997
  30.8909992 125.9534990  23.1269997  30.8629992 127.1764990  24.0199997
  31.1027458 126.3539678  23.8680598  26.3869992 124.4514990  30.7219997
  25.6469992 125.0504990  30.8259997  27.1009992 125.0054990  30.4059997
  26.3823146 124.6082611  30.6935150  34.4939992 117.2804990  26.7419997
  34.2789992 116.5144990  27.2749997  35.1499992 117.7524990  27.2549997
  34.5532673 117.2395739  26.8841972  23.4119992 118.6684990  28.3869997
  24.0249992 119.3014990  28.7599997  23.9239992 118.1964990  27.7309997
  23.5651933 118.6913380  28.3493477  24.7939992 126.4164990  31.5089997
  24.7889992 127.2954990  31.1309997  23.9409992 126.3324990  31.9339997
  24.6779199 126.5255901  31.5146942  20.9159992 126.0874990  22.2909997
  20.6439992 126.3164990  21.4019997  20.9609992 126.9244990  22.7519997
  20.8848360 126.2321034  22.2316186  34.5409992 127.7084990  29.0039997
  33.5989992 127.7674990  29.1659997  34.8169992 128.6144990  28.8669997
  34.4495865 127.8390299  29.0076174  34.8409992 115.9954990  30.4209997
  34.1049992 116.6054990  30.3839997  35.5249992 116.4104990  29.8949997
  34.8325367 116.1352562  30.3448156  27.8439992 114.0814990  27.8869997
  27.7269992 113.1334990  27.8329997  26.9889992 114.4144990  28.1599997
  27.7123691 113.9965842  27.9165072  32.7929992 129.4894990  25.6289997
  33.2179992 128.7824990  25.1439997  33.1099992 130.2914990  25.2119997
  32.8940266 129.5010201  25.5062461 127.7969992  47.7044990  81.1409997
 127.0649992  47.9334990  81.7139997 128.2439992  46.9914990  81.5959997
 127.7572753  47.6393984  81.2809698  33.9519992 127.3904990  24.1379997
  33.6949992 126.7004990  23.5259997  34.0229992 126.9474990  24.9829997
  33.9264322 127.2361568  24.1685372  35.6379992 125.9574990  32.6149997
  35.7779992 125.3654990  31.8759997  35.8059992 126.8304990  32.2589997
  35.6798734 125.9944041  32.4656937  30.1109992 122.9194990  22.3879997
  29.3989992 123.4544990  22.0359997  30.8019992 122.9744990  21.7279997
  30.1069704 123.0001663  22.2505797  30.1649992 121.3764990  19.4259997
  30.8659992 121.3994990  20.0779997  30.4669992 120.7484990  18.7699997
  30.3018202 121.2947223  19.4265591  37.4799992 122.2974990  30.6809997
  36.8279992 122.9914990  30.7699997  37.9449992 122.5074990  29.8709997
  37.4535357 122.4209544  30.5837056  33.5169992 123.1284990  23.3389997
  32.7849992 123.3574990  23.9119997  33.9639992 122.4154990  23.7939997
  33.4772753 123.0633984  23.4789698  33.4139992 121.3034990  32.4069997
  33.4939992 122.0664990  32.9789997  32.8129992 121.5824990  31.7169997
  33.3436547 121.4457468  32.3920029  25.1619992 123.7594990  25.2219997
  24.8319992 123.3884990  24.4039997  25.7499992 123.0884990  25.5689997
  25.1963182 123.6180648  25.1569898  26.5289992 127.1874990  27.9029997
  26.4339992 126.6084990  27.1469997  27.2579992 126.8164990  28.3989997
  26.6146011 127.0580572  27.8666011  25.5289992 122.5274990  28.8549997
  26.0939992 122.6494990  28.0929997  25.8469992 123.1654990  29.4939997
  25.6493619 122.6304388  28.8370019 127.6939992  45.8794990  90.2089997
 127.7739992  46.6424990  90.7809997 127.0929992  46.1584990  89.5179997
 127.6237115  46.0217707  90.1939631  31.8379992 128.0314990  29.5889997
  31.5969992 128.6934990  30.2369997  31.6399992 127.1964990  30.0139997
  31.7782662 128.0092704  29.7351008  26.4089992 126.9274990  33.5729997
  26.0969992 127.7094990  34.0279997  25.7589992 126.7744990  32.8869997
  26.2784858 127.0137882  33.5425344  32.3879992 122.2914990  21.0249997
  32.9669992 122.4414990  21.7709997  32.8019992 122.7614990  20.3009997
  32.5233358 122.3755966  21.0293935  23.3289992 123.1254990  32.8009997
  23.3989992 123.7764990  33.4999997  22.4379992 123.2284990  32.4659997
  23.2181690 123.2284261  32.8513026  30.1139992 129.0274990  24.4599997
  30.5879992 129.3234990  25.2369997  29.5509992 129.7664990  24.2269997
  30.1027890 129.1678047  24.5348084  36.0859992 114.0414990  20.8369997
  35.1859992 114.1794990  21.1329997  36.3379992 114.8724990  20.4359997
  35.9967727 114.1728705  20.8232935  24.1519992 122.8284990  22.8109997
  23.8599992 123.5964990  22.3199997  23.4779992 122.1694990  22.6479997
  24.0208843 122.8444537  22.7217695  37.2759992 128.4074990  19.2139997
  37.3489992 129.3464990  19.3839997  38.1809992 128.1024990  19.1579997
  37.4084170 128.4948294  19.2297045  20.2449992 125.1914990  31.6259997
  19.7439992 125.1634990  30.8109997  20.2509992 124.2864990  31.9359997
  20.1771690 125.0652234  31.5562770  19.9959992 127.9724990  28.5099997
  20.9419992 127.8274990  28.4909997  19.8829992 128.7564990  29.0469997
  20.1103578 128.0586708  28.5800300 119.4419992  48.3354990  83.0239997
 119.1119992  47.9644990  82.2049997 120.0299992  47.6644990  83.3699997
 119.4764056  48.1941257  82.9589035  29.1719992 128.2124990  33.0689997
  29.2589992 129.0384990  33.5439997  28.3079992 127.8824990  33.3179997
  29.0671944 128.2809871  33.1676558  29.5859992 131.9844990  22.8749997
  29.5109992 131.8634990  21.9279997  29.6189992 132.9334990  22.9929997
  29.5802083 132.0962639  22.7614973  23.2399992 130.7734990  24.6559997
  23.3919992 130.4254990  25.5339997  22.3889992 130.4164990  24.3999997
  23.1458344 130.6775891  24.7416851  32.6879992 131.1384990  19.8769997
  33.0629992 130.3944990  19.4059997  32.6919992 130.8684990  20.7949997
  32.7398969 131.0000920  19.9366475  32.3569992 131.0644990  22.6259997
  31.4219992 131.1644990  22.8049997  32.6369992 130.3544990  23.2049997
  32.2669471 130.9822944  22.7286678  35.3449992 120.1314990  34.6729997
  34.9379992 120.6114990  33.9519997  35.3859992 119.2254990  34.3649997
  35.2948403 120.0747989  34.5327253  22.4939992 126.5154990  32.6689997
  22.7099992 126.1534990  33.5289997  21.6389992 126.1404990  32.4599997
  22.4079082 126.4153377  32.7582396  25.1129992 114.9854990  28.6649997
  24.2509992 114.8984990  28.2569997  25.0909992 115.8414990  29.0929997
  24.9920557 115.0893078  28.6670202  29.7759992 114.7074990  32.0399997
  30.1959992 114.2924990  32.7929997  28.8429992 114.5284990  32.1569997
  29.7073736 114.6264921  32.1588950  33.1019992 118.4624990  32.8929997
  32.5879992 118.3374990  33.6909997  32.9469992 119.3754990  32.6489997
  33.0107802 118.5687433  32.9691504 120.8089992  51.7634990  85.7049997
 120.7139992  51.1844990  84.9479997 121.5379992  51.3924990  86.2009997
 120.8946161  51.6340902  85.6685191  33.8649992 123.3234990  18.6539997
  33.9069992 123.1014990  17.7239997  34.7139992 123.7224990  18.8439997
  33.9855253 123.3470510  18.5523804  29.4379992 117.1994990  19.3249997
  29.1839992 117.2184990  20.2469997  29.1809992 116.3284990  19.0229997
  29.3684508 117.0843292  19.4104786  25.2039992 119.9504990  29.7599997
  24.5619992 119.9104990  30.4689997  25.2409992 120.8774990  29.5219997
  25.1211659 120.0702540  29.8248463  25.2009992 120.1714990  24.6719997
  24.3079992 119.8314990  24.6129997  25.6519992 119.7944990  23.9159997
  25.1397185 120.0740220  24.5617698  30.7369992 120.5874990  23.4889997
  30.3279992 121.4024990  23.1969997  31.4569992 120.4474990  22.8749997
  30.7784439 120.6800383  23.3660098  29.8389992 120.7634990  34.9769997
  29.2759992 120.0584990  35.2979997  30.6649992 120.6424990  35.4449997
  29.8736674 120.6507176  35.0841734  31.7409992 120.0334990  26.3029997
  31.5459992 120.6394990  25.5879997  31.9229992 119.2004990  25.8689997
  31.7389195 120.0037936  26.1464079  22.9539992 120.2714990  31.6269997
  22.9159992 120.6714990  32.4959997  22.4629992 119.4544990  31.7169997
  22.8824373 120.2158228  31.7580980  26.3199992 117.6454990  18.4259997
  25.8889992 117.2004990  19.1549997  25.6019992 118.0164990  17.9129997
  26.1639176 117.6347063  18.4564913  19.5619992 117.3874990  25.4779997
  20.1929992 117.3584990  26.1969997  20.0119992 116.9624990  24.7469997
  19.7091082 117.3261269  25.4776307 119.8089992  47.1034990  86.6569997
 120.3739992  47.2254990  85.8939997 120.1269992  47.7414990  87.2959997
 119.9293430  47.2064448  86.6389094  20.8359992 118.1334990  20.9019997
  21.3109992 118.7244990  20.3169997  20.1189992 118.6634990  21.2489997
  20.8040406 118.2861011  20.8688495  31.0049992 121.6714990  30.9739997
  31.3289992 121.0404990  30.3309997  30.5649992 121.1374990  31.6349997
  30.9898707 121.5128261  30.9753195  27.7829992 117.5994990  25.7579997
  26.8719992 117.6564990  26.0469997  28.2879992 117.5394990  26.5689997
  27.7266873 117.5991838  25.9071190  22.6109992 119.2284990  24.5849997
  21.7219992 119.3274990  24.2449997  22.9069992 118.3864990  24.2389997
  22.5294001 119.1282473  24.4917318  26.2639992 119.2284990  22.2419997
  27.1959992 119.3574990  22.4199997  26.0489992 119.8974990  21.5919997
  26.3624472 119.3365817  22.1784873  32.1879992 116.8344990  29.0219997
  31.5109992 116.9654990  29.6859997  31.7019992 116.6794990  28.2119997
  32.0297265 116.8314665  29.0033380  24.9379992 120.4224990  19.8079997
  24.3959992 120.0434990  19.1169997  25.7719992 120.6174990  19.3799997
  24.9764390 120.3969091  19.6554374  29.1029992 120.3864990  27.6449997
  29.6669992 119.8404990  27.0979997  28.9549992 119.8654990  28.4339997
  29.1603037 120.2411798  27.6767212  24.1049992 116.5234990  24.0639997
  23.7869992 115.6204990  24.0279997  24.8859992 116.5254990  23.5109997
  24.1671079 116.4002240  23.9842908  27.7289992 118.7754990  30.0589997
  26.8939992 119.2294990  30.1699997  28.2529992 119.0514990  30.8109997
  27.6856072 118.8748960  30.1758118 126.1179992  52.6074990  87.3909997
 125.8769992  53.2694990  88.0389997 125.9199992  51.7724990  87.8159997
 126.0582662  52.5852704  87.5371008  28.2729992 124.9884990  21.7439997
  27.5279992 124.4804990  21.4219997  28.1389992 125.0374990  22.6899997
  28.1529334 124.9256144  21.8278892  35.4229992 124.1214990  30.5309997
  36.0649992 124.5774990  29.9869997  34.5929992 124.2344990  30.0679997
  35.3986536 124.1991813  30.3939579  32.1709992 117.8024990  19.9429997
  31.2319992 117.9134990  19.7919997  32.4679992 118.6584990  20.2499997
  32.0826136 117.9334977  19.9638568  32.8889992 119.6694990  21.6039997
  33.7809992 119.5314990  21.9229997  32.9459992 120.4604990  21.0669997
  33.0187380 119.7574777  21.5750981  23.3979992 124.2834990  27.5139997
  24.1429992 124.2804990  26.9119997  23.4759992 123.4594990  27.9949997
  23.5103365 124.1717395  27.4967412  30.3989992 126.4464990  20.7689997
  30.1039992 127.2734990  21.1509997  29.6959992 125.8274990  20.9659997
  30.2636379 126.4759182  20.8478636  20.4059992 122.7434990  32.8289997
  20.6289992 122.3254990  33.6599997  19.8039992 122.1314990  32.4059997
  20.3551513 122.6034617  32.8856722  32.0429992 127.6344990  32.9309997
  31.1419992 127.8174990  32.6639997  32.0769992 127.8934990  33.8519997
  31.9243861 127.6945245  33.0189517  37.7739992 119.8784990  21.2989997
  37.2199992 119.4824990  20.6259997  37.8749992 120.7894990  21.0209997
  37.7118589 119.9473904  21.1693839  37.7369992 125.6794990  34.1359997
  36.8859992 125.9174990  33.7679997  38.3279992 125.6624990  33.3819997
  37.7003831 125.7097623  33.9838448 120.6889992  51.5034990  91.3739997
 120.3769992  52.2854990  91.8299997 120.0389992  51.3504990  90.6879997
 120.5584643  51.5898019  91.3436657  36.0689992 128.6644990  21.7639997
  35.6969992 127.8394990  22.0729997  36.3469992 128.4814990  20.8659997
  36.0555807 128.5267031  21.6850063  33.2299992 123.4724990  28.7849997
  32.3019992 123.2414990  28.7579997  33.6809992 122.6954990  28.4549997
  33.1638165 123.3357785  28.7366772  25.7729992 127.8014990  24.9179997
  26.2999992 128.5744990  24.7179997  24.8929992 128.0254990  24.6159997
  25.7262121 127.9377344  24.8497460  21.5279992 122.6634990  19.5049997
  22.1439992 123.2904990  19.8849997  20.6659992 122.9794990  19.7769997
  21.4957678 122.7919423  19.5937192  27.1999992 125.4644990  24.4939997
  26.9589992 126.3894990  24.5359997  26.4599992 125.0054990  24.8909997
  27.0669463 125.5290969  24.5534279  27.7149992 129.6134990  30.8089997
  28.0779992 130.4674990  30.5759997  28.2469992 129.3214990  31.5499997
  27.8365141 129.6908907  30.8772079  25.8829992 130.4854990  24.0399997
  24.9339992 130.5914990  24.0909997  26.2349992 131.3064990  24.3839997
  25.8005647 130.6110029  24.0934883  31.2589992 125.7124990  30.5099997
  30.8329992 125.4844990  31.3359997  31.8399992 124.9734990  30.3279997
  31.2792088 125.5814393  30.5984454  33.4619992 126.6414990  19.5839997
  33.8149992 126.2614990  20.3879997  32.5129992 126.5474990  19.6709997
  33.3820956 126.5767867  19.7058005  33.9179992 130.2644990  32.9789997
  33.3159992 129.7084990  32.4839997  34.1989992 130.9314990  32.3529997
  33.8735757 130.2785755  32.8265657 126.6679992  46.8674990  78.8259997
 127.2469992  47.0174990  79.5729997 127.0819992  47.3374990  78.1029997
 126.8033122  46.9516288  78.8305024  37.9649992 131.1204990  19.7849997
  38.7089992 131.7064990  19.6449997  37.2709992 131.6894990  20.1179997
  37.9729809 131.2775830  19.8108572  22.0399992 117.4974990  32.3869997
  21.1469992 117.8354990  32.3189997  21.9409992 116.6414990  32.8049997
  21.9044752 117.4280986  32.4341644  34.3279992 125.3134990  21.8109997
  34.0509992 124.5854990  22.3669997  35.2549992 125.4324990  22.0159997
  34.4154419 125.2299436  21.9148264  21.6909992 129.3014990  30.8219997
  21.9079992 128.3694990  30.7909997  21.9379992 129.5764990  31.7049997
  21.7540948 129.2110976  30.9371268  27.5529992 127.7534990  18.0309997
  27.7919992 127.0044990  17.4839997  27.2839992 127.3654990  18.8639997
  27.5493233 127.5986865  18.0687791  26.4899992 127.3234990  20.4869997
  26.6369992 126.8034990  21.2769997  26.4869992 128.2304990  20.7939997
  26.5097102 127.3748964  20.6365907  22.9429992 124.5754990  20.9979997
  22.2569992 124.9284990  21.5649997  23.4659992 125.3384990  20.7509997
  22.9198402 124.7268912  21.0421783  30.7739992 117.2384990  31.2769997
  31.4729992 117.3124990  31.9269997  30.3939992 116.3734990  31.4309997
  30.8182662 117.1317050  31.3867412  31.5589992 116.8904990  22.3739997
  31.7789992 117.3614990  21.5699997  32.1169992 117.2844990  23.0439997
  31.6646044 117.0082946  22.3545207  29.2279992 129.0204990  21.2369997
  28.4109992 129.5174990  21.2889997  29.7569992 129.4964990  20.5959997
  29.1878125 129.1527000  21.1575289 117.6089992  47.7014990  90.6029997
 117.6789992  48.3524990  91.3009997 116.7179992  47.8044990  90.2679997
 117.4981802  47.8044769  90.6532231  28.7589992 118.6184990  23.2089997
  29.5709992 119.1224990  23.2549997  28.5139992 118.4734990  24.1229997
  28.8371091 118.6679366  23.3388552  29.2949992 119.6044990  32.3929997
  29.4139992 120.1784990  33.1499997  29.9499992 118.9164990  32.5079997
  29.3998684 119.5900205  32.5121656  29.6429992 115.6994990  24.1469997
  29.2959992 116.3164990  24.7909997  30.3009992 116.2004990  23.6649997
  29.6844430 115.8516860  24.1700046  26.5659992 130.0644990  21.2179997
  26.7269992 130.8644990  20.7179997  26.3689992 130.3714990  22.1029997
  26.5613906 130.2153690  21.2692316  25.2999992 116.7624990  20.8339997
  25.2169992 117.6504990  21.1809997  26.1899992 116.4974990  21.0659997
  25.4089331 116.8481177  20.9128067  35.4989992 117.5114990  33.2279997
  34.5829992 117.7734990  33.1409997  35.8349992 117.5084990  32.3319997
  35.4188499 117.5470174  33.0948748  34.1009992 121.2614990  27.3239997
  33.3039992 120.8464990  26.9959997  34.5459992 120.5714990  27.8149997
  34.0520367 121.1113372  27.3454897  23.5589992 127.1894990  19.8939997
  24.1509992 127.8894990  20.1709997  24.0179992 126.7564990  19.1749997
  23.7021652 127.2267686  19.8346515  21.8749992 119.8544990  19.0099997
  21.8299992 120.7934990  19.1889997  20.9869992 119.6184990  18.7409997
  21.7488166 119.9511698  18.9981507  35.1879992 130.5174990  28.9459997
  35.0319992 131.1964990  28.2889997  36.1199992 130.5894990  29.1489997
  35.2927328 130.6201586  28.8835529 124.3939992  53.6034990  82.2619997
 124.8679992  53.8994990  83.0389997 123.8309992  54.3424990  82.0279997
 124.3828460  53.7438336  82.3367626  22.6829992 114.6354990  27.6829997
  22.4539992 114.6944990  26.7559997  22.2399992 113.8444990  27.9899997
  22.5917387 114.5366412  27.5975223  21.6129992 128.5764990  23.8439997
  20.7809992 129.0484990  23.8709997  22.1589992 129.0864990  23.2449997
  21.5728710 128.7100317  23.7667570  29.5909992 129.6164990  18.1689997
  28.9469992 128.9854990  18.4909997  30.3529992 129.0854990  17.9379997
  29.6058708 129.4583171  18.1818461  34.1949992 129.4334990  18.4029997
  34.4779992 128.6384990  18.8559997  34.9349992 129.6664990  17.8419997
  34.3337295 129.3562349  18.3891469  25.1499992 125.3424990  18.2609997
  25.2139992 124.5484990  18.7909997  25.8029992 125.2244990  17.5709997
  25.2470483 125.2177496  18.2403407  30.5019992 126.3894990  17.9969997
  30.2339992 126.5704990  18.8969997  30.2959992 125.4644990  17.8649997
  30.4373443 126.2891873  18.1026643  33.1989992 124.8844990  32.9439997
  33.9439992 125.4734990  32.8249997  32.4409992 125.4664990  33.0069997
  33.1985289 125.0437067  32.9362292  26.2989992 123.3154990  20.5669997
  25.8399992 122.8314990  21.2519997  26.5539992 122.6464990  19.9309997
  26.2705997 123.1588491  20.5748734  27.3699992 121.5584990  18.8289997
  27.1899992 121.4034990  17.9019997  28.3199992 121.6664990  18.8739997
  27.4737804 121.5518821  18.7081966  36.7599992 123.9124990  18.2749997
  36.4869992 123.4884990  17.4619997  36.7999992 124.8444990  18.0579997
  36.7280201 123.9803523  18.1343548 118.9279992  53.5744990  92.1379997
 118.9359992  53.4384990  91.1899997 118.0119992  53.4574990  92.3899997
 118.8052512  53.5400663  92.0423179  25.9279992 118.5634990  34.0049997
  26.0779992 117.8344990  33.4029997  25.9299992 119.3404990  33.4459997
  25.9487967 118.5687720  33.8470523  26.3399992 116.9324990  31.4979997
  26.8759992 117.3844990  30.8459997  25.4879992 116.8244990  31.0749997
  26.2981795 116.9797444  31.3516211  27.9219992 122.3724990  31.7369997
  28.6729992 122.2164990  31.1639997  27.5829992 123.2244990  31.4619997
  27.9789587 122.4663149  31.6214060  33.6539992 122.9764990  34.8429997
  33.3729992 123.6854990  34.2649997  34.5969992 122.9034990  34.6919997
  33.7429272 123.0636704  34.7434976  27.1459992 114.3894990  31.9289997
  27.0479992 115.3354990  31.8239997  26.4029992 114.0164990  31.4529997
  27.0322123 114.4686811  31.8503204  27.3679992 113.6834990  34.5999997
  28.0789992 113.0434990  34.5859997  27.2669992 113.9494990  33.6869997
  27.4516858 113.6318591  34.4745501  27.2679992 132.2484990  19.8299997
  28.2009992 132.4064990  19.9739997  27.0029992 132.9244990  19.2049997
  27.3599846 132.3614567  19.7652930  20.8359992 126.8854990  19.3129997
  21.7499992 126.9644990  19.5859997  20.8429992 126.1984990  18.6469997
  20.9620624 126.8034074  19.2603045  19.4849992 132.2784990  24.3899997
  18.8379992 131.8164990  23.8579997  19.8399992 131.6064990  24.9729997
  19.4443741 132.1244785  24.3959157  20.3549992 130.3584990  26.1949997
  20.0209992 129.4784990  26.3669997  20.5769992 130.7044990  27.0599997
  20.3392565 130.2847410  26.3354263 130.3659992  38.6174990  78.6389997
 129.4659992  38.7554990  78.9339997 130.6179992  39.4484990  78.2369997
 130.2767355  38.7488200  78.6250539  37.9039992 131.1684990  29.1759997
  37.8819992 131.3534990  30.1139997  38.5939992 131.7364990  28.8349997
  37.9943383 131.2707104  29.2584580  37.4669992 130.7354990  32.0969997
  36.9799992 129.9994990  31.7259997  38.0159992 130.3414990  32.7749997
  37.4746101 130.5816267  32.1379034  37.2189992 124.7814990  22.2499997
  38.0689992 125.2024990  22.3769997  37.2239992 124.0414990  22.8569997
  37.3361143 124.7391106  22.3494732  37.6129992 122.8354990  24.0729997
  36.8869992 122.3554990  24.4709997  38.1939992 123.0404990  24.8049997
  37.5922504 122.7975592  24.2264199  37.3719992 125.6204990  29.0209997
  38.2059992 125.2424990  28.7399997  37.4839992 126.5634990  28.9019997
  37.5011917 125.6962954  28.9664844  35.8579992 128.4984990  31.3279997
  35.2109992 128.8234990  31.9529997  35.3409992 128.0574990  30.6539997
  35.6994112 128.4834133  31.3225272  37.8809992 122.7364990  20.4639997
  37.3599992 123.0924990  19.7459997  37.8479992 123.4114990  21.1429997
  37.8050955 122.8765023  20.4572634  36.2299992 119.9754990  19.0149997
  36.3269992 120.6424990  18.3349997  36.0899992 119.1604990  18.5339997
  36.2243407 119.9565670  18.8568312  35.3999992 121.3564990  24.6359997
  35.2499992 120.4114990  24.6159997  35.0459992 121.6374990  25.4799997
  35.3316351 121.2651656  24.7473202  20.4349992 123.4344990  28.6469997
  20.6189992 123.3524990  27.7109997  21.2839992 123.3104990  29.0699997
  20.5750132 123.4065066  28.5761460 118.4319992  47.4044990  80.6129997
 118.1399992  48.1724990  80.1219997 117.7579992  46.7454990  80.4499997
 118.3008843  47.4204537  80.5237695  36.2559992 123.3264990  34.2749997
  36.8389992 122.5914990  34.4669997  36.8199992 124.0984990  34.3219997
  36.4119781 123.3303156  34.3076146  35.4779992 117.3834990  18.1329997
  36.0879992 117.0124990  18.7699997  34.6409992 116.9624990  18.3289997
  35.4483704 117.2757942  18.2467077  35.1099992 118.9384990  23.0989997
  35.3899992 118.0314990  23.2229997  35.8689992 119.3724990  22.7099997
  35.2509258 118.8730935  23.0633691  35.7219992 119.5204990  28.5349997
  36.6549992 119.7324990  28.4999997  35.4869992 119.6214990  29.4569997
  35.8179517 119.5631844  28.6549113  35.7509992 120.2574990  31.3109997
  34.9079992 120.5254990  31.6759997  36.1939992 121.0794990  31.0999997
  35.6954035 120.4053351  31.3324770  35.7239992 116.2014990  23.1469997
  35.9059992 115.7524990  23.9719997  35.1239992 115.6174990  22.6829997
  35.6678187 116.0610563  23.1972721  21.2539992 117.0174990  27.6789997
  21.6989992 116.2254990  27.9809997  21.7199992 117.7334990  28.1089997
  21.3779718 117.0059546  27.7785247  19.5579992 120.0164990  28.7479997
  20.0499992 119.7954990  27.9569997  19.9199992 120.8564990  29.0289997
  19.6742923 120.0998480  28.6777389  37.5539992 116.3464990  35.0129997
  36.6369992 116.6174990  34.9769997  37.6769992 115.8114990  34.2289997
  37.4450828 116.3112711  34.9020767  37.5899992 116.2694990  19.6749997
  38.0029992 115.5484990  19.1999997  38.2719992 116.9384990  19.7329997
  37.7386060 116.2613741  19.6179233 114.5249992  49.7674990  89.4279997
 114.0239992  49.7394990  88.6129997 114.5309992  48.8624990  89.7379997
 114.4571690  49.6412234  89.3582770  19.8709992 116.2744990  22.8019997
  18.9459992 116.4824990  22.6729997  20.3249992 116.7584990  22.1119997
  19.8056298 116.3684311  22.6910433  34.6419992 131.2584990  24.7479997
  35.2939992 130.9104990  24.1399997  35.1529992 131.7464990  25.3939997
  34.8002872 131.2768248  24.7520964  19.8349992 115.0124990  31.1459997
  19.1699992 114.7664990  31.7889997  19.3919992 115.6344990  30.5689997
  19.6841168 115.0629225  31.1559830  24.9809992 129.1614990  31.5489997
  24.5559992 129.9714990  31.2669997  25.8849992 129.2474990  31.2469997
  25.0450706 129.2839557  31.4695836  29.2919992 130.5604990  34.5089997
  29.4769992 130.2274990  35.3869997  30.1389992 130.8704990  34.1869997
  29.4317291 130.5568214  34.5856140  31.6369992 131.8464990  33.7529997
  32.3139992 131.2134990  33.5129997  31.9589992 132.2474990  34.5599997
  31.7731618 131.8141147  33.8292802  36.5549992 114.4364990  32.8319997
  35.7419992 114.7614990  32.4449997  36.7879992 113.6754990  32.2989997
  36.4751347 114.3781891  32.7069824  22.3829992 132.4184990  31.5969997
  21.6619992 132.8584990  31.1459997  22.0169992 132.1674990  32.4449997
  22.2349632 132.4447235  31.6499649  24.8499992 132.0184990  30.6259997
  23.9849992 132.0904990  31.0299997  24.7949992 132.5654990  29.8429997
  24.7242289 132.1023242  30.5753749  29.5609992 131.9064990  29.8019997
  29.1039992 132.4354990  29.1479997  29.7229992 132.5094990  30.5269997
  29.5203919 132.0603990  29.8105740 114.2759992  52.5484990  86.3119997
 115.2219992  52.4034990  86.2929997 114.1629992  53.3324990  86.8489997
 114.3903578  52.6346708  86.3820300  31.8879992 130.7844990  30.7469997
  30.9839992 130.9494990  30.4809997  32.3169992 131.6374990  30.6809997
  31.8222017 130.9224184  30.7016495  34.4919992 132.3544990  31.0419997
  34.3109992 133.2704990  30.8309997  34.6689992 131.9434990  30.1949997
  34.4911377 132.4243365  30.8987178  21.7979992 131.0414990  28.5069997
  21.7789992 130.6154990  29.3639997  22.6019992 130.7224990  28.0979997
  21.9041393 130.9400297  28.5690155  23.9389992 129.7514990  27.1619997
  23.7199992 128.8344990  27.3319997  24.7629992 129.8914990  27.6279997
  24.0204702 129.6450523  27.2482510  26.4759992 130.2214990  28.0109997
  26.6889992 129.3334990  27.7239997  26.5409992 130.1864990  28.9649997
  26.5139149 130.0953338  28.1007351  29.9849992 115.8854990  27.1549997
  29.3099992 115.2554990  27.4109997  30.5489992 115.4014990  26.5519997
  29.9689363 115.7338886  27.1084810  35.1269992 113.9924990  27.2679997
  35.7309992 114.5404990  26.7659997  34.2579992 114.3114990  27.0269997
  35.0920419 114.1105628  27.1667741  36.8539992 115.1314990  25.6009997
  37.4659992 114.6174990  25.0739997  37.2369992 116.0084990  25.6239997
  36.9893867 115.1797613  25.5320888  22.3109992 114.5194990  24.9769997
  21.5339992 114.2844990  24.4699997  22.8419992 113.7224990  24.9859997
  22.2763735 114.3796462  24.9088090  21.1479992 114.3174990  20.7809997
  21.5869992 114.9284990  20.1889997  20.5139992 114.8554990  21.2549997
  21.1223859 114.4739076  20.7640287 132.4729992  53.2144990  91.9939997
 132.4239992  52.2584990  91.9569997 131.6469992  53.4814990  92.3959997
 132.3545767  53.1198841  92.0433133  26.8909992 114.4454990  24.7899997
  27.7649992 114.8344990  24.7609997  26.7549992 114.2304990  25.7129997
  26.9921953 114.4696654  24.9107599  32.4469992 114.4754990  26.4399997
  32.5239992 114.5714990  25.4899997  32.1719992 113.5684990  26.5679997
  32.4203233 114.3659093  26.3273665  33.8009992 114.5014990  22.1319997
  33.0979992 115.1164990  21.9219997  33.3559992 113.6644990  22.2629997
  33.6446550 114.4724679  22.1209819  21.0489992 130.2654990  21.6779997
  20.3639992 130.2274990  21.0109997  21.0519992 131.1774990  21.9659997
  20.9556806 130.3836669  21.6256961  23.0089992 116.2334990  19.2229997
  23.4999992 115.6034990  18.6959997  23.6319992 116.5294990  19.8859997
  23.1605304 116.1872387  19.2404922  28.0349992 116.5264990  21.6799997
  28.2129992 115.8794990  22.3629997  27.9809992 117.3604990  22.1469997
  28.0520678 116.5506615  21.8366283  29.9129992 131.4744990  20.0759997
  30.7789992 131.8414990  19.8979997  29.6659992 131.0354990  19.2619997
  29.9981853 131.4654021  19.9415813  36.6219992 131.0374990  22.7549997
  36.4279992 130.2894990  22.1899997  36.5829992 131.7954990  22.1719997
  36.5901645 131.0375797  22.5988131  22.8669992 131.1854990  18.7029997
  22.5989992 131.4714990  19.5769997  23.6379992 130.6394990  18.8559997
  22.9345926 131.1507790  18.8431188  35.8399992 129.7884990  34.9049997
  35.0579992 129.6024990  34.3849997  35.7679992 130.7184990  35.1219997
  35.7232975 129.8886973  34.8631822 123.4519992  52.7884990  90.8699997
 123.5389992  53.6144990  91.3449997 122.5879992  52.4584990  91.1189997
 123.3471944  52.8569871  90.9686558  50.2459992 123.6754990  24.9359997
  50.3349992 124.6194990  24.8029997  49.6069992 123.4004990  24.2779997
  50.1718378 123.7673846  24.8289258  49.1789992 122.9304990  28.3549997
  49.1399992 122.2844990  29.0599997  48.8559992 122.4634990  27.5829997
  49.1300469 122.7790005  28.3472803  41.5469992 122.5444990  29.9479997
  41.5879992 121.9194990  30.6709997  42.2499992 123.1684990  30.1299997
  41.6476223 122.5432318  30.0716164  52.8849992 125.8694990  26.6559997
  52.4439992 125.1494990  27.1069997  52.8719992 126.5904990  27.2859997
  52.8229215 125.8684303  26.8028088  42.4709992 126.9944990  28.4829997
  42.1009992 126.1924990  28.1129997  43.4119992 126.8264990  28.5289997
  42.5475984 126.8619649  28.4385586  39.0809992 120.6544990  23.8749997
  38.6329992 121.5004990  23.8569997  38.5199992 120.0754990  23.3599997
  38.9438546 120.6919004  23.8028874  39.7909992 122.8164990  26.0009997
  40.0049992 122.0464990  26.5279997  40.5289992 122.9064990  25.3979997
  39.9200073 122.7233546  25.9915786  49.9959992 130.9734990  26.8679997
  50.6159992 130.2974990  26.5949997  49.7879992 130.7554990  27.7769997
  50.0527679 130.8515032  26.9534518  47.5679992 125.3624990  28.7609997
  47.8719992 124.6764990  28.1659997  48.2899992 125.4814990  29.3789997
  47.7071240 125.2847325  28.7630941  56.2309992 116.9644990  29.6209997
  56.2799992 117.5744990  30.3569997  56.6569992 117.4254990  28.8979997
  56.2952851 117.1103266  29.6240532 123.8659992  56.5604990  80.6759997
 123.7909992  56.4394990  79.7299997 123.8989992  57.5094990  80.7949997
 123.8601862  56.6722492  80.5624840  50.7089992 119.7564990  29.0879997
  50.8509992 118.8104990  29.1079997  50.6029992 119.9634990  28.1599997
  50.7141051 119.6549706  28.9652249  43.8639992 117.8584990  26.3609997
  43.9069992 118.7184990  25.9419997  43.4059992 117.3054990  25.7269997
  43.8080163 117.9014174  26.2180604  51.5859992 117.9894990  24.7609997
  52.2319992 117.6604990  25.3859997  52.0959992 118.5064990  24.1389997
  51.7434289 118.0144333  24.7623681  40.4839992 120.2554990  27.1229997
  41.1379992 119.7054990  27.5549997  40.5079992 119.9814990  26.2059997
  40.5767199 120.1432178  27.0581650  45.6399992 121.8054990  26.3379997
  46.2559992 121.2784990  26.8469997  45.0539992 121.1654990  25.9339997
  45.6450652 121.6468919  26.3530277  56.6229992 118.4424990  31.8569997
  55.9339992 119.1004990  31.7619997  56.6379992 118.2444990  32.7939997
  56.5307756 118.5057614  31.9705795  42.6739992 116.7764990  30.4349997
  42.4549992 117.3064990  29.6679997  42.0059992 117.0024990  31.0819997
  42.5536975 116.8795979  30.4175123  50.0429992 126.2764990  23.9789997
  49.7469992 125.9534990  23.1269997  49.7189992 127.1764990  24.0199997
  49.9587458 126.3539678  23.8680598  53.3499992 117.2804990  26.7419997
  53.1349992 116.5144990  27.2749997  54.0059992 117.7524990  27.2549997
  53.4092673 117.2395739  26.8841972  42.2679992 118.6684990  28.3869997
  42.8809992 119.3014990  28.7599997  42.7799992 118.1964990  27.7309997
  42.4211933 118.6913380  28.3493477 117.5199992  55.3494990  82.4569997
 117.6719992  55.0014990  83.3359997 116.6689992  54.9924990  82.2019997
 117.4257899  55.2536749  82.5427322  43.6499992 126.4164990  31.5089997
  43.6449992 127.2954990  31.1309997  42.7969992 126.3324990  31.9339997
  43.5339199 126.5255901  31.5146942  39.7719992 126.0874990  22.2909997
  39.4999992 126.3164990  21.4019997  39.8169992 126.9244990  22.7519997
  39.7408360 126.2321034  22.2316186  53.3969992 127.7084990  29.0039997
  52.4549992 127.7674990  29.1659997  53.6729992 128.6144990  28.8669997
  53.3055865 127.8390299  29.0076174  53.6969992 115.9954990  30.4209997
  52.9609992 116.6054990  30.3839997  54.3809992 116.4104990  29.8949997
  53.6885367 116.1352562  30.3448156  46.6999992 114.0814990  27.8869997
  46.5829992 113.1334990  27.8329997  45.8449992 114.4144990  28.1599997
  46.5683691 113.9965842  27.9165072  51.6489992 129.4894990  25.6289997
  52.0739992 128.7824990  25.1439997  51.9659992 130.2914990  25.2119997
  51.7500266 129.5010201  25.5062461  52.8079992 127.3904990  24.1379997
  52.5509992 126.7004990  23.5259997  52.8789992 126.9474990  24.9829997
  52.7824322 127.2361568  24.1685372  48.9669992 122.9194990  22.3879997
  48.2549992 123.4544990  22.0359997  49.6579992 122.9744990  21.7279997
  48.9629704 123.0001663  22.2505797  49.0209992 121.3764990  19.4259997
  49.7219992 121.3994990  20.0779997  49.3229992 120.7484990  18.7699997
  49.1578202 121.2947223  19.4265591  56.3359992 122.2974990  30.6809997
  55.6839992 122.9914990  30.7699997  56.8009992 122.5074990  29.8709997
  56.3095357 122.4209544  30.5837056 126.6369992  55.6404990  80.4279997
 125.7019992  55.7404990  80.6069997 126.9169992  54.9304990  81.0059997
 126.5469270  55.5582300  80.5305984  52.3729992 123.1284990  23.3389997
  51.6409992 123.3574990  23.9119997  52.8199992 122.4154990  23.7939997
  52.3332753 123.0633984  23.4789698  52.2699992 121.3034990  32.4069997
  52.3499992 122.0664990  32.9789997  51.6689992 121.5824990  31.7169997
  52.1996547 121.4457468  32.3920029  44.0179992 123.7594990  25.2219997
  43.6879992 123.3884990  24.4039997  44.6059992 123.0884990  25.5689997
  44.0523182 123.6180648  25.1569898  45.3849992 127.1874990  27.9029997
  45.2899992 126.6084990  27.1469997  46.1139992 126.8164990  28.3989997
  45.4706011 127.0580572  27.8666011  44.3849992 122.5274990  28.8549997
  44.9499992 122.6494990  28.0929997  44.7029992 123.1654990  29.4939997
  44.5053619 122.6304388  28.8370019  50.6939992 128.0314990  29.5889997
  50.4529992 128.6934990  30.2369997  50.4959992 127.1964990  30.0139997
  50.6342662 128.0092704  29.7351008  51.2439992 122.2914990  21.0249997
  51.8229992 122.4414990  21.7709997  51.6579992 122.7614990  20.3009997
  51.3793358 122.3755966  21.0293935  42.1849992 123.1254990  32.8009997
  42.2549992 123.7764990  33.4999997  41.2939992 123.2284990  32.4659997
  42.0741690 123.2284261  32.8513026  48.9699992 129.0274990  24.4599997
  49.4439992 129.3234990  25.2369997  48.4069992 129.7664990  24.2269997
  48.9587890 129.1678047  24.5348084  43.5039992 128.9984990  34.3359997
  43.5119992 128.8624990  33.3889997  42.5879992 128.8814990  34.5879997
  43.3812528 128.9640475  34.2403226 129.6249992  44.7074990  92.4739997
 129.2179992  45.1874990  91.7539997 129.6659992  43.8014990  92.1669997
 129.5747178  44.6508609  92.3337441  54.9419992 114.0414990  20.8369997
  54.0419992 114.1794990  21.1329997  55.1939992 114.8724990  20.4359997
  54.8527727 114.1728705  20.8232935  43.0079992 122.8284990  22.8109997
  42.7159992 123.5964990  22.3199997  42.3339992 122.1694990  22.6479997
  42.8768843 122.8444537  22.7217695  56.1319992 128.4074990  19.2139997
  56.2049992 129.3464990  19.3839997  57.0369992 128.1024990  19.1579997
  56.2644170 128.4948294  19.2297045  39.1009992 125.1914990  31.6259997
  38.5999992 125.1634990  30.8109997  39.1069992 124.2864990  31.9359997
  39.0331690 125.0652234  31.5562770  38.8519992 127.9724990  28.5099997
  39.7979992 127.8274990  28.4909997  38.7389992 128.7564990  29.0469997
  38.9663578 128.0586708  28.5800300  48.0279992 128.2124990  33.0689997
  48.1149992 129.0384990  33.5439997  47.1639992 127.8824990  33.3179997
  47.9231944 128.2809871  33.1676558  48.4419992 131.9844990  22.8749997
  48.3669992 131.8634990  21.9279997  48.4749992 132.9334990  22.9929997
  48.4362083 132.0962639  22.7614973  42.0959992 130.7734990  24.6559997
  42.2479992 130.4254990  25.5339997  41.2449992 130.4164990  24.3999997
  42.0018344 130.6775891  24.7416851  51.5439992 131.1384990  19.8769997
  51.9189992 130.3944990  19.4059997  51.5479992 130.8684990  20.7949997
  51.5958969 131.0000920  19.9366475  51.2129992 131.0644990  22.6259997
  50.2779992 131.1644990  22.8049997  51.4929992 130.3544990  23.2049997
  51.1229471 130.9822944  22.7286678 116.7739992  51.0914990  90.4709997
 116.9899992  50.7294990  91.3309997 115.9189992  50.7164990  90.2609997
 116.6879349  50.9912914  90.5602134  41.3499992 126.5154990  32.6689997
  41.5659992 126.1534990  33.5289997  40.4949992 126.1404990  32.4599997
  41.2639082 126.4153377  32.7582396  43.9689992 114.9854990  28.6649997
  43.1069992 114.8984990  28.2569997  43.9469992 115.8414990  29.0929997
  43.8480557 115.0893078  28.6670202  48.6319992 114.7074990  32.0399997
  49.0519992 114.2924990  32.7929997  47.6989992 114.5284990  32.1569997
  48.5633736 114.6264921  32.1588950  51.9579992 118.4624990  32.8929997
  51.4439992 118.3374990  33.6909997  51.8029992 119.3754990  32.6489997
  51.8667802 118.5687433  32.9691504  52.7209992 123.3234990  18.6539997
  52.7629992 123.1014990  17.7239997  53.5699992 123.7224990  18.8439997
  52.8415253 123.3470510  18.5523804  48.2939992 117.1994990  19.3249997
  48.0399992 117.2184990  20.2469997  48.0369992 116.3284990  19.0229997
  48.2244508 117.0843292  19.4104786  44.0599992 119.9504990  29.7599997
  43.4179992 119.9104990  30.4689997  44.0969992 120.8774990  29.5219997
  43.9771659 120.0702540  29.8248463  44.0569992 120.1714990  24.6719997
  43.1639992 119.8314990  24.6129997  44.5079992 119.7944990  23.9159997
  43.9957185 120.0740220  24.5617698  49.5929992 120.5874990  23.4889997
  49.1839992 121.4024990  23.1969997  50.3129992 120.4474990  22.8749997
  49.6344439 120.6800383  23.3660098  48.6949992 120.7634990  34.9769997
  48.1319992 120.0584990  35.2979997  49.5209992 120.6424990  35.4449997
  48.7296674 120.6507176  35.0841734 119.3929992  39.5614990  86.4669997
 118.5309992  39.4744990  86.0589997 119.3709992  40.4174990  86.8939997
 119.2720953  39.6653558  86.4689262  50.5969992 120.0334990  26.3029997
  50.4019992 120.6394990  25.5879997  50.7789992 119.2004990  25.8689997
  50.5949195 120.0037936  26.1464079  41.8099992 120.2714990  31.6269997
  41.7719992 120.6714990  32.4959997  41.3189992 119.4544990  31.7169997
  41.7384373 120.2158228  31.7580980  45.1759992 117.6454990  18.4259997
  44.7449992 117.2004990  19.1549997  44.4579992 118.0164990  17.9129997
  45.0199176 117.6347063  18.4564913  38.4179992 117.3874990  25.4779997
  39.0489992 117.3584990  26.1969997  38.8679992 116.9624990  24.7469997
  38.5651082 117.3261269  25.4776307  39.6919992 118.1334990  20.9019997
  40.1669992 118.7244990  20.3169997  38.9749992 118.6634990  21.2489997
  39.6600406 118.2861011  20.8688495  49.8609992 121.6714990  30.9739997
  50.1849992 121.0404990  30.3309997  49.4209992 121.1374990  31.6349997
  49.8458707 121.5128261  30.9753195  46.6389992 117.5994990  25.7579997
  45.7279992 117.6564990  26.0469997  47.1439992 117.5394990  26.5689997
  46.5826873 117.5991838  25.9071190  41.4669992 119.2284990  24.5849997
  40.5779992 119.3274990  24.2449997  41.7629992 118.3864990  24.2389997
  41.3854001 119.1282473  24.4917318  45.1199992 119.2284990  22.2419997
  46.0519992 119.3574990  22.4199997  44.9049992 119.8974990  21.5919997
  45.2184472 119.3365817  22.1784873  51.0439992 116.8344990  29.0219997
  50.3669992 116.9654990  29.6859997  50.5579992 116.6794990  28.2119997
  50.8857265 116.8314665  29.0033380 124.0559992  39.2834990  89.8409997
 124.4759992  38.8684990  90.5939997 123.1229992  39.1044990  89.9579997
 123.9873736  39.2024921  89.9598950  43.7939992 120.4224990  19.8079997
  43.2519992 120.0434990  19.1169997  44.6279992 120.6174990  19.3799997
  43.8324390 120.3969091  19.6554374  54.3309992 132.5054990  35.2989997
  54.5309992 132.9294990  34.4649997  54.9869992 132.8494990  35.9059997
  54.4469937 132.6099993  35.2668645  41.9289992 124.9794990  34.9069997
  42.6609992 125.2344990  35.4689997  41.1489992 125.1844990  35.4229997
  41.9236526 125.0420438  35.0535168  47.9589992 120.3864990  27.6449997
  48.5229992 119.8404990  27.0979997  47.8109992 119.8654990  28.4339997
  48.0163037 120.2411798  27.6767212  42.9609992 116.5234990  24.0639997
  42.6429992 115.6204990  24.0279997  43.7419992 116.5254990  23.5109997
  43.0231079 116.4002240  23.9842908  46.5849992 118.7754990  30.0589997
  45.7499992 119.2294990  30.1699997  47.1089992 119.0514990  30.8109997
  46.5416072 118.8748960  30.1758118  47.1289992 124.9884990  21.7439997
  46.3839992 124.4804990  21.4219997  46.9949992 125.0374990  22.6899997
  47.0089334 124.9256144  21.8278892  54.2789992 124.1214990  30.5309997
  54.9209992 124.5774990  29.9869997  53.4489992 124.2344990  30.0679997
  54.2546536 124.1991813  30.3939579  51.0269992 117.8024990  19.9429997
  50.0879992 117.9134990  19.7919997  51.3239992 118.6584990  20.2499997
  50.9386136 117.9334977  19.9638568  51.7449992 119.6694990  21.6039997
  52.6369992 119.5314990  21.9229997  51.8019992 120.4604990  21.0669997
  51.8747380 119.7574777  21.5750981 127.3819992  43.0384990  90.6949997
 126.8679992  42.9134990  91.4919997 127.2269992  43.9514990  90.4499997
 127.2906643  43.1447068  90.7710624  42.2539992 124.2834990  27.5139997
  42.9989992 124.2804990  26.9119997  42.3319992 123.4594990  27.9949997
  42.3663365 124.1717395  27.4967412  49.2549992 126.4464990  20.7689997
  48.9599992 127.2734990  21.1509997  48.5519992 125.8274990  20.9659997
  49.1196379 126.4759182  20.8478636  50.8989992 127.6344990  32.9309997
  49.9979992 127.8174990  32.6639997  50.9329992 127.8934990  33.8519997
  50.7803861 127.6945245  33.0189517  56.6299992 119.8784990  21.2989997
  56.0759992 119.4824990  20.6259997  56.7309992 120.7894990  21.0209997
  56.5678589 119.9473904  21.1693839  54.9249992 128.6644990  21.7639997
  54.5529992 127.8394990  22.0729997  55.2029992 128.4814990  20.8659997
  54.9115807 128.5267031  21.6850063  52.0859992 123.4724990  28.7849997
  51.1579992 123.2414990  28.7579997  52.5369992 122.6954990  28.4549997
  52.0198165 123.3357785  28.7366772  44.6289992 127.8014990  24.9179997
  45.1559992 128.5744990  24.7179997  43.7489992 128.0254990  24.6159997
  44.5822121 127.9377344  24.8497460  40.3839992 122.6634990  19.5049997
  40.9999992 123.2904990  19.8849997  39.5219992 122.9794990  19.7769997
  40.3517678 122.7919423  19.5937192  46.0559992 125.4644990  24.4939997
  45.8149992 126.3894990  24.5359997  45.3159992 125.0054990  24.8909997
  45.9229463 125.5290969  24.5534279  46.5709992 129.6134990  30.8089997
  46.9339992 130.4674990  30.5759997  47.1029992 129.3214990  31.5499997
  46.6925141 129.6908907  30.8772079 123.7179992  41.7754990  77.1259997
 123.4639992  41.7944990  78.0489997 123.4609992  40.9044990  76.8249997
 123.6485133  41.6603121  77.2115065  44.7389992 130.4854990  24.0399997
  43.7899992 130.5914990  24.0909997  45.0909992 131.3064990  24.3839997
  44.6565647 130.6110029  24.0934882  50.1149992 125.7124990  30.5099997
  49.6889992 125.4844990  31.3359997  50.6959992 124.9734990  30.3279997
  50.1352088 125.5814393  30.5984454  52.3179992 126.6414990  19.5839997
  52.6709992 126.2614990  20.3879997  51.3689992 126.5474990  19.6709997
  52.2380956 126.5767867  19.7058005  52.7739992 130.2644990  32.9789997
  52.1719992 129.7084990  32.4839997  53.0549992 130.9314990  32.3529997
  52.7295757 130.2785755  32.8265657  56.8209992 131.1204990  19.7849997
  57.5649992 131.7064990  19.6449997  56.1269992 131.6894990  20.1179997
  56.8289809 131.2775830  19.8108572  40.8959992 117.4974990  32.3869997
  40.0029992 117.8354990  32.3189997  40.7969992 116.6414990  32.8049997
  40.7604752 117.4280986  32.4341644  53.1839992 125.3134990  21.8109997
  52.9069992 124.5854990  22.3669997  54.1109992 125.4324990  22.0159997
  53.2714419 125.2299436  21.9148264  40.5469992 129.3014990  30.8219997
  40.7639992 128.3694990  30.7909997  40.7939992 129.5764990  31.7049997
  40.6100948 129.2110976  30.9371268  46.4089992 127.7534990  18.0309997
  46.6479992 127.0044990  17.4839997  46.1399992 127.3654990  18.8639997
  46.4053233 127.5986865  18.0687791  45.3459992 127.3234990  20.4869997
  45.4929992 126.8034990  21.2769997  45.3429992 128.2304990  20.7939997
  45.3657102 127.3748964  20.6365907 119.4839992  44.5264990  87.5619997
 118.8419992  44.4864990  88.2709997 119.5209992  45.4534990  87.3239997
 119.4011659  44.6462540  87.6268463  41.7989992 124.5754990  20.9979997
  41.1129992 124.9284990  21.5649997  42.3219992 125.3384990  20.7509997
  41.7758402 124.7268912  21.0421783  49.6299992 117.2384990  31.2769997
  50.3289992 117.3124990  31.9269997  49.2499992 116.3734990  31.4309997
  49.6742662 117.1317050  31.3867412  50.4149992 116.8904990  22.3739997
  50.6349992 117.3614990  21.5699997  50.9729992 117.2844990  23.0439997
  50.5206044 117.0082946  22.3545207  48.0839992 129.0204990  21.2369997
  47.2669992 129.5174990  21.2889997  48.6129992 129.4964990  20.5959997
  48.0438125 129.1527000  21.1575289  47.6149992 118.6184990  23.2089997
  48.4269992 119.1224990  23.2549997  47.3699992 118.4734990  24.1229997
  47.6931091 118.6679366  23.3388552  48.1509992 119.6044990  32.3929997
  48.2699992 120.1784990  33.1499997  48.8059992 118.9164990  32.5079997
  48.2558684 119.5900205  32.5121656  48.4989992 115.6994990  24.1469997
  48.1519992 116.3164990  24.7909997  49.1569992 116.2004990  23.6649997
  48.5404430 115.8516860  24.1700046  45.4219992 130.0644990  21.2179997
  45.5829992 130.8644990  20.7179997  45.2249992 130.3714990  22.1029997
  45.4173906 130.2153690  21.2692316  44.1559992 116.7624990  20.8339997
  44.0729992 117.6504990  21.1809997  45.0459992 116.4974990  21.0659997
  44.2649331 116.8481177  20.9128067  54.3549992 117.5114990  33.2279997
  53.4389992 117.7734990  33.1409997  54.6909992 117.5084990  32.3319997
  54.2748499 117.5470174  33.0948748 119.4809992  44.7474990  82.4739997
 118.5879992  44.4074990  82.4149997 119.9319992  44.3704990  81.7179997
 119.4197185  44.6500220  82.3637698  52.9569992 121.2614990  27.3239997
  52.1599992 120.8464990  26.9959997  53.4019992 120.5714990  27.8149997
  52.9080367 121.1113372  27.3454897  42.4149992 127.1894990  19.8939997
  43.0069992 127.8894990  20.1709997  42.8739992 126.7564990  19.1749997
  42.5581652 127.2267686  19.8346515  40.7309992 119.8544990  19.0099997
  40.6859992 120.7934990  19.1889997  39.8429992 119.6184990  18.7409997
  40.6048166 119.9511698  18.9981507  54.0439992 130.5174990  28.9459997
  53.8879992 131.1964990  28.2889997  54.9759992 130.5894990  29.1489997
  54.1487328 130.6201586  28.8835529  41.5389992 114.6354990  27.6829997
  41.3099992 114.6944990  26.7559997  41.0959992 113.8444990  27.9899997
  41.4477387 114.5366412  27.5975223  40.4689992 128.5764990  23.8439997
  39.6369992 129.0484990  23.8709997  41.0149992 129.0864990  23.2449997
  40.4288710 128.7100317  23.7667570  48.4469992 129.6164990  18.1689997
  47.8029992 128.9854990  18.4909997  49.2089992 129.0854990  17.9379997
  48.4618708 129.4583171  18.1818461  53.0509992 129.4334990  18.4029997
  53.3339992 128.6384990  18.8559997  53.7909992 129.6664990  17.8419997
  53.1897295 129.3562349  18.3891469  44.0059992 125.3424990  18.2609997
  44.0699992 124.5484990  18.7909997  44.6589992 125.2244990  17.5709997
  44.1030483 125.2177496  18.2403407  49.3579992 126.3894990  17.9969997
  49.0899992 126.5704990  18.8969997  49.1519992 125.4644990  17.8649997
  49.2933443 126.2891873  18.1026643 125.0169992  45.1634990  81.2909997
 124.6079992  45.9784990  80.9989997 125.7369992  45.0234990  80.6759997
 125.0583946  45.2559963  81.1679616  45.1549992 123.3154990  20.5669997
  44.6959992 122.8314990  21.2519997  45.4099992 122.6464990  19.9309997
  45.1265997 123.1588491  20.5748734  44.4439992 121.2084990  32.9229997
  43.8259992 121.8824990  33.2029997  44.7879992 121.5294990  32.0889997
  44.4058078 121.3442298  32.8486609  46.2259992 121.5584990  18.8289997
  46.0459992 121.4034990  17.9019997  47.1759992 121.6664990  18.8739997
  46.3297804 121.5518821  18.7081966  55.6159992 123.9124990  18.2749997
  55.3429992 123.4884990  17.4619997  55.6559992 124.8444990  18.0579997
  55.5840201 123.9803523  18.1343548  45.1959992 116.9324990  31.4979997
  45.7319992 117.3844990  30.8459997  44.3439992 116.8244990  31.0749997
  45.1541795 116.9797444  31.3516211  46.7779992 122.3724990  31.7369997
  47.5289992 122.2164990  31.1639997  46.4389992 123.2244990  31.4619997
  46.8349587 122.4663149  31.6214060  46.0019992 114.3894990  31.9289997
  45.9039992 115.3354990  31.8239997  45.2589992 114.0164990  31.4529997
  45.8882123 114.4686811  31.8503204  47.2659992 118.7104990  35.4929997
  47.0299992 118.4914990  36.3939997  46.4829992 118.5034990  34.9829997
  47.1278382 118.6525340  35.5473991  49.9819992 117.8384990  34.5679997
  49.0339992 117.8704990  34.6999997  50.2939992 117.2124990  35.2219997
  49.8945293 117.7582934  34.6744130  46.1239992 132.2484990  19.8299997
  47.0569992 132.4064990  19.9739997  45.8589992 132.9244990  19.2049997
  46.2159846 132.3614567  19.7652930 124.1189992  45.3394990  92.7789997
 123.5559992  44.6344990  93.0989997 124.9449992  45.2184990  93.2459997
 124.1536423  45.2265614  92.8860168  39.6919992 126.8854990  19.3129997
  40.6059992 126.9644990  19.5859997  39.6989992 126.1984990  18.6469997
  39.8180624 126.8034074  19.2603045  38.3409992 132.2784990  24.3899997
  37.6939992 131.8164990  23.8579997  38.6959992 131.6064990  24.9729997
  38.3003741 132.1244785  24.3959157  39.2109992 130.3584990  26.1949997
  38.8769992 129.4784990  26.3669997  39.4329992 130.7044990  27.0599997
  39.1952565 130.2847410  26.3354263  56.7599992 131.1684990  29.1759997
  56.7379992 131.3534990  30.1139997  57.4499992 131.7364990  28.8349997
  56.8503383 131.2707104  29.2584580  56.3229992 130.7354990  32.0969997
  55.8359992 129.9994990  31.7259997  56.8719992 130.3414990  32.7749997
  56.3306101 130.5816267  32.1379034  56.0749992 124.7814990  22.2499997
  56.9249992 125.2024990  22.3769997  56.0799992 124.0414990  22.8569997
  56.1921143 124.7391106  22.3494732  56.4689992 122.8354990  24.0729997
  55.7429992 122.3554990  24.4709997  57.0499992 123.0404990  24.8049997
  56.4482504 122.7975592  24.2264199  56.2279992 125.6204990  29.0209997
  57.0619992 125.2424990  28.7399997  56.3399992 126.5634990  28.9019997
  56.3571917 125.6962954  28.9664844  54.7139992 128.4984990  31.3279997
  54.0669992 128.8234990  31.9529997  54.1969992 128.0574990  30.6539997
  54.5554112 128.4834133  31.3225272  56.7369992 122.7364990  20.4639997
  56.2159992 123.0924990  19.7459997  56.7039992 123.4114990  21.1429997
  56.6610955 122.8765023  20.4572634 126.0209992  44.6094990  84.1049997
 125.8259992  45.2154990  83.3899997 126.2029992  43.7764990  83.6699997
 126.0189272  44.5797955  83.9484075  55.0859992 119.9754990  19.0149997
  55.1829992 120.6424990  18.3349997  54.9459992 119.1604990  18.5339997
  55.0803407 119.9565670  18.8568312  54.2559992 121.3564990  24.6359997
  54.1059992 120.4114990  24.6159997  53.9019992 121.6374990  25.4799997
  54.1876351 121.2651656  24.7473202  39.2909992 123.4344990  28.6469997
  39.4749992 123.3524990  27.7109997  40.1399992 123.3104990  29.0699997
  39.4310132 123.4065066  28.5761460  54.3339992 117.3834990  18.1329997
  54.9439992 117.0124990  18.7699997  53.4969992 116.9624990  18.3289997
  54.3043704 117.2757942  18.2467077  53.9659992 118.9384990  23.0989997
  54.2459992 118.0314990  23.2229997  54.7249992 119.3724990  22.7099997
  54.1069258 118.8730935  23.0633691  54.5779992 119.5204990  28.5349997
  55.5109992 119.7324990  28.4999997  54.3429992 119.6214990  29.4569997
  54.6739517 119.5631844  28.6549113  54.6069992 120.2574990  31.3109997
  53.7639992 120.5254990  31.6759997  55.0499992 121.0794990  31.0999997
  54.5514035 120.4053351  31.3324770  54.5799992 116.2014990  23.1469997
  54.7619992 115.7524990  23.9719997  53.9799992 115.6174990  22.6829997
  54.5238187 116.0610563  23.1972721  40.1099992 117.0174990  27.6789997
  40.5549992 116.2254990  27.9809997  40.5759992 117.7334990  28.1089997
  40.2339718 117.0059546  27.7785247  38.4139992 120.0164990  28.7479997
  38.9059992 119.7954990  27.9569997  38.7759992 120.8564990  29.0289997
  38.5302923 120.0998480  28.6777389 117.2339992  44.8474990  89.4289997
 117.1959992  45.2474990  90.2969997 116.7429992  44.0304990  89.5189997
 117.1624246  44.7918842  89.5601171  56.4099992 116.3464990  35.0129997
  55.4929992 116.6174990  34.9769997  56.5329992 115.8114990  34.2289997
  56.3010828 116.3112711  34.9020767  56.4459992 116.2694990  19.6749997
  56.8589992 115.5484990  19.1999997  57.1279992 116.9384990  19.7329997
  56.5946060 116.2613741  19.6179233  38.7269992 116.2744990  22.8019997
  37.8019992 116.4824990  22.6729997  39.1809992 116.7584990  22.1119997
  38.6616298 116.3684311  22.6910433  53.4979992 131.2584990  24.7479997
  54.1499992 130.9104990  24.1399997  54.0089992 131.7464990  25.3939997
  53.6562872 131.2768248  24.7520964  38.6909992 115.0124990  31.1459997
  38.0259992 114.7664990  31.7889997  38.2479992 115.6344990  30.5689997
  38.5401168 115.0629225  31.1559830  43.8369992 129.1614990  31.5489997
  43.4119992 129.9714990  31.2669997  44.7409992 129.2474990  31.2469997
  43.9010706 129.2839557  31.4695836  50.4929992 131.8464990  33.7529997
  51.1699992 131.2134990  33.5129997  50.8149992 132.2474990  34.5599997
  50.6291618 131.8141147  33.8292802  55.4109992 114.4364990  32.8319997
  54.5979992 114.7614990  32.4449997  55.6439992 113.6754990  32.2989997
  55.3311347 114.3781891  32.7069824  41.2389992 132.4184990  31.5969997
  40.5179992 132.8584990  31.1459997  40.8729992 132.1674990  32.4449997
  41.0909632 132.4447235  31.6499649  43.7059992 132.0184990  30.6259997
  42.8409992 132.0904990  31.0299997  43.6509992 132.5654990  29.8429997
  43.5802289 132.1023242  30.5753749 113.8419992  41.9634990  83.2789997
 114.4729992  41.9344990  83.9989997 114.2919992  41.5384990  82.5489997
 113.9890905  41.9020839  83.2787479  48.4169992 131.9064990  29.8019997
  47.9599992 132.4354990  29.1479997  48.5789992 132.5094990  30.5269997
  48.3763919 132.0603990  29.8105740  50.7439992 130.7844990  30.7469997
  49.8399992 130.9494990  30.4809997  51.1729992 131.6374990  30.6809997
  50.6782017 130.9224184  30.7016495  53.3479992 132.3544990  31.0419997
  53.1669992 133.2704990  30.8309997  53.5249992 131.9434990  30.1949997
  53.3471377 132.4243365  30.8987178  40.6539992 131.0414990  28.5069997
  40.6349992 130.6154990  29.3639997  41.4579992 130.7224990  28.0979997
  40.7601393 130.9400297  28.5690155  42.7949992 129.7514990  27.1619997
  42.5759992 128.8344990  27.3319997  43.6189992 129.8914990  27.6279997
  42.8764702 129.6450523  27.2482510  45.3319992 130.2214990  28.0109997
  45.5449992 129.3334990  27.7239997  45.3969992 130.1864990  28.9649997
  45.3699149 130.0953338  28.1007351  48.8409992 115.8854990  27.1549997
  48.1659992 115.2554990  27.4109997  49.4049992 115.4014990  26.5519997
  48.8249363 115.7338886  27.1084810  53.9829992 113.9924990  27.2679997
  54.5869992 114.5404990  26.7659997  53.1139992 114.3114990  27.0269997
  53.9480419 114.1105628  27.1667741  55.7099992 115.1314990  25.6009997
  56.3219992 114.6174990  25.0739997  56.0929992 116.0084990  25.6239997
  55.8453867 115.1797613  25.5320888  41.1669992 114.5194990  24.9769997
  40.3899992 114.2844990  24.4699997  41.6979992 113.7224990  24.9859997
  41.1323735 114.3796462  24.9088090 115.1159992  42.7094990  78.7029997
 115.5909992  43.3004990  78.1179997 114.3989992  43.2394990  79.0499997
 115.0840406  42.8621011  78.6698495  40.0039992 114.3174990  20.7809997
  40.4429992 114.9284990  20.1889997  39.3699992 114.8554990  21.2549997
  39.9783859 114.4739076  20.7640287  45.7469992 114.4454990  24.7899997
  46.6209992 114.8344990  24.7609997  45.6109992 114.2304990  25.7129997
  45.8481953 114.4696654  24.9107599  51.3029992 114.4754990  26.4399997
  51.3799992 114.5714990  25.4899997  51.0279992 113.5684990  26.5679997
  51.2763233 114.3659093  26.3273665  52.6569992 114.5014990  22.1319997
  51.9539992 115.1164990  21.9219997  52.2119992 113.6644990  22.2629997
  52.5006550 114.4724679  22.1209819  39.9049992 130.2654990  21.6779997
  39.2199992 130.2274990  21.0109997  39.9079992 131.1774990  21.9659997
  39.8116806 130.3836669  21.6256961  41.8649992 116.2334990  19.2229997
  42.3559992 115.6034990  18.6959997  42.4879992 116.5294990  19.8859997
  42.0165304 116.1872387  19.2404922  46.8909992 116.5264990  21.6799997
  47.0689992 115.8794990  22.3629997  46.8369992 117.3604990  22.1469997
  46.9080678 116.5506615  21.8366283  48.7689992 131.4744990  20.0759997
  49.6349992 131.8414990  19.8979997  48.5219992 131.0354990  19.2619997
  48.8541853 131.4654021  19.9415813  55.4779992 131.0374990  22.7549997
  55.2839992 130.2894990  22.1899997  55.4389992 131.7954990  22.1719997
  55.4461645 131.0375797  22.5988131  41.1249992 115.0334990  34.4949997
  40.7589992 114.2674990  34.9369997  42.0379992 115.0624990  34.7809997
  41.1983172 114.9325335  34.5941872 125.2849992  46.2474990  88.7759997
 125.6089992  45.6164990  88.1329997 124.8449992  45.7134990  89.4369997
 125.2698707  46.0888261  88.7773195  41.7229992 131.1854990  18.7029997
  41.4549992 131.4714990  19.5769997  42.4939992 130.6394990  18.8559997
  41.7905926 131.1507790  18.8431188  54.6959992 129.7884990  34.9049997
  53.9139992 129.6024990  34.3849997  54.6239992 130.7184990  35.1219997
  54.5792975 129.8886973  34.8631822  69.1019992 123.6754990  24.9359997
  69.1909992 124.6194990  24.8029997  68.4629992 123.4004990  24.2779997
  69.0278378 123.7673846  24.8289258  68.0349992 122.9304990  28.3549997
  67.9959992 122.2844990  29.0599997  67.7119992 122.4634990  27.5829997
  67.9860469 122.7790005  28.3472803  60.4029992 122.5444990  29.9479997
  60.4439992 121.9194990  30.6709997  61.1059992 123.1684990  30.1299997
  60.5036223 122.5432318  30.0716164  71.7409992 125.8694990  26.6559997
  71.2999992 125.1494990  27.1069997  71.7279992 126.5904990  27.2859997
  71.6789215 125.8684303  26.8028088  61.3269992 126.9944990  28.4829997
  60.9569992 126.1924990  28.1129997  62.2679992 126.8264990  28.5289997
  61.4035984 126.8619649  28.4385586  57.9369992 120.6544990  23.8749997
  57.4889992 121.5004990  23.8569997  57.3759992 120.0754990  23.3599997
  57.7998546 120.6919004  23.8028874  58.6469992 122.8164990  26.0009997
  58.8609992 122.0464990  26.5279997  59.3849992 122.9064990  25.3979997
  58.7760073 122.7233546  25.9915786  68.8519992 130.9734990  26.8679997
  69.4719992 130.2974990  26.5949997  68.6439992 130.7554990  27.7769997
  68.9087679 130.8515032  26.9534518 122.0629992  42.1754990  83.5599997
 121.1519992  42.2324990  83.8489997 122.5679992  42.1154990  84.3709997
 122.0066873  42.1751838  83.7091190  66.4239992 125.3624990  28.7609997
  66.7279992 124.6764990  28.1659997  67.1459992 125.4814990  29.3789997
  66.5631240 125.2847325  28.7630941  75.0869992 116.9644990  29.6209997
  75.1359992 117.5744990  30.3569997  75.5129992 117.4254990  28.8979997
  75.1512851 117.1103266  29.6240532  69.5649992 119.7564990  29.0879997
  69.7069992 118.8104990  29.1079997  69.4589992 119.9634990  28.1599997
  69.5701051 119.6549706  28.9652249  62.7199992 117.8584990  26.3609997
  62.7629992 118.7184990  25.9419997  62.2619992 117.3054990  25.7269997
  62.6640163 117.9014174  26.2180604  70.4419992 117.9894990  24.7609997
  71.0879992 117.6604990  25.3859997  70.9519992 118.5064990  24.1389997
  70.5994289 118.0144333  24.7623681  59.3399992 120.2554990  27.1229997
  59.9939992 119.7054990  27.5549997  59.3639992 119.9814990  26.2059997
  59.4327199 120.1432178  27.0581650  64.4959992 121.8054990  26.3379997
  65.1119992 121.2784990  26.8469997  63.9099992 121.1654990  25.9339997
  64.5010652 121.6468919  26.3530277  75.4789992 118.4424990  31.8569997
  74.7899992 119.1004990  31.7619997  75.4939992 118.2444990  32.7939997
  75.3867756 118.5057614  31.9705795  61.5299992 116.7764990  30.4349997
  61.3109992 117.3064990  29.6679997  60.8619992 117.0024990  31.0819997
  61.4096975 116.8795979  30.4175123  68.8989992 126.2764990  23.9789997
  68.6029992 125.9534990  23.1269997  68.5749992 127.1764990  24.0199997
  68.8147458 126.3539678  23.8680598 116.8909992  43.8044990  82.3869997
 116.0019992  43.9034990  82.0469997 117.1869992  42.9624990  82.0409997
 116.8094001  43.7042473  82.2937318  64.0989992 124.4514990  30.7219997
  63.3589992 125.0504990  30.8259997  64.8129992 125.0054990  30.4059997
  64.0943146 124.6082611  30.6935150  72.2059992 117.2804990  26.7419997
  71.9909992 116.5144990  27.2749997  72.8619992 117.7524990  27.2549997
  72.2652673 117.2395739  26.8841972  61.1239992 118.6684990  28.3869997
  61.7369992 119.3014990  28.7599997  61.6359992 118.1964990  27.7309997
  61.2771933 118.6913380  28.3493477  62.5059992 126.4164990  31.5089997
  62.5009992 127.2954990  31.1309997  61.6529992 126.3324990  31.9339997
  62.3899199 126.5255901  31.5146942  58.6279992 126.0874990  22.2909997
  58.3559992 126.3164990  21.4019997  58.6729992 126.9244990  22.7519997
  58.5968360 126.2321034  22.2316186  72.2529992 127.7084990  29.0039997
  71.3109992 127.7674990  29.1659997  72.5289992 128.6144990  28.8669997
  72.1615865 127.8390299  29.0076174  72.5529992 115.9954990  30.4209997
  71.8169992 116.6054990  30.3839997  73.2369992 116.4104990  29.8949997
  72.5445367 116.1352562  30.3448156  65.5559992 114.0814990  27.8869997
  65.4389992 113.1334990  27.8329997  64.7009992 114.4144990  28.1599997
  65.4243691 113.9965842  27.9165072  70.5049992 129.4894990  25.6289997
  70.9299992 128.7824990  25.1439997  70.8219992 130.2914990  25.2119997
  70.6060266 129.5010201  25.5062461  71.6639992 127.3904990  24.1379997
  71.4069992 126.7004990  23.5259997  71.7349992 126.9474990  24.9829997
  71.6384322 127.2361568  24.1685372 120.5439992  43.8044990  80.0429997
 121.4759992  43.9334990  80.2209997 120.3289992  44.4734990  79.3939997
 120.6424245  43.9126452  79.9795602  67.8229992 122.9194990  22.3879997
  67.1109992 123.4544990  22.0359997  68.5139992 122.9744990  21.7279997
  67.8189704 123.0001663  22.2505797  67.8769992 121.3764990  19.4259997
  68.5779992 121.3994990  20.0779997  68.1789992 120.7484990  18.7699997
  68.0138202 121.2947223  19.4265591  75.1919992 122.2974990  30.6809997
  74.5399992 122.9914990  30.7699997  75.6569992 122.5074990  29.8709997
  75.1655357 122.4209544  30.5837056  71.2289992 123.1284990  23.3389997
  70.4969992 123.3574990  23.9119997  71.6759992 122.4154990  23.7939997
  71.1892753 123.0633984  23.4789698  71.1259992 121.3034990  32.4069997
  71.2059992 122.0664990  32.9789997  70.5249992 121.5824990  31.7169997
  71.0556547 121.4457468  32.3920029  62.8739992 123.7594990  25.2219997
  62.5439992 123.3884990  24.4039997  63.4619992 123.0884990  25.5689997
  62.9083182 123.6180648  25.1569898  64.2409992 127.1874990  27.9029997
  64.1459992 126.6084990  27.1469997  64.9699992 126.8164990  28.3989997
  64.3266011 127.0580572  27.8666011  63.2409992 122.5274990  28.8549997
  63.8059992 122.6494990  28.0929997  63.5589992 123.1654990  29.4939997
  63.3613619 122.6304388  28.8370019  69.5499992 128.0314990  29.5889997
  69.3089992 128.6934990  30.2369997  69.3519992 127.1964990  30.0139997
  69.4902662 128.0092704  29.7351008  64.1209992 126.9274990  33.5729997
  63.8089992 127.7094990  34.0279997  63.4709992 126.7744990  32.8869997
  63.9904858 127.0137882  33.5425344 126.4679992  41.4104990  86.8239997
 125.7909992  41.5414990  87.4879997 125.9819992  41.2554990  86.0139997
 126.3097265  41.4074665  86.8053380  70.0999992 122.2914990  21.0249997
  70.6789992 122.4414990  21.7709997  70.5139992 122.7614990  20.3009997
  70.2353358 122.3755966  21.0293935  67.8259992 129.0274990  24.4599997
  68.2999992 129.3234990  25.2369997  67.2629992 129.7664990  24.2269997
  67.8147890 129.1678047  24.5348084  73.7979992 114.0414990  20.8369997
  72.8979992 114.1794990  21.1329997  74.0499992 114.8724990  20.4359997
  73.7087727 114.1728705  20.8232935  61.8639992 122.8284990  22.8109997
  61.5719992 123.5964990  22.3199997  61.1899992 122.1694990  22.6479997
  61.7328843 122.8444537  22.7217695  74.9879992 128.4074990  19.2139997
  75.0609992 129.3464990  19.3839997  75.8929992 128.1024990  19.1579997
  75.1204170 128.4948294  19.2297045  57.9569992 125.1914990  31.6259997
  57.4559992 125.1634990  30.8109997  57.9629992 124.2864990  31.9359997
  57.8891690 125.0652234  31.5562770  57.7079992 127.9724990  28.5099997
  58.6539992 127.8274990  28.4909997  57.5949992 128.7564990  29.0469997
  57.8223578 128.0586708  28.5800300  66.8839992 128.2124990  33.0689997
  66.9709992 129.0384990  33.5439997  66.0199992 127.8824990  33.3179997
  66.7791944 128.2809871  33.1676558  67.2979992 131.9844990  22.8749997
  67.2229992 131.8634990  21.9279997  67.3309992 132.9334990  22.9929997
  67.2922083 132.0962639  22.7614973  60.9519992 130.7734990  24.6559997
  61.1039992 130.4254990  25.5339997  60.1009992 130.4164990  24.3999997
  60.8578344 130.6775891  24.7416851 129.7549992  57.0814990  93.1009997
 129.9549992  57.5054990  92.2659997 130.4109992  57.4254990  93.7079997
 129.8709916  57.1859784  93.0687890  70.3999992 131.1384990  19.8769997
  70.7749992 130.3944990  19.4059997  70.4039992 130.8684990  20.7949997
  70.4518969 131.0000920  19.9366475  70.0689992 131.0644990  22.6259997
  69.1339992 131.1644990  22.8049997  70.3489992 130.3544990  23.2049997
  69.9789471 130.9822944  22.7286678  60.2059992 126.5154990  32.6689997
  60.4219992 126.1534990  33.5289997  59.3509992 126.1404990  32.4599997
  60.1199082 126.4153377  32.7582396  62.8249992 114.9854990  28.6649997
  61.9629992 114.8984990  28.2569997  62.8029992 115.8414990  29.0929997
  62.7040557 115.0893078  28.6670202  67.4879992 114.7074990  32.0399997
  67.9079992 114.2924990  32.7929997  66.5549992 114.5284990  32.1569997
  67.4193736 114.6264921  32.1588950  70.8139992 118.4624990  32.8929997
  70.2999992 118.3374990  33.6909997  70.6589992 119.3754990  32.6489997
  70.7227802 118.5687433  32.9691504  71.5769992 123.3234990  18.6539997
  71.6189992 123.1014990  17.7239997  72.4259992 123.7224990  18.8439997
  71.6975253 123.3470510  18.5523804  67.1499992 117.1994990  19.3249997
  66.8959992 117.2184990  20.2469997  66.8929992 116.3284990  19.0229997
  67.0804508 117.0843292  19.4104786  62.9159992 119.9504990  29.7599997
  62.2739992 119.9104990  30.4689997  62.9529992 120.8774990  29.5219997
  62.8331659 120.0702540  29.8248463  62.9129992 120.1714990  24.6719997
  62.0199992 119.8314990  24.6129997  63.3639992 119.7944990  23.9159997
  62.8517185 120.0740220  24.5617698 117.3529992  49.5554990  92.7089997
 118.0849992  49.8104990  93.2699997 116.5729992  49.7604990  93.2239997
 117.3477684  49.6181457  92.8554774  68.4489992 120.5874990  23.4889997
  68.0399992 121.4024990  23.1969997  69.1689992 120.4474990  22.8749997
  68.4904439 120.6800383  23.3660098  69.4529992 120.0334990  26.3029997
  69.2579992 120.6394990  25.5879997  69.6349992 119.2004990  25.8689997
  69.4509195 120.0037936  26.1464079  60.6659992 120.2714990  31.6269997
  60.6279992 120.6714990  32.4959997  60.1749992 119.4544990  31.7169997
  60.5944374 120.2158228  31.7580980  64.0319992 117.6454990  18.4259997
  63.6009992 117.2004990  19.1549997  63.3139992 118.0164990  17.9129997
  63.8759176 117.6347063  18.4564913  57.2739992 117.3874990  25.4779997
  57.9049992 117.3584990  26.1969997  57.7239992 116.9624990  24.7469997
  57.4211082 117.3261269  25.4776307  58.5479992 118.1334990  20.9019997
  59.0229992 118.7244990  20.3169997  57.8309992 118.6634990  21.2489997
  58.5160406 118.2861011  20.8688495  68.7169992 121.6714990  30.9739997
  69.0409992 121.0404990  30.3309997  68.2769992 121.1374990  31.6349997
  68.7018707 121.5128261  30.9753195  65.4949992 117.5994990  25.7579997
  64.5839992 117.6564990  26.0469997  65.9999992 117.5394990  26.5689997
  65.4386873 117.5991838  25.9071190  60.3229992 119.2284990  24.5849997
  59.4339992 119.3274990  24.2449997  60.6189992 118.3864990  24.2389997
  60.2414001 119.1282473  24.4917318  63.9759992 119.2284990  22.2419997
  64.9079992 119.3574990  22.4199997  63.7609992 119.8974990  21.5919997
  64.0744472 119.3365817  22.1784873 123.3829992  44.9624990  85.4469997
 123.9469992  44.4164990  84.8999997 123.2349992  44.4414990  86.2359997
 123.4403037  44.8171798  85.4787212  69.8999992 116.8344990  29.0219997
  69.2229992 116.9654990  29.6859997  69.4139992 116.6794990  28.2119997
  69.7417265 116.8314665  29.0033380  62.6499992 120.4224990  19.8079997
  62.1079992 120.0434990  19.1169997  63.4839992 120.6174990  19.3799997
  62.6884390 120.3969091  19.6554374  73.1869992 132.5054990  35.2989997
  73.3869992 132.9294990  34.4649997  73.8429992 132.8494990  35.9059997
  73.3029937 132.6099993  35.2668645  60.7849992 124.9794990  34.9069997
  61.5169992 125.2344990  35.4689997  60.0049992 125.1844990  35.4229997
  60.7796526 125.0420438  35.0535168  66.8149992 120.3864990  27.6449997
  67.3789992 119.8404990  27.0979997  66.6669992 119.8654990  28.4339997
  66.8723037 120.2411798  27.6767212  61.8169992 116.5234990  24.0639997
  61.4989992 115.6204990  24.0279997  62.5979992 116.5254990  23.5109997
  61.8791079 116.4002240  23.9842908  65.4409992 118.7754990  30.0589997
  64.6059992 119.2294990  30.1699997  65.9649992 119.0514990  30.8109997
  65.3976072 118.8748960  30.1758118  65.9849992 124.9884990  21.7439997
  65.2399992 124.4804990  21.4219997  65.8509992 125.0374990  22.6899997
  65.8649334 124.9256144  21.8278892  73.1349992 124.1214990  30.5309997
  73.7769992 124.5774990  29.9869997  72.3049992 124.2344990  30.0679997
  73.1106536 124.1991813  30.3939579  69.8829992 117.8024990  19.9429997
  68.9439992 117.9134990  19.7919997  70.1799992 118.6584990  20.2499997
  69.7946136 117.9334977  19.9638568 118.3849992  41.0994990  81.8649997
 118.0669992  40.1964990  81.8299997 119.1659992  41.1014990  81.3129997
 118.4471560  40.9761148  81.7854975  67.5049992 125.1724990  32.9809997
  67.1589992 124.7904990  33.7879997  67.3049992 126.1054990  33.0519997
  67.4305987 125.2464013  33.1010443  70.6009992 119.6694990  21.6039997
  71.4929992 119.5314990  21.9229997  70.6579992 120.4604990  21.0669997
  70.7307380 119.7574777  21.5750981  61.1099992 124.2834990  27.5139997
  61.8549992 124.2804990  26.9119997  61.1879992 123.4594990  27.9949997
  61.2223366 124.1717395  27.4967412  68.1109992 126.4464990  20.7689997
  67.8159992 127.2734990  21.1509997  67.4079992 125.8274990  20.9659997
  67.9756379 126.4759182  20.8478636  58.1179992 122.7434990  32.8289997
  58.3409992 122.3254990  33.6599997  57.5159992 122.1314990  32.4059997
  58.0671513 122.6034617  32.8856722  75.4859992 119.8784990  21.2989997
  74.9319992 119.4824990  20.6259997  75.5869992 120.7894990  21.0209997
  75.4238589 119.9473904  21.1693839  75.4489992 125.6794990  34.1359997
  74.5979992 125.9174990  33.7679997  76.0399992 125.6624990  33.3819997
  75.4123831 125.7097623  33.9838448  73.7809992 128.6644990  21.7639997
  73.4089992 127.8394990  22.0729997  74.0589992 128.4814990  20.8659997
  73.7675807 128.5267031  21.6850063  70.9419992 123.4724990  28.7849997
  70.0139992 123.2414990  28.7579997  71.3929992 122.6954990  28.4549997
  70.8758165 123.3357785  28.7366772  63.4849992 127.8014990  24.9179997
  64.0119992 128.5744990  24.7179997  62.6049992 128.0254990  24.6159997
  63.4382121 127.9377344  24.8497460 122.0089992  43.3514990  87.8609997
 121.1739992  43.8054990  87.9709997 122.5329992  43.6274990  88.6129997
 121.9655070  43.4509677  87.9777134  59.2399992 122.6634990  19.5049997
  59.8559992 123.2904990  19.8849997  58.3779992 122.9794990  19.7769997
  59.2077678 122.7919423  19.5937192  64.9119992 125.4644990  24.4939997
  64.6709992 126.3894990  24.5359997  64.1719992 125.0054990  24.8909997
  64.7789463 125.5290969  24.5534279  65.4269992 129.6134990  30.8089997
  65.7899992 130.4674990  30.5759997  65.9589992 129.3214990  31.5499997
  65.5485141 129.6908907  30.8772079  63.5949992 130.4854990  24.0399997
  62.6459992 130.5914990  24.0909997  63.9469992 131.3064990  24.3839997
  63.5125647 130.6110029  24.0934882  68.9709992 125.7124990  30.5099997
  68.5449992 125.4844990  31.3359997  69.5519992 124.9734990  30.3279997
  68.9912088 125.5814393  30.5984454  71.1739992 126.6414990  19.5839997
  71.5269992 126.2614990  20.3879997  70.2249992 126.5474990  19.6709997
  71.0940956 126.5767867  19.7058005  71.6299992 130.2644990  32.9789997
  71.0279992 129.7084990  32.4839997  71.9109992 130.9314990  32.3529997
  71.5855757 130.2785755  32.8265657  75.6769992 131.1204990  19.7849997
  76.4209992 131.7064990  19.6449997  74.9829992 131.6894990  20.1179997
  75.6849809 131.2775830  19.8108572  59.7519992 117.4974990  32.3869997
  58.8589992 117.8354990  32.3189997  59.6529992 116.6414990  32.8049997
  59.6164752 117.4280986  32.4341644  72.0399992 125.3134990  21.8109997
  71.7629992 124.5854990  22.3669997  72.9669992 125.4324990  22.0159997
  72.1274419 125.2299436  21.9148264 122.5529992  49.5644990  79.5459997
 121.8079992  49.0564990  79.2229997 122.4189992  49.6134990  80.4919997
 122.4328633  49.5015714  79.6297563  59.4029992 129.3014990  30.8219997
  59.6199992 128.3694990  30.7909997  59.6499992 129.5764990  31.7049997
  59.4660948 129.2110976  30.9371268  65.2649992 127.7534990  18.0309997
  65.5039992 127.0044990  17.4839997  64.9959992 127.3654990  18.8639997
  65.2613233 127.5986865  18.0687791  64.2019992 127.3234990  20.4869997
  64.3489992 126.8034990  21.2769997  64.1989992 128.2304990  20.7939997
  64.2217102 127.3748964  20.6365907  60.6549992 124.5754990  20.9979997
  59.9689992 124.9284990  21.5649997  61.1779992 125.3384990  20.7509997
  60.6318402 124.7268912  21.0421783  68.4859992 117.2384990  31.2769997
  69.1849992 117.3124990  31.9269997  68.1059992 116.3734990  31.4309997
  68.5302662 117.1317050  31.3867412  69.2709992 116.8904990  22.3739997
  69.4909992 117.3614990  21.5699997  69.8289992 117.2844990  23.0439997
  69.3766044 117.0082946  22.3545207  66.9399992 129.0204990  21.2369997
  66.1229992 129.5174990  21.2889997  67.4689992 129.4964990  20.5959997
  66.8998125 129.1527000  21.1575289  66.4709992 118.6184990  23.2089997
  67.2829992 119.1224990  23.2549997  66.2259992 118.4734990  24.1229997
  66.5491091 118.6679366  23.3388552  67.0069992 119.6044990  32.3929997
  67.1259992 120.1784990  33.1499997  67.6619992 118.9164990  32.5079997
  67.1118684 119.5900205  32.5121656  67.3549992 115.6994990  24.1469997
  67.0079992 116.3164990  24.7909997  68.0129992 116.2004990  23.6649997
  67.3964430 115.8516860  24.1700046 129.7029992  48.6974990  88.3319997
 130.3449992  49.1534990  87.7889997 128.8729992  48.8104990  87.8699997
 129.6787352  48.7753223  88.1950234  64.2779992 130.0644990  21.2179997
  64.4389992 130.8644990  20.7179997  64.0809992 130.3714990  22.1029997
  64.2733906 130.2153690  21.2692316  63.0119992 116.7624990  20.8339997
  62.9289992 117.6504990  21.1809997  63.9019992 116.4974990  21.0659997
  63.1209331 116.8481177  20.9128067  73.2109992 117.5114990  33.2279997
  72.2949992 117.7734990  33.1409997  73.5469992 117.5084990  32.3319997
  73.1308499 117.5470174  33.0948748  71.8129992 121.2614990  27.3239997
  71.0159992 120.8464990  26.9959997  72.2579992 120.5714990  27.8149997
  71.7640367 121.1113372  27.3454897  61.2709992 127.1894990  19.8939997
  61.8629992 127.8894990  20.1709997  61.7299992 126.7564990  19.1749997
  61.4141652 127.2267686  19.8346515  59.5869992 119.8544990  19.0099997
  59.5419992 120.7934990  19.1889997  58.6989992 119.6184990  18.7409997
  59.4608166 119.9511698  18.9981507  72.8999992 130.5174990  28.9459997
  72.7439992 131.1964990  28.2889997  73.8319992 130.5894990  29.1489997
  73.0047328 130.6201586  28.8835529  60.3949992 114.6354990  27.6829997
  60.1659992 114.6944990  26.7559997  59.9519992 113.8444990  27.9899997
  60.3037387 114.5366412  27.5975223  59.3249992 128.5764990  23.8439997
  58.4929992 129.0484990  23.8709997  59.8709992 129.0864990  23.2449997
  59.2848710 128.7100317  23.7667570  67.3029992 129.6164990  18.1689997
  66.6589992 128.9854990  18.4909997  68.0649992 129.0854990  17.9379997
  67.3178708 129.4583171  18.1818462 124.0729992  49.7484990  90.7829997
 123.7269992  49.3664990  91.5889997 123.8729992  50.6814990  90.8539997
 123.9985399  49.8223489  90.9030401  71.9069992 129.4334990  18.4029997
  72.1899992 128.6384990  18.8559997  72.6469992 129.6664990  17.8419997
  72.0457295 129.3562349  18.3891469  62.8619992 125.3424990  18.2609997
  62.9259992 124.5484990  18.7909997  63.5149992 125.2244990  17.5709997
  62.9590483 125.2177496  18.2403407  68.2139992 126.3894990  17.9969997
  67.9459992 126.5704990  18.8969997  68.0079992 125.4644990  17.8649997
  68.1493443 126.2891873  18.1026643  64.0109992 123.3154990  20.5669997
  63.5519992 122.8314990  21.2519997  64.2659992 122.6464990  19.9309997
  63.9825997 123.1588491  20.5748734  65.0819992 121.5584990  18.8289997
  64.9019992 121.4034990  17.9019997  66.0319992 121.6664990  18.8739997
  65.1857804 121.5518821  18.7081966  74.4719992 123.9124990  18.2749997
  74.1989992 123.4884990  17.4619997  74.5119992 124.8444990  18.0579997
  74.4400201 123.9803523  18.1343548  64.0519992 116.9324990  31.4979997
  64.5879992 117.3844990  30.8459997  63.1999992 116.8244990  31.0749997
  64.0101795 116.9797444  31.3516211  65.6339992 122.3724990  31.7369997
  66.3849992 122.2164990  31.1639997  65.2949992 123.2244990  31.4619997
  65.6909587 122.4663149  31.6214060  64.8579992 114.3894990  31.9289997
  64.7599992 115.3354990  31.8239997  64.1149992 114.0164990  31.4529997
  64.7442123 114.4686811  31.8503204  60.2989992 117.6814990  35.6209997
  60.5099992 116.9754990  35.0109997  60.1869992 117.2444990  36.4649997
  60.3127668 117.5256619  35.6515445 127.1689992  44.2454990  79.4059997
 128.0609992  44.1074990  79.7249997 127.2259992  45.0364990  78.8689997
 127.2987380  44.3334777  79.3770981  65.0799992 113.6834990  34.5999997
  65.7909992 113.0434990  34.5859997  64.9789992 113.9494990  33.6869997
  65.1636858 113.6318591  34.4745501  64.9799992 132.2484990  19.8299997
  65.9129992 132.4064990  19.9739997  64.7149992 132.9244990  19.2049997
  65.0719846 132.3614567  19.7652930  58.5479992 126.8854990  19.3129997
  59.4619992 126.9644990  19.5859997  58.5549992 126.1984990  18.6469997
  58.6740624 126.8034074  19.2603045  57.1969992 132.2784990  24.3899997
  56.5499992 131.8164990  23.8579997  57.5519992 131.6064990  24.9729997
  57.1563741 132.1244785  24.3959157  58.0669992 130.3584990  26.1949997
  57.7329992 129.4784990  26.3669997  58.2889992 130.7044990  27.0599997
  58.0512565 130.2847410  26.3354263  75.6159992 131.1684990  29.1759997
  75.5939992 131.3534990  30.1139997  76.3059992 131.7364990  28.8349997
  75.7063383 131.2707104  29.2584580  75.1789992 130.7354990  32.0969997
  74.6919992 129.9994990  31.7259997  75.7279992 130.3414990  32.7749997
  75.1866101 130.5816267  32.1379034  74.9309992 124.7814990  22.2499997
  75.7809992 125.2024990  22.3769997  74.9359992 124.0414990  22.8569997
  75.0481143 124.7391106  22.3494732  75.3249992 122.8354990  24.0729997
  74.5989992 122.3554990  24.4709997  75.9059992 123.0404990  24.8049997
  75.3042504 122.7975592  24.2264199  75.0839992 125.6204990  29.0209997
  75.9179992 125.2424990  28.7399997  75.1959992 126.5634990  28.9019997
  75.2131917 125.6962954  28.9664844 117.6779992  48.8594990  85.3149997
 118.4229992  48.8564990  84.7139997 117.7559992  48.0354990  85.7969997
 117.7904158  48.7477928  85.2979136  73.5699992 128.4984990  31.3279997
  72.9229992 128.8234990  31.9529997  73.0529992 128.0574990  30.6539997
  73.4114112 128.4834133  31.3225272  75.5929992 122.7364990  20.4639997
  75.0719992 123.0924990  19.7459997  75.5599992 123.4114990  21.1429997
  75.5170955 122.8765023  20.4572634  73.9419992 119.9754990  19.0149997
  74.0389992 120.6424990  18.3349997  73.8019992 119.1604990  18.5339997
  73.9363407 119.9565670  18.8568312  73.1119992 121.3564990  24.6359997
  72.9619992 120.4114990  24.6159997  72.7579992 121.6374990  25.4799997
  73.0436351 121.2651656  24.7473202  58.1469992 123.4344990  28.6469997
  58.3309992 123.3524990  27.7109997  58.9959992 123.3104990  29.0699997
  58.2870132 123.4065066  28.5761460  73.1899992 117.3834990  18.1329997
  73.7999992 117.0124990  18.7699997  72.3529992 116.9624990  18.3289997
  73.1603704 117.2757942  18.2467077  72.8219992 118.9384990  23.0989997
  73.1019992 118.0314990  23.2229997  73.5809992 119.3724990  22.7099997
  72.9629258 118.8730935  23.0633691  73.4339992 119.5204990  28.5349997
  74.3669992 119.7324990  28.4999997  73.1989992 119.6214990  29.4569997
  73.5299517 119.5631844  28.6549113  73.4629992 120.2574990  31.3109997
  72.6199992 120.5254990  31.6759997  73.9059992 121.0794990  31.0999997
  73.4074035 120.4053351  31.3324770  57.7439992 118.7044990  34.7869997
  58.6639992 118.5824990  35.0239997  57.2949992 117.9544990  35.1769997
  57.8090500 118.5864576  34.8721016 124.6789992  51.0224990  78.5709997
 124.3839992  51.8494990  78.9529997 123.9759992  50.4034990  78.7669997
 124.5435855  51.0519458  78.6497634  73.4359992 116.2014990  23.1469997
  73.6179992 115.7524990  23.9719997  72.8359992 115.6174990  22.6829997
  73.3798187 116.0610563  23.1972721  58.9659992 117.0174990  27.6789997
  59.4109992 116.2254990  27.9809997  59.4319992 117.7334990  28.1089997
  59.0899718 117.0059546  27.7785247  57.2699992 120.0164990  28.7479997
  57.7619992 119.7954990  27.9569997  57.6319992 120.8564990  29.0289997
  57.3862923 120.0998480  28.6777389  75.3019992 116.2694990  19.6749997
  75.7149992 115.5484990  19.1999997  75.9839992 116.9384990  19.7329997
  75.4506060 116.2613741  19.6179233  57.5829992 116.2744990  22.8019997
  56.6579992 116.4824990  22.6729997  58.0369992 116.7584990  22.1119997
  57.5176298 116.3684311  22.6910433  72.3539992 131.2584990  24.7479997
  73.0059992 130.9104990  24.1399997  72.8649992 131.7464990  25.3939997
  72.5122872 131.2768248  24.7520964  57.5469992 115.0124990  31.1459997
  56.8819992 114.7664990  31.7889997  57.1039992 115.6344990  30.5689997
  57.3961168 115.0629225  31.1559830  59.7389992 128.1874990  35.2909997
  58.9179992 128.3624990  34.8299997  59.4869992 128.1144990  36.2109997
  59.5925594 128.2015728  35.3523593  62.6929992 129.1614990  31.5489997
  62.2679992 129.9714990  31.2669997  63.5969992 129.2474990  31.2469997
  62.7570706 129.2839557  31.4695836  67.0039992 130.5604990  34.5089997
  67.1889992 130.2274990  35.3869997  67.8509992 130.8704990  34.1869997
  67.1437291 130.5568214  34.5856140 114.6859992  47.3194990  90.6299997
 114.9089992  46.9014990  91.4619997 114.0839992  46.7074990  90.2079997
 114.6350802  47.1795216  90.6867561  69.3489992 131.8464990  33.7529997
  70.0259992 131.2134990  33.5129997  69.6709992 132.2474990  34.5599997
  69.4851618 131.8141147  33.8292802  74.2669992 114.4364990  32.8319997
  73.4539992 114.7614990  32.4449997  74.4999992 113.6754990  32.2989997
  74.1871347 114.3781891  32.7069824  60.0949992 132.4184990  31.5969997
  59.3739992 132.8584990  31.1459997  59.7289992 132.1674990  32.4449997
  59.9469632 132.4447235  31.6499649  62.5619992 132.0184990  30.6259997
  61.6969992 132.0904990  31.0299997  62.5069992 132.5654990  29.8429997
  62.4362289 132.1023242  30.5753749  67.2729992 131.9064990  29.8019997
  66.8159992 132.4354990  29.1479997  67.4349992 132.5094990  30.5269997
  67.2323919 132.0603990  29.8105740  69.5999992 130.7844990  30.7469997
  68.6959992 130.9494990  30.4809997  70.0289992 131.6374990  30.6809997
  69.5342017 130.9224184  30.7016495  72.2039992 132.3544990  31.0419997
  72.0229992 133.2704990  30.8309997  72.3809992 131.9434990  30.1949997
  72.2031377 132.4243365  30.8987178  59.5099992 131.0414990  28.5069997
  59.4909992 130.6154990  29.3639997  60.3139992 130.7224990  28.0979997
  59.6161393 130.9400297  28.5690155  61.6509992 129.7514990  27.1619997
  61.4319992 128.8344990  27.3319997  62.4749992 129.8914990  27.6279997
  61.7324702 129.6450523  27.2482510  64.1879992 130.2214990  28.0109997
  64.4009992 129.3334990  27.7239997  64.2529992 130.1864990  28.9649997
  64.2259149 130.0953338  28.1007351 121.7029992  46.8364990  92.8429997
 121.4069992  46.6714990  91.9479997 122.6339992  46.6164990  92.8329997
 121.7883909  46.7841274  92.7190110  67.6969992 115.8854990  27.1549997
  67.0219992 115.2554990  27.4109997  68.2609992 115.4014990  26.5519997
  67.6809363 115.7338886  27.1084810  72.8389992 113.9924990  27.2679997
  73.4429992 114.5404990  26.7659997  71.9699992 114.3114990  27.0269997
  72.8040419 114.1105628  27.1667741  74.5659992 115.1314990  25.6009997
  75.1779992 114.6174990  25.0739997  74.9489992 116.0084990  25.6239997
  74.7013867 115.1797613  25.5320888  60.0229992 114.5194990  24.9769997
  59.2459992 114.2844990  24.4699997  60.5539992 113.7224990  24.9859997
  59.9883735 114.3796462  24.9088090  58.8599992 114.3174990  20.7809997
  59.2989992 114.9284990  20.1889997  58.2259992 114.8554990  21.2549997
  58.8343859 114.4739076  20.7640287  64.6029992 114.4454990  24.7899997
  65.4769992 114.8344990  24.7609997  64.4669992 114.2304990  25.7129997
  64.7041953 114.4696654  24.9107599  70.1589992 114.4754990  26.4399997
  70.2359992 114.5714990  25.4899997  69.8839992 113.5684990  26.5679997
  70.1323233 114.3659093  26.3273665  71.5129992 114.5014990  22.1319997
  70.8099992 115.1164990  21.9219997  71.0679992 113.6644990  22.2629997
  71.3566550 114.4724679  22.1209819  58.7609992 130.2654990  21.6779997
  58.0759992 130.2274990  21.0109997  58.7639992 131.1774990  21.9659997
  58.6676806 130.3836669  21.6256961  60.7209992 116.2334990  19.2229997
  61.2119992 115.6034990  18.6959997  61.3439992 116.5294990  19.8859997
  60.8725304 116.1872387  19.2404922 126.3229992  52.2104990  90.7329997
 125.4219992  52.3934990  90.4649997 126.3569992  52.4694990  91.6539997
 126.2043021  52.2705505  90.8208206  65.7469992 116.5264990  21.6799997
  65.9249992 115.8794990  22.3629997  65.6929992 117.3604990  22.1469997
  65.7640678 116.5506615  21.8366283  67.6249992 131.4744990  20.0759997
  68.4909992 131.8414990  19.8979997  67.3779992 131.0354990  19.2619997
  67.7101853 131.4654021  19.9415813  74.3339992 131.0374990  22.7549997
  74.1399992 130.2894990  22.1899997  74.2949992 131.7954990  22.1719997
  74.3021645 131.0375797  22.5988131  60.5789992 131.1854990  18.7029997
  60.3109992 131.4714990  19.5769997  61.3499992 130.6394990  18.8559997
  60.6465926 131.1507790  18.8431188  87.9579992 123.6754990  24.9359997
  88.0469992 124.6194990  24.8029997  87.3189992 123.4004990  24.2779997
  87.8838378 123.7673846  24.8289258  86.8909992 122.9304990  28.3549997
  86.8519992 122.2844990  29.0599997  86.5679992 122.4634990  27.5829997
  86.8420469 122.7790005  28.3472803  79.2589992 122.5444990  29.9479997
  79.2999992 121.9194990  30.6709997  79.9619992 123.1684990  30.1299997
  79.3596223 122.5432318  30.0716164  90.5969992 125.8694990  26.6559997
  90.1559992 125.1494990  27.1069997  90.5839992 126.5904990  27.2859997
  90.5349215 125.8684303  26.8028088  80.1829992 126.9944990  28.4829997
  79.8129992 126.1924990  28.1129997  81.1239992 126.8264990  28.5289997
  80.2595984 126.8619649  28.4385586  76.7929992 120.6544990  23.8749997
  76.3449992 121.5004990  23.8569997  76.2319992 120.0754990  23.3599997
  76.6558546 120.6919004  23.8028874 132.0169992  50.2554990  91.9369997
 131.1659992  50.4934990  91.5699997 132.6079992  50.2384990  91.1839997
 131.9802468  50.2858251  91.7848902  77.5029992 122.8164990  26.0009997
  77.7169992 122.0464990  26.5279997  78.2409992 122.9064990  25.3979997
  77.6320073 122.7233546  25.9915786  87.7079992 130.9734990  26.8679997
  88.3279992 130.2974990  26.5949997  87.4999992 130.7554990  27.7769997
  87.7647679 130.8515032  26.9534518  85.2799992 125.3624990  28.7609997
  85.5839992 124.6764990  28.1659997  86.0019992 125.4814990  29.3789997
  85.4191240 125.2847325  28.7630941  93.9429992 116.9644990  29.6209997
  93.9919992 117.5744990  30.3569997  94.3689992 117.4254990  28.8979997
  94.0072851 117.1103266  29.6240532  88.4209992 119.7564990  29.0879997
  88.5629992 118.8104990  29.1079997  88.3149992 119.9634990  28.1599997
  88.4261051 119.6549706  28.9652249  81.5759992 117.8584990  26.3609997
  81.6189992 118.7184990  25.9419997  81.1179992 117.3054990  25.7269997
  81.5200163 117.9014174  26.2180604  89.2979992 117.9894990  24.7609997
  89.9439992 117.6604990  25.3859997  89.8079992 118.5064990  24.1389997
  89.4554289 118.0144333  24.7623681  78.1959992 120.2554990  27.1229997
  78.8499992 119.7054990  27.5549997  78.2199992 119.9814990  26.2059997
  78.2887199 120.1432178  27.0581650  83.3519992 121.8054990  26.3379997
  83.9679992 121.2784990  26.8469997  82.7659992 121.1654990  25.9339997
  83.3570652 121.6468919  26.3530277  94.3349992 118.4424990  31.8569997
  93.6459992 119.1004990  31.7619997  94.3499992 118.2444990  32.7939997
  94.2427756 118.5057614  31.9705795 130.3489992  53.2404990  79.5649997
 129.9769992  52.4154990  79.8749997 130.6269992  53.0574990  78.6679997
 130.3355997  53.1026160  79.4861551  80.3859992 116.7764990  30.4349997
  80.1669992 117.3064990  29.6679997  79.7179992 117.0024990  31.0819997
  80.2656975 116.8795979  30.4175123  87.7549992 126.2764990  23.9789997
  87.4589992 125.9534990  23.1269997  87.4309992 127.1764990  24.0199997
  87.6707458 126.3539678  23.8680598  82.9549992 124.4514990  30.7219997
  82.2149992 125.0504990  30.8259997  83.6689992 125.0054990  30.4059997
  82.9503146 124.6082611  30.6935150  91.0619992 117.2804990  26.7419997
  90.8469992 116.5144990  27.2749997  91.7179992 117.7524990  27.2549997
  91.1212673 117.2395739  26.8841972  79.9799992 118.6684990  28.3869997
  80.5929992 119.3014990  28.7599997  80.4919992 118.1964990  27.7309997
  80.1331933 118.6913380  28.3493477  81.3619992 126.4164990  31.5089997
  81.3569992 127.2954990  31.1309997  80.5089992 126.3324990  31.9339997
  81.2459199 126.5255901  31.5146942  77.4839992 126.0874990  22.2909997
  77.2119992 126.3164990  21.4019997  77.5289992 126.9244990  22.7519997
  77.4528360 126.2321034  22.2316186  91.1089992 127.7084990  29.0039997
  90.1669992 127.7674990  29.1659997  91.3849992 128.6144990  28.8669997
  91.0175865 127.8390299  29.0076174  91.4089992 115.9954990  30.4209997
  90.6729992 116.6054990  30.3839997  92.0929992 116.4104990  29.8949997
  91.4005367 116.1352562  30.3448156  84.4119992 114.0814990  27.8869997
  84.2949992 113.1334990  27.8329997  83.5569992 114.4144990  28.1599997
  84.2803691 113.9965842  27.9165072 127.5099992  48.0484990  86.5869997
 126.5819992  47.8174990  86.5599997 127.9609992  47.2714990  86.2569997
 127.4438165  47.9117785  86.5386772  89.3609992 129.4894990  25.6289997
  89.7859992 128.7824990  25.1439997  89.6779992 130.2914990  25.2119997
  89.4620266 129.5010201  25.5062461  90.5199992 127.3904990  24.1379997
  90.2629992 126.7004990  23.5259997  90.5909992 126.9474990  24.9829997
  90.4944322 127.2361568  24.1685372  92.2059992 125.9574990  32.6149997
  92.3459992 125.3654990  31.8759997  92.3739992 126.8304990  32.2589997
  92.2478734 125.9944041  32.4656937  86.6789992 122.9194990  22.3879997
  85.9669992 123.4544990  22.0359997  87.3699992 122.9744990  21.7279997
  86.6749704 123.0001663  22.2505797  86.7329992 121.3764990  19.4259997
  87.4339992 121.3994990  20.0779997  87.0349992 120.7484990  18.7699997
  86.8698202 121.2947223  19.4265591  94.0479992 122.2974990  30.6809997
  93.3959992 122.9914990  30.7699997  94.5129992 122.5074990  29.8709997
  94.0215357 122.4209544  30.5837056  90.0849992 123.1284990  23.3389997
  89.3529992 123.3574990  23.9119997  90.5319992 122.4154990  23.7939997
  90.0452753 123.0633984  23.4789698  89.9819992 121.3034990  32.4069997
  90.0619992 122.0664990  32.9789997  89.3809992 121.5824990  31.7169997
  89.9116547 121.4457468  32.3920029  81.7299992 123.7594990  25.2219997
  81.3999992 123.3884990  24.4039997  82.3179992 123.0884990  25.5689997
  81.7643182 123.6180648  25.1569898  83.0969992 127.1874990  27.9029997
  83.0019992 126.6084990  27.1469997  83.8259992 126.8164990  28.3989997
  83.1826011 127.0580572  27.8666011 120.0529992  52.3774990  82.7199997
 120.5799992  53.1504990  82.5189997 119.1729992  52.6014990  82.4179997
 120.0061793  52.5136652  82.6516304  82.0969992 122.5274990  28.8549997
  82.6619992 122.6494990  28.0929997  82.4149992 123.1654990  29.4939997
  82.2173619 122.6304388  28.8370019  88.4059992 128.0314990  29.5889997
  88.1649992 128.6934990  30.2369997  88.2079992 127.1964990  30.0139997
  88.3462662 128.0092704  29.7351008  88.9559992 122.2914990  21.0249997
  89.5349992 122.4414990  21.7709997  89.3699992 122.7614990  20.3009997
  89.0913358 122.3755966  21.0293935  79.8969992 123.1254990  32.8009997
  79.9669992 123.7764990  33.4999997  79.0059992 123.2284990  32.4659997
  79.7861690 123.2284261  32.8513026  86.6819992 129.0274990  24.4599997
  87.1559992 129.3234990  25.2369997  86.1189992 129.7664990  24.2269997
  86.6707890 129.1678047  24.5348084  92.6539992 114.0414990  20.8369997
  91.7539992 114.1794990  21.1329997  92.9059992 114.8724990  20.4359997
  92.5647727 114.1728705  20.8232935  80.7199992 122.8284990  22.8109997
  80.4279992 123.5964990  22.3199997  80.0459992 122.1694990  22.6479997
  80.5888843 122.8444537  22.7217695  93.8439992 128.4074990  19.2139997
  93.9169992 129.3464990  19.3839997  94.7489992 128.1024990  19.1579997
  93.9764170 128.4948294  19.2297045  76.8129992 125.1914990  31.6259997
  76.3119992 125.1634990  30.8109997  76.8189992 124.2864990  31.9359997
  76.7451690 125.0652234  31.5562770  76.5639992 127.9724990  28.5099997
  77.5099992 127.8274990  28.4909997  76.4509992 128.7564990  29.0469997
  76.6783578 128.0586708  28.5800300 115.8079992  47.2394990  77.3069997
 116.4239992  47.8664990  77.6859997 114.9459992  47.5554990  77.5779997
 115.7758195  47.3680810  77.3955369  85.7399992 128.2124990  33.0689997
  85.8269992 129.0384990  33.5439997  84.8759992 127.8824990  33.3179997
  85.6351944 128.2809871  33.1676558  86.1539992 131.9844990  22.8749997
  86.0789992 131.8634990  21.9279997  86.1869992 132.9334990  22.9929997
  86.1482083 132.0962639  22.7614973  79.8079992 130.7734990  24.6559997
  79.9599992 130.4254990  25.5339997  78.9569992 130.4164990  24.3999997
  79.7138344 130.6775891  24.7416851  89.2559992 131.1384990  19.8769997
  89.6309992 130.3944990  19.4059997  89.2599992 130.8684990  20.7949997
  89.3078969 131.0000920  19.9366475  88.9249992 131.0644990  22.6259997
  87.9899992 131.1644990  22.8049997  89.2049992 130.3544990  23.2049997
  88.8349471 130.9822944  22.7286678  79.0619992 126.5154990  32.6689997
  79.2779992 126.1534990  33.5289997  78.2069992 126.1404990  32.4599997
  78.9759082 126.4153377  32.7582396  81.6809992 114.9854990  28.6649997
  80.8189992 114.8984990  28.2569997  81.6589992 115.8414990  29.0929997
  81.5600557 115.0893078  28.6670202  86.3439992 114.7074990  32.0399997
  86.7639992 114.2924990  32.7929997  85.4109992 114.5284990  32.1569997
  86.2753736 114.6264921  32.1588950  89.6699992 118.4624990  32.8929997
  89.1559992 118.3374990  33.6909997  89.5149992 119.3754990  32.6489997
  89.5787802 118.5687433  32.9691504  90.4329992 123.3234990  18.6539997
  90.4749992 123.1014990  17.7239997  91.2819992 123.7224990  18.8439997
  90.5535253 123.3470510  18.5523804 121.4799992  50.0404990  82.2959997
 121.2389992  50.9654990  82.3379997 120.7399992  49.5814990  82.6919997
 121.3468934  50.1050881  82.3553191  86.0059992 117.1994990  19.3249997
  85.7519992 117.2184990  20.2469997  85.7489992 116.3284990  19.0229997
  85.9364508 117.0843292  19.4104786  81.7719992 119.9504990  29.7599997
  81.1299992 119.9104990  30.4689997  81.8089992 120.8774990  29.5219997
  81.6891659 120.0702540  29.8248463  81.7689992 120.1714990  24.6719997
  80.8759992 119.8314990  24.6129997  82.2199992 119.7944990  23.9159997
  81.7077185 120.0740220  24.5617698  87.3049992 120.5874990  23.4889997
  86.8959992 121.4024990  23.1969997  88.0249992 120.4474990  22.8749997
  87.3464439 120.6800383  23.3660098  86.4069992 120.7634990  34.9769997
  85.8439992 120.0584990  35.2979997  87.2329992 120.6424990  35.4449997
  86.4416674 120.6507176  35.0841734  88.3089992 120.0334990  26.3029997
  88.1139992 120.6394990  25.5879997  88.4909992 119.2004990  25.8689997
  88.3069195 120.0037936  26.1464079  79.5219992 120.2714990  31.6269997
  79.4839992 120.6714990  32.4959997  79.0309992 119.4544990  31.7169997
  79.4504374 120.2158228  31.7580980  82.8879992 117.6454990  18.4259997
  82.4569992 117.2004990  19.1549997  82.1699992 118.0164990  17.9129997
  82.7319176 117.6347063  18.4564913  76.1299992 117.3874990  25.4779997
  76.7609992 117.3584990  26.1969997  76.5799992 116.9624990  24.7469997
  76.2771082 117.3261269  25.4776307  77.4039992 118.1334990  20.9019997
  77.8789992 118.7244990  20.3169997  76.6869992 118.6634990  21.2489997
  77.3720406 118.2861011  20.8688495 121.9949992  54.1894990  88.6109997
 122.3579992  55.0434990  88.3779997 122.5269992  53.8974990  89.3519997
 122.1165141  54.2668907  88.6792079  87.5729992 121.6714990  30.9739997
  87.8969992 121.0404990  30.3309997  87.1329992 121.1374990  31.6349997
  87.5578707 121.5128261  30.9753195  84.3509992 117.5994990  25.7579997
  83.4399992 117.6564990  26.0469997  84.8559992 117.5394990  26.5689997
  84.2946873 117.5991838  25.9071190  79.1789992 119.2284990  24.5849997
  78.2899992 119.3274990  24.2449997  79.4749992 118.3864990  24.2389997
  79.0974001 119.1282473  24.4917318  82.8319992 119.2284990  22.2419997
  83.7639992 119.3574990  22.4199997  82.6169992 119.8974990  21.5919997
  82.9304472 119.3365817  22.1784873  88.7559992 116.8344990  29.0219997
  88.0789992 116.9654990  29.6859997  88.2699992 116.6794990  28.2119997
  88.5977265 116.8314665  29.0033380  81.5059992 120.4224990  19.8079997
  80.9639992 120.0434990  19.1169997  82.3399992 120.6174990  19.3799997
  81.5444390 120.3969091  19.6554374  79.6409992 124.9794990  34.9069997
  80.3729992 125.2344990  35.4689997  78.8609992 125.1844990  35.4229997
  79.6356526 125.0420438  35.0535168  85.6709992 120.3864990  27.6449997
  86.2349992 119.8404990  27.0979997  85.5229992 119.8654990  28.4339997
  85.7283037 120.2411798  27.6767212  80.6729992 116.5234990  24.0639997
  80.3549992 115.6204990  24.0279997  81.4539992 116.5254990  23.5109997
  80.7351079 116.4002240  23.9842908  84.2969992 118.7754990  30.0589997
  83.4619992 119.2294990  30.1699997  84.8209992 119.0514990  30.8109997
  84.2536072 118.8748960  30.1758118 120.1629992  55.0614990  81.8409997
 119.2139992  55.1674990  81.8929997 120.5149992  55.8824990  82.1859997
 120.0806214  55.1869361  81.8947317  84.8409992 124.9884990  21.7439997
  84.0959992 124.4804990  21.4219997  84.7069992 125.0374990  22.6899997
  84.7209334 124.9256144  21.8278892  91.9909992 124.1214990  30.5309997
  92.6329992 124.5774990  29.9869997  91.1609992 124.2344990  30.0679997
  91.9666536 124.1991813  30.3939579  88.7389992 117.8024990  19.9429997
  87.7999992 117.9134990  19.7919997  89.0359992 118.6584990  20.2499997
  88.6506136 117.9334977  19.9638568  89.4569992 119.6694990  21.6039997
  90.3489992 119.5314990  21.9229997  89.5139992 120.4604990  21.0669997
  89.5867380 119.7574777  21.5750981  79.9659992 124.2834990  27.5139997
  80.7109992 124.2804990  26.9119997  80.0439992 123.4594990  27.9949997
  80.0783366 124.1717395  27.4967412  86.9669992 126.4464990  20.7689997
  86.6719992 127.2734990  21.1509997  86.2639992 125.8274990  20.9659997
  86.8316379 126.4759182  20.8478636  76.9739992 122.7434990  32.8289997
  77.1969992 122.3254990  33.6599997  76.3719992 122.1314990  32.4059997
  76.9231513 122.6034617  32.8856722  88.6109992 127.6344990  32.9309997
  87.7099992 127.8174990  32.6639997  88.6449992 127.8934990  33.8519997
  88.4923861 127.6945245  33.0189517  94.3419992 119.8784990  21.2989997
  93.7879992 119.4824990  20.6259997  94.4429992 120.7894990  21.0209997
  94.2798589 119.9473904  21.1693839  94.3049992 125.6794990  34.1359997
  93.4539992 125.9174990  33.7679997  94.8959992 125.6624990  33.3819997
  94.2683831 125.7097623  33.9838448 125.5389992  50.2884990  88.3119997
 125.1129992  50.0604990  89.1379997 126.1199992  49.5494990  88.1289997
 125.5591587  50.1574084  88.4004111  92.6369992 128.6644990  21.7639997
  92.2649992 127.8394990  22.0729997  92.9149992 128.4814990  20.8659997
  92.6235807 128.5267031  21.6850063  89.7979992 123.4724990  28.7849997
  88.8699992 123.2414990  28.7579997  90.2489992 122.6954990  28.4549997
  89.7318165 123.3357785  28.7366772  82.3409992 127.8014990  24.9179997
  82.8679992 128.5744990  24.7179997  81.4609992 128.0254990  24.6159997
  82.2942121 127.9377344  24.8497460  78.0959992 122.6634990  19.5049997
  78.7119992 123.2904990  19.8849997  77.2339992 122.9794990  19.7769997
  78.0637678 122.7919423  19.5937192  83.7679992 125.4644990  24.4939997
  83.5269992 126.3894990  24.5359997  83.0279992 125.0054990  24.8909997
  83.6349463 125.5290969  24.5534279  84.2829992 129.6134990  30.8089997
  84.6459992 130.4674990  30.5759997  84.8149992 129.3214990  31.5499997
  84.4045141 129.6908907  30.8772079  82.4509992 130.4854990  24.0399997
  81.5019992 130.5914990  24.0909997  82.8029992 131.3064990  24.3839997
  82.3685647 130.6110029  24.0934882  87.8269992 125.7124990  30.5099997
  87.4009992 125.4844990  31.3359997  88.4079992 124.9734990  30.3279997
  87.8472088 125.5814393  30.5984454  90.0299992 126.6414990  19.5839997
  90.3829992 126.2614990  20.3879997  89.0809992 126.5474990  19.6709997
  89.9500956 126.5767867  19.7058005  94.5329992 131.1204990  19.7849997
  95.2769992 131.7064990  19.6449997  93.8389992 131.6894990  20.1179997
  94.5409809 131.2775830  19.8108572 128.1979992  54.8404990  90.7809997
 127.5959992  54.2844990  90.2859997 128.4789992  55.5074990  90.1549997
 128.1535757  54.8545755  90.6285657  78.6079992 117.4974990  32.3869997
  77.7149992 117.8354990  32.3189997  78.5089992 116.6414990  32.8049997
  78.4724752 117.4280986  32.4341644  90.8959992 125.3134990  21.8109997
  90.6189992 124.5854990  22.3669997  91.8229992 125.4324990  22.0159997
  90.9834419 125.2299436  21.9148264  78.2589992 129.3014990  30.8219997
  78.4759992 128.3694990  30.7909997  78.5059992 129.5764990  31.7049997
  78.3220948 129.2110976  30.9371268  84.1209992 127.7534990  18.0309997
  84.3599992 127.0044990  17.4839997  83.8519992 127.3654990  18.8639997
  84.1173233 127.5986865  18.0687791  83.0579992 127.3234990  20.4869997
  83.2049992 126.8034990  21.2769997  83.0549992 128.2304990  20.7939997
  83.0777102 127.3748964  20.6365907  79.5109992 124.5754990  20.9979997
  78.8249992 124.9284990  21.5649997  80.0339992 125.3384990  20.7509997
  79.4878402 124.7268912  21.0421783  87.3419992 117.2384990  31.2769997
  88.0409992 117.3124990  31.9269997  86.9619992 116.3734990  31.4309997
  87.3862662 117.1317050  31.3867412  88.1269992 116.8904990  22.3739997
  88.3469992 117.3614990  21.5699997  88.6849992 117.2844990  23.0439997
  88.2326044 117.0082946  22.3545207  85.7959992 129.0204990  21.2369997
  84.9789992 129.5174990  21.2889997  86.3249992 129.4964990  20.5959997
  85.7558125 129.1527000  21.1575289  85.3269992 118.6184990  23.2089997
  86.1389992 119.1224990  23.2549997  85.0819992 118.4734990  24.1229997
  85.4051091 118.6679366  23.3388552 116.3199992  42.0734990  90.1879997
 115.4269992  42.4114990  90.1209997 116.2209992  41.2174990  90.6059997
 116.1845241  42.0040941  90.2352982  85.8629992 119.6044990  32.3929997
  85.9819992 120.1784990  33.1499997  86.5179992 118.9164990  32.5079997
  85.9678684 119.5900205  32.5121656  86.2109992 115.6994990  24.1469997
  85.8639992 116.3164990  24.7909997  86.8689992 116.2004990  23.6649997
  86.2524430 115.8516860  24.1700046  83.1339992 130.0644990  21.2179997
  83.2949992 130.8644990  20.7179997  82.9369992 130.3714990  22.1029997
  83.1293906 130.2153690  21.2692316  81.8679992 116.7624990  20.8339997
  81.7849992 117.6504990  21.1809997  82.7579992 116.4974990  21.0659997
  81.9769331 116.8481177  20.9128067  92.0669992 117.5114990  33.2279997
  91.1509992 117.7734990  33.1409997  92.4029992 117.5084990  32.3319997
  91.9868499 117.5470174  33.0948748  90.6689992 121.2614990  27.3239997
  89.8719992 120.8464990  26.9959997  91.1139992 120.5714990  27.8149997
  90.6200367 121.1113372  27.3454897  80.1269992 127.1894990  19.8939997
  80.7189992 127.8894990  20.1709997  80.5859992 126.7564990  19.1749997
  80.2701652 127.2267686  19.8346515  78.4429992 119.8544990  19.0099997
  78.3979992 120.7934990  19.1889997  77.5549992 119.6184990  18.7409997
  78.3168166 119.9511698  18.9981507  91.7559992 130.5174990  28.9459997
  91.5999992 131.1964990  28.2889997  92.6879992 130.5894990  29.1489997
  91.8607328 130.6201586  28.8835529  79.2509992 114.6354990  27.6829997
  79.0219992 114.6944990  26.7559997  78.8079992 113.8444990  27.9899997
  79.1597387 114.5366412  27.5975223 128.6079992  49.8894990  79.6119997
 128.3309992  49.1614990  80.1679997 129.5349992  50.0084990  79.8179997
 128.6954181  49.8060068  79.7158972  78.1809992 128.5764990  23.8439997
  77.3489992 129.0484990  23.8709997  78.7269992 129.0864990  23.2449997
  78.1408710 128.7100317  23.7667570  86.1589992 129.6164990  18.1689997
  85.5149992 128.9854990  18.4909997  86.9209992 129.0854990  17.9379997
  86.1738708 129.4583171  18.1818461  90.7629992 129.4334990  18.4029997
  91.0459992 128.6384990  18.8559997  91.5029992 129.6664990  17.8419997
  90.9017295 129.3562349  18.3891469  81.7179992 125.3424990  18.2609997
  81.7819992 124.5484990  18.7909997  82.3709992 125.2244990  17.5709997
  81.8150482 125.2177496  18.2403407  87.0699992 126.3894990  17.9969997
  86.8019992 126.5704990  18.8969997  86.8639992 125.4644990  17.8649997
  87.0053443 126.2891873  18.1026643  89.7669992 124.8844990  32.9439997
  90.5119992 125.4734990  32.8249997  89.0089992 125.4664990  33.0069997
  89.7665289 125.0437067  32.9362292  82.8669992 123.3154990  20.5669997
  82.4079992 122.8314990  21.2519997  83.1219992 122.6464990  19.9309997
  82.8385997 123.1588491  20.5748734  82.1559992 121.2084990  32.9229997
  81.5379992 121.8824990  33.2029997  82.4999992 121.5294990  32.0889997
  82.1178078 121.3442298  32.8486609  83.9379992 121.5584990  18.8289997
  83.7579992 121.4034990  17.9019997  84.8879992 121.6664990  18.8739997
  84.0417804 121.5518821  18.7081966  93.3279992 123.9124990  18.2749997
  93.0549992 123.4884990  17.4619997  93.3679992 124.8444990  18.0579997
  93.2960201 123.9803523  18.1343548 115.9709992  53.8774990  88.6229997
 116.1879992  52.9454990  88.5919997 116.2179992  54.1524990  89.5069997
 116.0340543  53.7870877  88.7381412  82.9079992 116.9324990  31.4979997
  83.4439992 117.3844990  30.8459997  82.0559992 116.8244990  31.0749997
  82.8661795 116.9797444  31.3516211  90.2219992 122.9764990  34.8429997
  89.9409992 123.6854990  34.2649997  91.1649992 122.9034990  34.6919997
  90.3109272 123.0636704  34.7434976  83.7139992 114.3894990  31.9289997
  83.6159992 115.3354990  31.8239997  82.9709992 114.0164990  31.4529997
  83.6002123 114.4686811  31.8503204  79.1549992 117.6814990  35.6209997
  79.3659992 116.9754990  35.0109997  79.0429992 117.2444990  36.4649997
  79.1687668 117.5256619  35.6515445  83.8359992 132.2484990  19.8299997
  84.7689992 132.4064990  19.9739997  83.5709992 132.9244990  19.2049997
  83.9279846 132.3614567  19.7652930  77.4039992 126.8854990  19.3129997
  78.3179992 126.9644990  19.5859997  77.4109992 126.1984990  18.6469997
  77.5300624 126.8034074  19.2603045  76.0529992 132.2784990  24.3899997
  75.4059992 131.8164990  23.8579997  76.4079992 131.6064990  24.9729997
  76.0123741 132.1244785  24.3959157  76.9229992 130.3584990  26.1949997
  76.5889992 129.4784990  26.3669997  77.1449992 130.7044990  27.0599997
  76.9072565 130.2847410  26.3354263  94.4719992 131.1684990  29.1759997
  94.4499992 131.3534990  30.1139997  95.1619992 131.7364990  28.8349997
  94.5623383 131.2707104  29.2584580  94.0349992 130.7354990  32.0969997
  93.5479992 129.9994990  31.7259997  94.5839992 130.3414990  32.7749997
  94.0426101 130.5816267  32.1379034 120.7699992  51.8994990  78.2889997
 120.9169992  51.3794990  79.0789997 120.7669992  52.8064990  78.5949997
 120.7897300  51.9508975  78.4385877  93.7869992 124.7814990  22.2499997
  94.6369992 125.2024990  22.3769997  93.7919992 124.0414990  22.8569997
  93.9041143 124.7391106  22.3494732  94.1809992 122.8354990  24.0729997
  93.4549992 122.3554990  24.4709997  94.7619992 123.0404990  24.8049997
  94.1602504 122.7975592  24.2264199  93.9399992 125.6204990  29.0209997
  94.7739992 125.2424990  28.7399997  94.0519992 126.5634990  28.9019997
  94.0691917 125.6962954  28.9664844  92.4259992 128.4984990  31.3279997
  91.7789992 128.8234990  31.9529997  91.9089992 128.0574990  30.6539997
  92.2674112 128.4834133  31.3225272  94.4489992 122.7364990  20.4639997
  93.9279992 123.0924990  19.7459997  94.4159992 123.4114990  21.1429997
  94.3730955 122.8765023  20.4572634  92.7979992 119.9754990  19.0149997
  92.8949992 120.6424990  18.3349997  92.6579992 119.1604990  18.5339997
  92.7923407 119.9565670  18.8568312  91.9679992 121.3564990  24.6359997
  91.8179992 120.4114990  24.6159997  91.6139992 121.6374990  25.4799997
  91.8996351 121.2651656  24.7473202  77.0029992 123.4344990  28.6469997
  77.1869992 123.3524990  27.7109997  77.8519992 123.3104990  29.0699997
  77.1430132 123.4065066  28.5761460  92.8239992 123.3264990  34.2749997
  93.4069992 122.5914990  34.4669997  93.3879992 124.0984990  34.3219997
  92.9799781 123.3303156  34.3076146  92.0459992 117.3834990  18.1329997
  92.6559992 117.0124990  18.7699997  91.2089992 116.9624990  18.3289997
  92.0163704 117.2757942  18.2467077 117.2229992  49.1514990  78.7989997
 116.5369992  49.5044990  79.3659997 117.7459992  49.9144990  78.5529997
 117.1999033  49.3028757  78.8432644  91.6779992 118.9384990  23.0989997
  91.9579992 118.0314990  23.2229997  92.4369992 119.3724990  22.7099997
  91.8189258 118.8730935  23.0633691  92.2899992 119.5204990  28.5349997
  93.2229992 119.7324990  28.4999997  92.0549992 119.6214990  29.4569997
  92.3859517 119.5631844  28.6549113  92.3189992 120.2574990  31.3109997
  91.4759992 120.5254990  31.6759997  92.7619992 121.0794990  31.0999997
  92.2634035 120.4053351  31.3324770  92.2919992 116.2014990  23.1469997
  92.4739992 115.7524990  23.9719997  91.6919992 115.6174990  22.6829997
  92.2358187 116.0610563  23.1972721  77.8219992 117.0174990  27.6789997
  78.2669992 116.2254990  27.9809997  78.2879992 117.7334990  28.1089997
  77.9459718 117.0059546  27.7785247  76.1259992 120.0164990  28.7479997
  76.6179992 119.7954990  27.9569997  76.4879992 120.8564990  29.0289997
  76.2422923 120.0998480  28.6777389  94.1579992 116.2694990  19.6749997
  94.5709992 115.5484990  19.1999997  94.8399992 116.9384990  19.7329997
  94.3066060 116.2613741  19.6179233  76.4389992 116.2744990  22.8019997
  75.5139992 116.4824990  22.6729997  76.8929992 116.7584990  22.1119997
  76.3736298 116.3684311  22.6910433  91.2099992 131.2584990  24.7479997
  91.8619992 130.9104990  24.1399997  91.7209992 131.7464990  25.3939997
  91.3682872 131.2768248  24.7520964  76.4029992 115.0124990  31.1459997
  75.7379992 114.7664990  31.7889997  75.9599992 115.6344990  30.5689997
  76.2521168 115.0629225  31.1559830 125.0539992  41.8144990  89.0779997
 125.7529992  41.8884990  89.7279997 124.6739992  40.9494990  89.2329997
 125.0982095  41.7077402  89.1877982  81.5489992 129.1614990  31.5489997
  81.1239992 129.9714990  31.2669997  82.4529992 129.2474990  31.2469997
  81.6130706 129.2839557  31.4695836  93.1229992 114.4364990  32.8319997
  92.3099992 114.7614990  32.4449997  93.3559992 113.6754990  32.2989997
  93.0431347 114.3781891  32.7069824  78.9509992 132.4184990  31.5969997
  78.2299992 132.8584990  31.1459997  78.5849992 132.1674990  32.4449997
  78.8029632 132.4447235  31.6499649  81.4179992 132.0184990  30.6259997
  80.5529992 132.0904990  31.0299997  81.3629992 132.5654990  29.8429997
  81.2922289 132.1023242  30.5753749  86.1289992 131.9064990  29.8019997
  85.6719992 132.4354990  29.1479997  86.2909992 132.5094990  30.5269997
  86.0883919 132.0603990  29.8105740  88.4559992 130.7844990  30.7469997
  87.5519992 130.9494990  30.4809997  88.8849992 131.6374990  30.6809997
  88.3902017 130.9224184  30.7016495  91.0599992 132.3544990  31.0419997
  90.8789992 133.2704990  30.8309997  91.2369992 131.9434990  30.1949997
  91.0591377 132.4243365  30.8987178  78.3659992 131.0414990  28.5069997
  78.3469992 130.6154990  29.3639997  79.1699992 130.7224990  28.0979997
  78.4721393 130.9400297  28.5690155  80.5069992 129.7514990  27.1619997
  80.2879992 128.8344990  27.3319997  81.3309992 129.8914990  27.6279997
  80.5884702 129.6450523  27.2482510  83.0439992 130.2214990  28.0109997
  83.2569992 129.3334990  27.7239997  83.1089992 130.1864990  28.9649997
  83.0819149 130.0953338  28.1007351 125.8389992  41.4664990  80.1749997
 126.0589992  41.9374990  79.3719997 126.3969992  41.8604990  80.8459997
 125.9445851  41.5843272  80.1556134  86.5529992 115.8854990  27.1549997
  85.8779992 115.2554990  27.4109997  87.1169992 115.4014990  26.5519997
  86.5369363 115.7338886  27.1084810  91.6949992 113.9924990  27.2679997
  92.2989992 114.5404990  26.7659997  90.8259992 114.3114990  27.0269997
  91.6600419 114.1105628  27.1667741  93.4219992 115.1314990  25.6009997
  94.0339992 114.6174990  25.0739997  93.8049992 116.0084990  25.6239997
  93.5573867 115.1797613  25.5320888  78.8789992 114.5194990  24.9769997
  78.1019992 114.2844990  24.4699997  79.4099992 113.7224990  24.9859997
  78.8443735 114.3796462  24.9088090  77.7159992 114.3174990  20.7809997
  78.1549992 114.9284990  20.1889997  77.0819992 114.8554990  21.2549997
  77.6903859 114.4739076  20.7640287  83.4589992 114.4454990  24.7899997
  84.3329992 114.8344990  24.7609997  83.3229992 114.2304990  25.7129997
  83.5601953 114.4696654  24.9107599  89.0149992 114.4754990  26.4399997
  89.0919992 114.5714990  25.4899997  88.7399992 113.5684990  26.5679997
  88.9883233 114.3659093  26.3273665  90.3689992 114.5014990  22.1319997
  89.6659992 115.1164990  21.9219997  89.9239992 113.6644990  22.2629997
  90.2126550 114.4724679  22.1209819  77.6169992 130.2654990  21.6779997
  76.9319992 130.2274990  21.0109997  77.6199992 131.1774990  21.9659997
  77.5236806 130.3836669  21.6256961  79.5769992 116.2334990  19.2229997
  80.0679992 115.6034990  18.6959997  80.1999992 116.5294990  19.8859997
  79.7285304 116.1872387  19.2404922 123.5079992  53.5964990  79.0379997
 122.6909992  54.0934990  79.0909997 124.0369992  54.0724990  78.3979997
 123.4677898  53.7288123  78.9587274  84.6029992 116.5264990  21.6799997
  84.7809992 115.8794990  22.3629997  84.5489992 117.3604990  22.1469997
  84.6200678 116.5506615  21.8366283  86.4809992 131.4744990  20.0759997
  87.3469992 131.8414990  19.8979997  86.2339992 131.0354990  19.2619997
  86.5661853 131.4654021  19.9415813  93.1899992 131.0374990  22.7549997
  92.9959992 130.2894990  22.1899997  93.1509992 131.7954990  22.1719997
  93.1581645 131.0375797  22.5988131  78.8369992 115.0334990  34.4949997
  78.4709992 114.2674990  34.9369997  79.7499992 115.0624990  34.7809997
  78.9103172 114.9325335  34.5941872  79.4349992 131.1854990  18.7029997
  79.1669992 131.4714990  19.5769997  80.2059992 130.6394990  18.8559997
  79.5025927 131.1507790  18.8431188 106.8139992 123.6754990  24.9359997
 106.9029992 124.6194990  24.8029997 106.1749992 123.4004990  24.2779997
 106.7398378 123.7673846  24.8289258 105.7469992 122.9304990  28.3549997
 105.7079992 122.2844990  29.0599997 105.4239992 122.4634990  27.5829997
 105.6980469 122.7790005  28.3472803  98.1149992 122.5444990  29.9479997
  98.1559992 121.9194990  30.6709997  98.8179992 123.1684990  30.1299997
  98.2156223 122.5432318  30.0716164 109.4529992 125.8694990  26.6559997
 109.0119992 125.1494990  27.1069997 109.4399992 126.5904990  27.2859997
 109.3909215 125.8684303  26.8028088  99.0389992 126.9944990  28.4829997
  98.6689992 126.1924990  28.1129997  99.9799992 126.8264990  28.5289997
  99.1155984 126.8619649  28.4385586 123.0389992  43.1944990  81.0099997
 123.8509992  43.6984990  81.0559997 122.7939992  43.0494990  81.9239997
 123.1171091  43.2439366  81.1398552  95.6489992 120.6544990  23.8749997
  95.2009992 121.5004990  23.8569997  95.0879992 120.0754990  23.3599997
  95.5118546 120.6919004  23.8028874  96.3589992 122.8164990  26.0009997
  96.5729992 122.0464990  26.5279997  97.0969992 122.9064990  25.3979997
  96.4880073 122.7233546  25.9915786 106.5639992 130.9734990  26.8679997
 107.1839992 130.2974990  26.5949997 106.3559992 130.7554990  27.7769997
 106.6207679 130.8515032  26.9534518 104.1359992 125.3624990  28.7609997
 104.4399992 124.6764990  28.1659997 104.8579992 125.4814990  29.3789997
 104.2751240 125.2847325  28.7630941 112.7989992 116.9644990  29.6209997
 112.8479992 117.5744990  30.3569997 113.2249992 117.4254990  28.8979997
 112.8632851 117.1103266  29.6240532 107.2769992 119.7564990  29.0879997
 107.4189992 118.8104990  29.1079997 107.1709992 119.9634990  28.1599997
 107.2821051 119.6549706  28.9652249 100.4319992 117.8584990  26.3609997
 100.4749992 118.7184990  25.9419997  99.9739992 117.3054990  25.7269997
 100.3760163 117.9014174  26.2180604 108.1539992 117.9894990  24.7609997
 108.7999992 117.6604990  25.3859997 108.6639992 118.5064990  24.1389997
 108.3114289 118.0144333  24.7623681  97.0519992 120.2554990  27.1229997
  97.7059992 119.7054990  27.5549997  97.0759992 119.9814990  26.2059997
  97.1447199 120.1432178  27.0581650 102.2079992 121.8054990  26.3379997
 102.8239992 121.2784990  26.8469997 101.6219992 121.1654990  25.9339997
 102.2130652 121.6468919  26.3530277 123.5749992  44.1804990  90.1949997
 123.6939992  44.7544990  90.9519997 124.2299992  43.4924990  90.3099997
 123.6798684  44.1660205  90.3141656 113.1909992 118.4424990  31.8569997
 112.5019992 119.1004990  31.7619997 113.2059992 118.2444990  32.7939997
 113.0987756 118.5057614  31.9705795  99.2419992 116.7764990  30.4349997
  99.0229992 117.3064990  29.6679997  98.5739992 117.0024990  31.0819997
  99.1216975 116.8795979  30.4175123 106.6109992 126.2764990  23.9789997
 106.3149992 125.9534990  23.1269997 106.2869992 127.1764990  24.0199997
 106.5267458 126.3539678  23.8680598 101.8109992 124.4514990  30.7219997
 101.0709992 125.0504990  30.8259997 102.5249992 125.0054990  30.4059997
 101.8063146 124.6082611  30.6935150 109.9179992 117.2804990  26.7419997
 109.7029992 116.5144990  27.2749997 110.5739992 117.7524990  27.2549997
 109.9772673 117.2395739  26.8841972  98.8359992 118.6684990  28.3869997
  99.4489992 119.3014990  28.7599997  99.3479992 118.1964990  27.7309997
  98.9891933 118.6913380  28.3493477 100.2179992 126.4164990  31.5089997
 100.2129992 127.2954990  31.1309997  99.3649992 126.3324990  31.9339997
 100.1019199 126.5255901  31.5146942  96.3399992 126.0874990  22.2909997
  96.0679992 126.3164990  21.4019997  96.3849992 126.9244990  22.7519997
  96.3088360 126.2321034  22.2316186 109.9649992 127.7084990  29.0039997
 109.0229992 127.7674990  29.1659997 110.2409992 128.6144990  28.8669997
 109.8735865 127.8390299  29.0076174 110.2649992 115.9954990  30.4209997
 109.5289992 116.6054990  30.3839997 110.9489992 116.4104990  29.8949997
 110.2565367 116.1352562  30.3448156 123.9229992  40.2754990  81.9479997
 123.5759992  40.8924990  82.5929997 124.5809992  40.7764990  81.4669997
 123.9645290  40.4276384  81.9711635 103.2679992 114.0814990  27.8869997
 103.1509992 113.1334990  27.8329997 102.4129992 114.4144990  28.1599997
 103.1363691 113.9965842  27.9165072 108.2169992 129.4894990  25.6289997
 108.6419992 128.7824990  25.1439997 108.5339992 130.2914990  25.2119997
 108.3180266 129.5010201  25.5062461 109.3759992 127.3904990  24.1379997
 109.1189992 126.7004990  23.5259997 109.4469992 126.9474990  24.9829997
 109.3504322 127.2361568  24.1685372 111.0619992 125.9574990  32.6149997
 111.2019992 125.3654990  31.8759997 111.2299992 126.8304990  32.2589997
 111.1038734 125.9944041  32.4656937 105.5349992 122.9194990  22.3879997
 104.8229992 123.4544990  22.0359997 106.2259992 122.9744990  21.7279997
 105.5309704 123.0001663  22.2505797 105.5889992 121.3764990  19.4259997
 106.2899992 121.3994990  20.0779997 105.8909992 120.7484990  18.7699997
 105.7258202 121.2947223  19.4265591 112.9039992 122.2974990  30.6809997
 112.2519992 122.9914990  30.7699997 113.3689992 122.5074990  29.8709997
 112.8775357 122.4209544  30.5837056 108.9409992 123.1284990  23.3389997
 108.2089992 123.3574990  23.9119997 109.3879992 122.4154990  23.7939997
 108.9012753 123.0633984  23.4789698 108.8379992 121.3034990  32.4069997
 108.9179992 122.0664990  32.9789997 108.2369992 121.5824990  31.7169997
 108.7676547 121.4457468  32.3920029 100.5859992 123.7594990  25.2219997
 100.2559992 123.3884990  24.4039997 101.1739992 123.0884990  25.5689997
 100.6203182 123.6180648  25.1569898 120.8459992  54.6404990  79.0199997
 121.0069992  55.4404990  78.5189997 120.6489992  54.9474990  79.9049997
 120.8413919  54.7914140  79.0710988 101.9529992 127.1874990  27.9029997
 101.8579992 126.6084990  27.1469997 102.6819992 126.8164990  28.3989997
 102.0386011 127.0580572  27.8666011 100.9529992 122.5274990  28.8549997
 101.5179992 122.6494990  28.0929997 101.2709992 123.1654990  29.4939997
 101.0733619 122.6304388  28.8370019 107.2619992 128.0314990  29.5889997
 107.0209992 128.6934990  30.2369997 107.0639992 127.1964990  30.0139997
 107.2022662 128.0092704  29.7351008 101.8329992 126.9274990  33.5729997
 101.5209992 127.7094990  34.0279997 101.1829992 126.7744990  32.8869997
 101.7024858 127.0137882  33.5425344 107.8119992 122.2914990  21.0249997
 108.3909992 122.4414990  21.7709997 108.2259992 122.7614990  20.3009997
 107.9473358 122.3755966  21.0293935 105.5379992 129.0274990  24.4599997
 106.0119992 129.3234990  25.2369997 104.9749992 129.7664990  24.2269997
 105.5267890 129.1678047  24.5348084 100.0719992 128.9984990  34.3359997
 100.0799992 128.8624990  33.3889997  99.1559992 128.8814990  34.5879997
  99.9492528 128.9640475  34.2403226 111.5099992 114.0414990  20.8369997
 110.6099992 114.1794990  21.1329997 111.7619992 114.8724990  20.4359997
 111.4207727 114.1728705  20.8232935  99.5759992 122.8284990  22.8109997
  99.2839992 123.5964990  22.3199997  98.9019992 122.1694990  22.6479997
  99.4448843 122.8444537  22.7217695 112.6999992 128.4074990  19.2139997
 112.7729992 129.3464990  19.3839997 113.6049992 128.1024990  19.1579997
 112.8324170 128.4948294  19.2297045 119.5799992  41.3384990  78.6359997
 119.4969992  42.2264990  78.9819997 120.4699992  41.0734990  78.8669997
 119.6889751  41.4242482  78.7146066  95.6689992 125.1914990  31.6259997
  95.1679992 125.1634990  30.8109997  95.6749992 124.2864990  31.9359997
  95.6011690 125.0652234  31.5562770  95.4199992 127.9724990  28.5099997
  96.3659992 127.8274990  28.4909997  95.3069992 128.7564990  29.0469997
  95.5343578 128.0586708  28.5800300 113.6169992 128.6384990  34.1929997
 113.5679992 127.6824990  34.1549997 112.7909992 128.9054990  34.5939997
 113.4985096 128.5438416  34.2420698 104.5959992 128.2124990  33.0689997
 104.6829992 129.0384990  33.5439997 103.7319992 127.8824990  33.3179997
 104.4911944 128.2809871  33.1676558 105.0099992 131.9844990  22.8749997
 104.9349992 131.8634990  21.9279997 105.0429992 132.9334990  22.9929997
 105.0042083 132.0962639  22.7614973  98.6639992 130.7734990  24.6559997
  98.8159992 130.4254990  25.5339997  97.8129992 130.4164990  24.3999997
  98.5698344 130.6775891  24.7416851 108.1119992 131.1384990  19.8769997
 108.4869992 130.3944990  19.4059997 108.1159992 130.8684990  20.7949997
 108.1638969 131.0000920  19.9366475 107.7809992 131.0644990  22.6259997
 106.8459992 131.1644990  22.8049997 108.0609992 130.3544990  23.2049997
 107.6909471 130.9822944  22.7286678 100.5369992 114.9854990  28.6649997
  99.6749992 114.8984990  28.2569997 100.5149992 115.8414990  29.0929997
 100.4160557 115.0893078  28.6670202 105.1999992 114.7074990  32.0399997
 105.6199992 114.2924990  32.7929997 104.2669992 114.5284990  32.1569997
 105.1313736 114.6264921  32.1588950 129.7789992  42.0874990  91.0299997
 128.8629992  42.3494990  90.9419997 130.1149992  42.0844990  90.1329997
 129.6989789  42.1229637  90.8967829 108.5259992 118.4624990  32.8929997
 108.0119992 118.3374990  33.6909997 108.3709992 119.3754990  32.6489997
 108.4347802 118.5687433  32.9691504 109.2889992 123.3234990  18.6539997
 109.3309992 123.1014990  17.7239997 110.1379992 123.7224990  18.8439997
 109.4095253 123.3470510  18.5523804 104.8619992 117.1994990  19.3249997
 104.6079992 117.2184990  20.2469997 104.6049992 116.3284990  19.0229997
 104.7924508 117.0843292  19.4104786 100.6279992 119.9504990  29.7599997
  99.9859992 119.9104990  30.4689997 100.6649992 120.8774990  29.5219997
 100.5451659 120.0702540  29.8248463 100.6249992 120.1714990  24.6719997
  99.7319992 119.8314990  24.6129997 101.0759992 119.7944990  23.9159997
 100.5637185 120.0740220  24.5617698 106.1609992 120.5874990  23.4889997
 105.7519992 121.4024990  23.1969997 106.8809992 120.4474990  22.8749997
 106.2024439 120.6800383  23.3660098 107.1649992 120.0334990  26.3029997
 106.9699992 120.6394990  25.5879997 107.3469992 119.2004990  25.8689997
 107.1629195 120.0037936  26.1464079  98.3779992 120.2714990  31.6269997
  98.3399992 120.6714990  32.4959997  97.8869992 119.4544990  31.7169997
  98.3064374 120.2158228  31.7580980 101.7439992 117.6454990  18.4259997
 101.3129992 117.2004990  19.1549997 101.0259992 118.0164990  17.9129997
 101.5879176 117.6347063  18.4564913  94.9859992 117.3874990  25.4779997
  95.6169992 117.3584990  26.1969997  95.4359992 116.9624990  24.7469997
  95.1331082 117.3261269  25.4776307 128.3809992  45.8374990  85.1259997
 127.5839992  45.4224990  84.7969997 128.8259992  45.1474990  85.6169997
 128.3320317  45.6873197  85.1473556  96.2599992 118.1334990  20.9019997
  96.7349992 118.7244990  20.3169997  95.5429992 118.6634990  21.2489997
  96.2280406 118.2861011  20.8688495 106.4289992 121.6714990  30.9739997
 106.7529992 121.0404990  30.3309997 105.9889992 121.1374990  31.6349997
 106.4138707 121.5128261  30.9753195 103.2069992 117.5994990  25.7579997
 102.2959992 117.6564990  26.0469997 103.7119992 117.5394990  26.5689997
 103.1506873 117.5991838  25.9071190  98.0349992 119.2284990  24.5849997
  97.1459992 119.3274990  24.2449997  98.3309992 118.3864990  24.2389997
  97.9534001 119.1282473  24.4917318 101.6879992 119.2284990  22.2419997
 102.6199992 119.3574990  22.4199997 101.4729992 119.8974990  21.5919997
 101.7864472 119.3365817  22.1784873 107.6119992 116.8344990  29.0219997
 106.9349992 116.9654990  29.6859997 107.1259992 116.6794990  28.2119997
 107.4537265 116.8314665  29.0033380 100.3619992 120.4224990  19.8079997
  99.8199992 120.0434990  19.1169997 101.1959992 120.6174990  19.3799997
 100.4004390 120.3969091  19.6554374 104.5269992 120.3864990  27.6449997
 105.0909992 119.8404990  27.0979997 104.3789992 119.8654990  28.4339997
 104.5843037 120.2411798  27.6767212  99.5289992 116.5234990  24.0639997
  99.2109992 115.6204990  24.0279997 100.3099992 116.5254990  23.5109997
  99.5911079 116.4002240  23.9842908 103.1529992 118.7754990  30.0589997
 102.3179992 119.2294990  30.1699997 103.6769992 119.0514990  30.8109997
 103.1096072 118.8748960  30.1758118 116.1549992  44.4304990  76.8119997
 116.1099992  45.3694990  76.9909997 115.2669992  44.1944990  76.5419997
 116.0288472  44.5271946  76.8000282 103.6969992 124.9884990  21.7439997
 102.9519992 124.4804990  21.4219997 103.5629992 125.0374990  22.6899997
 103.5769334 124.9256144  21.8278892 110.8469992 124.1214990  30.5309997
 111.4889992 124.5774990  29.9869997 110.0169992 124.2344990  30.0679997
 110.8226536 124.1991813  30.3939579 107.5949992 117.8024990  19.9429997
 106.6559992 117.9134990  19.7919997 107.8919992 118.6584990  20.2499997
 107.5066136 117.9334977  19.9638568 105.2169992 125.1724990  32.9809997
 104.8709992 124.7904990  33.7879997 105.0169992 126.1054990  33.0519997
 105.1425987 125.2464013  33.1010443 108.3129992 119.6694990  21.6039997
 109.2049992 119.5314990  21.9229997 108.3699992 120.4604990  21.0669997
 108.4427380 119.7574777  21.5750981  98.8219992 124.2834990  27.5139997
  99.5669992 124.2804990  26.9119997  98.8999992 123.4594990  27.9949997
  98.9343365 124.1717395  27.4967412 105.8229992 126.4464990  20.7689997
 105.5279992 127.2734990  21.1509997 105.1199992 125.8274990  20.9659997
 105.6876379 126.4759182  20.8478636  95.8299992 122.7434990  32.8289997
  96.0529992 122.3254990  33.6599997  95.2279992 122.1314990  32.4059997
  95.7791513 122.6034617  32.8856722 102.8469992 122.2604990  35.0419997
 102.5509992 122.0954990  34.1459997 103.7779992 122.0404990  35.0309997
 102.9324401 122.2081891  34.9180189 113.1979992 119.8784990  21.2989997
 112.6439992 119.4824990  20.6259997 113.2989992 120.7894990  21.0209997
 113.1358589 119.9473904  21.1693839 129.4679992  55.0934990  86.7479997
 129.3119992  55.7724990  86.0909997 130.3999992  55.1654990  86.9509997
 129.5727328  55.1961586  86.6855529 111.4929992 128.6644990  21.7639997
 111.1209992 127.8394990  22.0729997 111.7709992 128.4814990  20.8659997
 111.4795807 128.5267031  21.6850063 108.6539992 123.4724990  28.7849997
 107.7259992 123.2414990  28.7579997 109.1049992 122.6954990  28.4549997
 108.5878165 123.3357785  28.7366772 101.1969992 127.8014990  24.9179997
 101.7239992 128.5744990  24.7179997 100.3169992 128.0254990  24.6159997
 101.1502121 127.9377344  24.8497460  96.9519992 122.6634990  19.5049997
  97.5679992 123.2904990  19.8849997  96.0899992 122.9794990  19.7769997
  96.9197678 122.7919423  19.5937192 102.6239992 125.4644990  24.4939997
 102.3829992 126.3894990  24.5359997 101.8839992 125.0054990  24.8909997
 102.4909463 125.5290969  24.5534279 103.1389992 129.6134990  30.8089997
 103.5019992 130.4674990  30.5759997 103.6709992 129.3214990  31.5499997
 103.2605141 129.6908907  30.8772079 101.3069992 130.4854990  24.0399997
 100.3579992 130.5914990  24.0909997 101.6589992 131.3064990  24.3839997
 101.2245647 130.6110029  24.0934882 106.6829992 125.7124990  30.5099997
 106.2569992 125.4844990  31.3359997 107.2639992 124.9734990  30.3279997
 106.7032088 125.5814393  30.5984454 108.8859992 126.6414990  19.5839997
 109.2389992 126.2614990  20.3879997 107.9369992 126.5474990  19.6709997
 108.8060956 126.5767867  19.7058005 109.3419992 130.2644990  32.9789997
 108.7399992 129.7084990  32.4839997 109.6229992 130.9314990  32.3529997
 109.2975757 130.2785755  32.8265657 116.9629992  39.2114990  85.4849997
 116.7339992  39.2704990  84.5579997 116.5199992  38.4204990  85.7919997
 116.8717387  39.1126412  85.3995223 113.3889992 131.1204990  19.7849997
 114.1329992 131.7064990  19.6449997 112.6949992 131.6894990  20.1179997
 113.3969809 131.2775830  19.8108572  97.4639992 117.4974990  32.3869997
  96.5709992 117.8354990  32.3189997  97.3649992 116.6414990  32.8049997
  97.3284752 117.4280986  32.4341644 109.7519992 125.3134990  21.8109997
 109.4749992 124.5854990  22.3669997 110.6789992 125.4324990  22.0159997
 109.8394419 125.2299436  21.9148264  97.1149992 129.3014990  30.8219997
  97.3319992 128.3694990  30.7909997  97.3619992 129.5764990  31.7049997
  97.1780948 129.2110976  30.9371268 102.9769992 127.7534990  18.0309997
 103.2159992 127.0044990  17.4839997 102.7079992 127.3654990  18.8639997
 102.9733233 127.5986865  18.0687791 101.9139992 127.3234990  20.4869997
 102.0609992 126.8034990  21.2769997 101.9109992 128.2304990  20.7939997
 101.9337102 127.3748964  20.6365907  98.3669992 124.5754990  20.9979997
  97.6809992 124.9284990  21.5649997  98.8899992 125.3384990  20.7509997
  98.3438402 124.7268912  21.0421783 106.1979992 117.2384990  31.2769997
 106.8969992 117.3124990  31.9269997 105.8179992 116.3734990  31.4309997
 106.2422662 117.1317050  31.3867412 106.9829992 116.8904990  22.3739997
 107.2029992 117.3614990  21.5699997 107.5409992 117.2844990  23.0439997
 107.0886044 117.0082946  22.3545207 104.6519992 129.0204990  21.2369997
 103.8349992 129.5174990  21.2889997 105.1809992 129.4964990  20.5959997
 104.6118125 129.1527000  21.1575289 115.8929992  53.1524990  81.6459997
 115.0609992  53.6244990  81.6729997 116.4389992  53.6624990  81.0469997
 115.8528710  53.2860317  81.5687570 104.1829992 118.6184990  23.2089997
 104.9949992 119.1224990  23.2549997 103.9379992 118.4734990  24.1229997
 104.2611091 118.6679366  23.3388552 104.7189992 119.6044990  32.3929997
 104.8379992 120.1784990  33.1499997 105.3739992 118.9164990  32.5079997
 104.8238684 119.5900205  32.5121656 105.0669992 115.6994990  24.1469997
 104.7199992 116.3164990  24.7909997 105.7249992 116.2004990  23.6649997
 105.1084430 115.8516860  24.1700046 101.9899992 130.0644990  21.2179997
 102.1509992 130.8644990  20.7179997 101.7929992 130.3714990  22.1029997
 101.9853906 130.2153690  21.2692316 100.7239992 116.7624990  20.8339997
 100.6409992 117.6504990  21.1809997 101.6139992 116.4974990  21.0659997
 100.8329331 116.8481177  20.9128067 110.9229992 117.5114990  33.2279997
 110.0069992 117.7734990  33.1409997 111.2589992 117.5084990  32.3319997
 110.8428499 117.5470174  33.0948748 109.5249992 121.2614990  27.3239997
 108.7279992 120.8464990  26.9959997 109.9699992 120.5714990  27.8149997
 109.4760367 121.1113372  27.3454897  98.9829992 127.1894990  19.8939997
  99.5749992 127.8894990  20.1709997  99.4419992 126.7564990  19.1749997
  99.1261652 127.2267686  19.8346515  97.2989992 119.8544990  19.0099997
  97.2539992 120.7934990  19.1889997  96.4109992 119.6184990  18.7409997
  97.1728166 119.9511698  18.9981507 110.6119992 130.5174990  28.9459997
 110.4559992 131.1964990  28.2889997 111.5439992 130.5894990  29.1489997
 110.7167328 130.6201586  28.8835529 115.1819992  55.7644990  92.9759997
 115.7219992  55.5484990  93.7349997 114.6999992  54.9594990  92.7859997
 115.1909101  55.6260216  93.0544364  98.1069992 114.6354990  27.6829997
  97.8779992 114.6944990  26.7559997  97.6639992 113.8444990  27.9899997
  98.0157387 114.5366412  27.5975223  97.0369992 128.5764990  23.8439997
  96.2049992 129.0484990  23.8709997  97.5829992 129.0864990  23.2449997
  96.9968710 128.7100317  23.7667570  96.3259992 131.1884990  35.1739997
  96.8659992 130.9724990  35.9339997  95.8439992 130.3834990  34.9839997
  96.3348485 131.0500463  35.2524870 105.0149992 129.6164990  18.1689997
 104.3709992 128.9854990  18.4909997 105.7769992 129.0854990  17.9379997
 105.0298708 129.4583171  18.1818461 109.6189992 129.4334990  18.4029997
 109.9019992 128.6384990  18.8559997 110.3589992 129.6664990  17.8419997
 109.7577295 129.3562349  18.3891469 100.5739992 125.3424990  18.2609997
 100.6379992 124.5484990  18.7909997 101.2269992 125.2244990  17.5709997
 100.6710483 125.2177496  18.2403407 105.9259992 126.3894990  17.9969997
 105.6579992 126.5704990  18.8969997 105.7199992 125.4644990  17.8649997
 105.8613443 126.2891873  18.1026643 108.6229992 124.8844990  32.9439997
 109.3679992 125.4734990  32.8249997 107.8649992 125.4664990  33.0069997
 108.6225289 125.0437067  32.9362292 101.7229992 123.3154990  20.5669997
 101.2639992 122.8314990  21.2519997 101.9779992 122.6464990  19.9309997
 101.6945997 123.1588491  20.5748734 101.0119992 121.2084990  32.9229997
 100.3939992 121.8824990  33.2029997 101.3559992 121.5294990  32.0889997
 100.9738078 121.3442298  32.8486609 119.7789992  54.6844990  94.5959997
 120.5469992  54.2254990  94.9369997 119.7579992  54.4584990  93.6659997
 119.8812135  54.5911680  94.5169473 102.7939992 121.5584990  18.8289997
 102.6139992 121.4034990  17.9019997 103.7439992 121.6664990  18.8739997
 102.8977804 121.5518821  18.7081966 112.1839992 123.9124990  18.2749997
 111.9109992 123.4884990  17.4619997 112.2239992 124.8444990  18.0579997
 112.1520201 123.9803523  18.1343548 101.7639992 116.9324990  31.4979997
 102.2999992 117.3844990  30.8459997 100.9119992 116.8244990  31.0749997
 101.7221795 116.9797444  31.3516211 103.3459992 122.3724990  31.7369997
 104.0969992 122.2164990  31.1639997 103.0069992 123.2244990  31.4619997
 103.4029587 122.4663149  31.6214060 102.5699992 114.3894990  31.9289997
 102.4719992 115.3354990  31.8239997 101.8269992 114.0164990  31.4529997
 102.4562123 114.4686811  31.8503204 102.6919992 132.2484990  19.8299997
 103.6249992 132.4064990  19.9739997 102.4269992 132.9244990  19.2049997
 102.7839846 132.3614567  19.7652930  96.2599992 126.8854990  19.3129997
  97.1739992 126.9644990  19.5859997  96.2669992 126.1984990  18.6469997
  96.3860624 126.8034074  19.2603045  94.9089992 132.2784990  24.3899997
  94.2619992 131.8164990  23.8579997  95.2639992 131.6064990  24.9729997
  94.8683741 132.1244785  24.3959157  95.7789992 130.3584990  26.1949997
  95.4449992 129.4784990  26.3669997  96.0009992 130.7044990  27.0599997
  95.7632565 130.2847410  26.3354263 113.3279992 131.1684990  29.1759997
 113.3059992 131.3534990  30.1139997 114.0179992 131.7364990  28.8349997
 113.4183383 131.2707104  29.2584580 126.3559992  53.0644990  93.3249997
 126.0049992  52.2074990  93.5679997 127.0819992  53.2064990  93.9319997
 126.4061590  52.9665189  93.4402889 112.8909992 130.7354990  32.0969997
 112.4039992 129.9994990  31.7259997 113.4399992 130.3414990  32.7749997
 112.8986101 130.5816267  32.1379034 112.6429992 124.7814990  22.2499997
 113.4929992 125.2024990  22.3769997 112.6479992 124.0414990  22.8569997
 112.7601143 124.7391106  22.3494732 113.0369992 122.8354990  24.0729997
 112.3109992 122.3554990  24.4709997 113.6179992 123.0404990  24.8049997
 113.0162504 122.7975592  24.2264199 112.7959992 125.6204990  29.0209997
 113.6299992 125.2424990  28.7399997 112.9079992 126.5634990  28.9019997
 112.9251917 125.6962954  28.9664844 111.2819992 128.4984990  31.3279997
 110.6349992 128.8234990  31.9529997 110.7649992 128.0574990  30.6539997
 111.1234112 128.4834133  31.3225272 113.3049992 122.7364990  20.4639997
 112.7839992 123.0924990  19.7459997 113.2719992 123.4114990  21.1429997
 113.2290955 122.8765023  20.4572634 111.6539992 119.9754990  19.0149997
 111.7509992 120.6424990  18.3349997 111.5139992 119.1604990  18.5339997
 111.6483407 119.9565670  18.8568312 110.8239992 121.3564990  24.6359997
 110.6739992 120.4114990  24.6159997 110.4699992 121.6374990  25.4799997
 110.7556351 121.2651656  24.7473202  95.8589992 123.4344990  28.6469997
  96.0429992 123.3524990  27.7109997  96.7079992 123.3104990  29.0699997
  95.9990132 123.4065066  28.5761460 110.9019992 117.3834990  18.1329997
 111.5119992 117.0124990  18.7699997 110.0649992 116.9624990  18.3289997
 110.8723704 117.2757942  18.2467077 115.0889992  49.5754990  93.9299997
 115.2329992  48.6734990  93.6439997 114.3159992  49.8614990  93.4419997
 115.0042854  49.4906876  93.8249363 110.5339992 118.9384990  23.0989997
 110.8139992 118.0314990  23.2229997 111.2929992 119.3724990  22.7099997
 110.6749258 118.8730935  23.0633691 111.1459992 119.5204990  28.5349997
 112.0789992 119.7324990  28.4999997 110.9109992 119.6214990  29.4569997
 111.2419517 119.5631844  28.6549113 111.1749992 120.2574990  31.3109997
 110.3319992 120.5254990  31.6759997 111.6179992 121.0794990  31.0999997
 111.1194035 120.4053351  31.3324770 111.1479992 116.2014990  23.1469997
 111.3299992 115.7524990  23.9719997 110.5479992 115.6174990  22.6829997
 111.0918187 116.0610563  23.1972721  96.6779992 117.0174990  27.6789997
  97.1229992 116.2254990  27.9809997  97.1439992 117.7334990  28.1089997
  96.8019718 117.0059546  27.7785247  94.9819992 120.0164990  28.7479997
  95.4739992 119.7954990  27.9569997  95.3439992 120.8564990  29.0289997
  95.0982923 120.0998480  28.6777389 113.0139992 116.2694990  19.6749997
 113.4269992 115.5484990  19.1999997 113.6959992 116.9384990  19.7329997
 113.1626060 116.2613741  19.6179233  95.2949992 116.2744990  22.8019997
  94.3699992 116.4824990  22.6729997  95.7489992 116.7584990  22.1119997
  95.2296298 116.3684311  22.6910433 110.0659992 131.2584990  24.7479997
 110.7179992 130.9104990  24.1399997 110.5769992 131.7464990  25.3939997
 110.2242872 131.2768248  24.7520964  95.2589992 115.0124990  31.1459997
  94.5939992 114.7664990  31.7889997  94.8159992 115.6344990  30.5689997
  95.1081168 115.0629225  31.1559830 121.7439992  49.5444990  93.3629997
 121.4159992  49.8154990  92.5049997 121.8959992  48.6034990  93.2749997
 121.7196970  49.4543694  93.2337953  97.4509992 128.1874990  35.2909997
  96.6299992 128.3624990  34.8299997  97.1989992 128.1144990  36.2109997
  97.3045594 128.2015728  35.3523593 100.4049992 129.1614990  31.5489997
  99.9799992 129.9714990  31.2669997 101.3089992 129.2474990  31.2469997
 100.4690706 129.2839557  31.4695836 104.7159992 130.5604990  34.5089997
 104.9009992 130.2274990  35.3869997 105.5629992 130.8704990  34.1869997
 104.8557291 130.5568214  34.5856140 107.0609992 131.8464990  33.7529997
 107.7379992 131.2134990  33.5129997 107.3829992 132.2474990  34.5599997
 107.1971618 131.8141147  33.8292802 111.9789992 114.4364990  32.8319997
 111.1659992 114.7614990  32.4449997 112.2119992 113.6754990  32.2989997
 111.8991347 114.3781891  32.7069824  97.8069992 132.4184990  31.5969997
  97.0859992 132.8584990  31.1459997  97.4409992 132.1674990  32.4449997
  97.6589632 132.4447235  31.6499649 100.2739992 132.0184990  30.6259997
  99.4089992 132.0904990  31.0299997 100.2189992 132.5654990  29.8429997
 100.1482289 132.1023242  30.5753749 104.9849992 131.9064990  29.8019997
 104.5279992 132.4354990  29.1479997 105.1469992 132.5094990  30.5269997
 104.9443919 132.0603990  29.8105740 107.3119992 130.7844990  30.7469997
 106.4079992 130.9494990  30.4809997 107.7409992 131.6374990  30.6809997
 107.2462017 130.9224184  30.7016495 109.9159992 132.3544990  31.0419997
 109.7349992 133.2704990  30.8309997 110.0929992 131.9434990  30.1949997
 109.9151377 132.4243365  30.8987178 127.4789992  49.4604990  90.7459997
 128.2239992  50.0494990  90.6259997 126.7209992  50.0424990  90.8089997
 127.4785185  49.6197000  90.7380940  97.2219992 131.0414990  28.5069997
  97.2029992 130.6154990  29.3639997  98.0259992 130.7224990  28.0979997
  97.3281393 130.9400297  28.5690155  99.3629992 129.7514990  27.1619997
  99.1439992 128.8344990  27.3319997 100.1869992 129.8914990  27.6279997
  99.4444702 129.6450523  27.2482510 101.8999992 130.2214990  28.0109997
 102.1129992 129.3334990  27.7239997 101.9649992 130.1864990  28.9649997
 101.9379149 130.0953338  28.1007351 105.4089992 115.8854990  27.1549997
 104.7339992 115.2554990  27.4109997 105.9729992 115.4014990  26.5519997
 105.3929363 115.7338886  27.1084810 110.5509992 113.9924990  27.2679997
 111.1549992 114.5404990  26.7659997 109.6819992 114.3114990  27.0269997
 110.5160419 114.1105628  27.1667741 112.2779992 115.1314990  25.6009997
 112.8899992 114.6174990  25.0739997 112.6609992 116.0084990  25.6239997
 112.4133867 115.1797613  25.5320888  97.7349992 114.5194990  24.9769997
  96.9579992 114.2844990  24.4699997  98.2659992 113.7224990  24.9859997
  97.7003735 114.3796462  24.9088090  96.5719992 114.3174990  20.7809997
  97.0109992 114.9284990  20.1889997  95.9379992 114.8554990  21.2549997
  96.5463859 114.4739076  20.7640287 102.3149992 114.4454990  24.7899997
 103.1889992 114.8344990  24.7609997 102.1789992 114.2304990  25.7129997
 102.4161953 114.4696654  24.9107599 107.8709992 114.4754990  26.4399997
 107.9479992 114.5714990  25.4899997 107.5959992 113.5684990  26.5679997
 107.8443233 114.3659093  26.3273665 115.9209992  46.7754990  93.3499997
 116.3289992  45.9184990  93.2289997 115.6609992  46.7894990  94.2709997
 115.9417082  46.6600596  93.4579469 109.2249992 114.5014990  22.1319997
 108.5219992 115.1164990  21.9219997 108.7799992 113.6644990  22.2629997
 109.0686550 114.4724679  22.1209819  96.4729992 130.2654990  21.6779997
  95.7879992 130.2274990  21.0109997  96.4759992 131.1774990  21.9659997
  96.3796806 130.3836669  21.6256961  98.4329992 116.2334990  19.2229997
  98.9239992 115.6034990  18.6959997  99.0559992 116.5294990  19.8859997
  98.5845304 116.1872387  19.2404922 103.4589992 116.5264990  21.6799997
 103.6369992 115.8794990  22.3629997 103.4049992 117.3604990  22.1469997
 103.4760678 116.5506615  21.8366283 105.3369992 131.4744990  20.0759997
 106.2029992 131.8414990  19.8979997 105.0899992 131.0354990  19.2619997
 105.4221853 131.4654021  19.9415813 112.0459992 131.0374990  22.7549997
 111.8519992 130.2894990  22.1899997 112.0069992 131.7954990  22.1719997
 112.0141645 131.0375797  22.5988131  98.2909992 131.1854990  18.7029997
  98.0229992 131.4714990  19.5769997  99.0619992 130.6394990  18.8559997
  98.3585926 131.1507790  18.8431188 125.6699992 123.6754990  24.9359997
 125.7589992 124.6194990  24.8029997 125.0309992 123.4004990  24.2779997
 125.5958378 123.7673846  24.8289258 124.6029992 122.9304990  28.3549997
 124.5639992 122.2844990  29.0599997 124.2799992 122.4634990  27.5829997
 124.5540469 122.7790005  28.3472803 116.9709992 122.5444990  29.9479997
 117.0119992 121.9194990  30.6709997 117.6739992 123.1684990  30.1299997
 117.0716223 122.5432318  30.0716164 119.8679992  45.7844990  90.7239997
 119.2499992  46.4584990  91.0049997 120.2119992  46.1054990  89.8909997
 119.8298181  45.9203233  90.6498266 128.3089992 125.8694990  26.6559997
 127.8679992 125.1494990  27.1069997 128.2959992 126.5904990  27.2859997
 128.2469215 125.8684303  26.8028088 117.8949992 126.9944990  28.4829997
 117.5249992 126.1924990  28.1129997 118.8359992 126.8264990  28.5289997
 117.9715984 126.8619649  28.4385586 114.5049992 120.6544990  23.8749997
 114.0569992 121.5004990  23.8569997 113.9439992 120.0754990  23.3599997
 114.3678546 120.6919004  23.8028874 115.2149992 122.8164990  26.0009997
 115.4289992 122.0464990  26.5279997 115.9529992 122.9064990  25.3979997
 115.3440073 122.7233546  25.9915786 125.4199992 130.9734990  26.8679997
 126.0399992 130.2974990  26.5949997 125.2119992 130.7554990  27.7769997
 125.4767679 130.8515032  26.9534518 122.9919992 125.3624990  28.7609997
 123.2959992 124.6764990  28.1659997 123.7139992 125.4814990  29.3789997
 123.1311240 125.2847325  28.7630941 131.6549992 116.9644990  29.6209997
 131.7039992 117.5744990  30.3569997 132.0809992 117.4254990  28.8979997
 131.7192851 117.1103266  29.6240532 126.1329992 119.7564990  29.0879997
 126.2749992 118.8104990  29.1079997 126.0269992 119.9634990  28.1599997
 126.1381051 119.6549706  28.9652249 119.2879992 117.8584990  26.3609997
 119.3309992 118.7184990  25.9419997 118.8299992 117.3054990  25.7269997
 119.2320163 117.9014174  26.2180604 127.0099992 117.9894990  24.7609997
 127.6559992 117.6604990  25.3859997 127.5199992 118.5064990  24.1389997
 127.1674289 118.0144333  24.7623681 124.8879992  48.2554990  94.0019997
 125.8409992  48.3394990  93.9739997 124.7279992  47.5434990  94.6209997
 124.9968161  48.1707198  94.0818689 115.9079992 120.2554990  27.1229997
 116.5619992 119.7054990  27.5549997 115.9319992 119.9814990  26.2059997
 116.0007199 120.1432178  27.0581650 121.0639992 121.8054990  26.3379997
 121.6799992 121.2784990  26.8469997 120.4779992 121.1654990  25.9339997
 121.0690652 121.6468919  26.3530277 132.0469992 118.4424990  31.8569997
 131.3579992 119.1004990  31.7619997 132.0619992 118.2444990  32.7939997
 131.9547756 118.5057614  31.9705795 118.0979992 116.7764990  30.4349997
 117.8789992 117.3064990  29.6679997 117.4299992 117.0024990  31.0819997
 117.9776975 116.8795979  30.4175123 125.4669992 126.2764990  23.9789997
 125.1709992 125.9534990  23.1269997 125.1429992 127.1764990  24.0199997
 125.3827458 126.3539678  23.8680598 120.6669992 124.4514990  30.7219997
 119.9269992 125.0504990  30.8259997 121.3809992 125.0054990  30.4059997
 120.6623146 124.6082611  30.6935150 128.7739992 117.2804990  26.7419997
 128.5589992 116.5144990  27.2749997 129.4299992 117.7524990  27.2549997
 128.8332673 117.2395739  26.8841972 117.6919992 118.6684990  28.3869997
 118.3049992 119.3014990  28.7599997 118.2039992 118.1964990  27.7309997
 117.8451933 118.6913380  28.3493477 119.0739992 126.4164990  31.5089997
 119.0689992 127.2954990  31.1309997 118.2209992 126.3324990  31.9339997
 118.9579199 126.5255901  31.5146942 115.1959992 126.0874990  22.2909997
 114.9239992 126.3164990  21.4019997 115.2409992 126.9244990  22.7519997
 115.1648360 126.2321034  22.2316186 131.0399992  48.4884990  76.0759997
 130.7669992  48.0644990  75.2629997 131.0799992  49.4204990  75.8589997
 131.0080201  48.5563523  75.9353548 128.8209992 127.7084990  29.0039997
 127.8789992 127.7674990  29.1659997 129.0969992 128.6144990  28.8669997
 128.7295865 127.8390299  29.0076174 129.1209992 115.9954990  30.4209997
 128.3849992 116.6054990  30.3839997 129.8049992 116.4104990  29.8949997
 129.1125367 116.1352562  30.3448156 122.1239992 114.0814990  27.8869997
 122.0069992 113.1334990  27.8329997 121.2689992 114.4144990  28.1599997
 121.9923691 113.9965842  27.9165072 127.0729992 129.4894990  25.6289997
 127.4979992 128.7824990  25.1439997 127.3899992 130.2914990  25.2119997
 127.1740266 129.5010201  25.5062461 128.2319992 127.3904990  24.1379997
 127.9749992 126.7004990  23.5259997 128.3029992 126.9474990  24.9829997
 128.2064322 127.2361568  24.1685372 129.9179992 125.9574990  32.6149997
 130.0579992 125.3654990  31.8759997 130.0859992 126.8304990  32.2589997
 129.9598734 125.9944041  32.4656937 124.3909992 122.9194990  22.3879997
 123.6789992 123.4544990  22.0359997 125.0819992 122.9744990  21.7279997
 124.3869704 123.0001663  22.2505797 124.4449992 121.3764990  19.4259997
 125.1459992 121.3994990  20.0779997 124.7469992 120.7484990  18.7699997
 124.5818202 121.2947223  19.4265591 131.7599992 122.2974990  30.6809997
 131.1079992 122.9914990  30.7699997 132.2249992 122.5074990  29.8709997
 131.7335357 122.4209544  30.5837056 127.7969992 123.1284990  23.3389997
 127.0649992 123.3574990  23.9119997 128.2439992 122.4154990  23.7939997
 127.7572753 123.0633984  23.4789698 120.2079992  43.1394990  91.8069997
 120.3579992  42.4104990  91.2039997 120.2099992  43.9164990  91.2479997
 120.2287664  43.1448971  91.6490525 127.6939992 121.3034990  32.4069997
 127.7739992 122.0664990  32.9789997 127.0929992 121.5824990  31.7169997
 127.6236547 121.4457468  32.3920029 119.4419992 123.7594990  25.2219997
 119.1119992 123.3884990  24.4039997 120.0299992 123.0884990  25.5689997
 119.4763182 123.6180648  25.1569898 120.8089992 127.1874990  27.9029997
 120.7139992 126.6084990  27.1469997 121.5379992 126.8164990  28.3989997
 120.8946011 127.0580572  27.8666011 119.8089992 122.5274990  28.8549997
 120.3739992 122.6494990  28.0929997 120.1269992 123.1654990  29.4939997
 119.9293619 122.6304388  28.8370019 126.1179992 128.0314990  29.5889997
 125.8769992 128.6934990  30.2369997 125.9199992 127.1964990  30.0139997
 126.0582662 128.0092704  29.7351008 126.6679992 122.2914990  21.0249997
 127.2469992 122.4414990  21.7709997 127.0819992 122.7614990  20.3009997
 126.8033358 122.3755966  21.0293935 124.3939992 129.0274990  24.4599997
 124.8679992 129.3234990  25.2369997 123.8309992 129.7664990  24.2269997
 124.3827890 129.1678047  24.5348084 118.9279992 128.9984990  34.3359997
 118.9359992 128.8624990  33.3889997 118.0119992 128.8814990  34.5879997
 118.8052528 128.9640475  34.2403226 130.3659992 114.0414990  20.8369997
 129.4659992 114.1794990  21.1329997 130.6179992 114.8724990  20.4359997
 130.2767727 114.1728705  20.8232935 118.4319992 122.8284990  22.8109997
 118.1399992 123.5964990  22.3199997 117.7579992 122.1694990  22.6479997
 118.3008843 122.8444537  22.7217695 120.6199992  41.5084990  89.2989997
 121.1559992  41.9604990  88.6469997 119.7679992  41.4004990  88.8769997
 120.5781648  41.5557883  89.1526395 131.5559992 128.4074990  19.2139997
 131.6289992 129.3464990  19.3839997 132.4609992 128.1024990  19.1579997
 131.6884170 128.4948294  19.2297045 114.5249992 125.1914990  31.6259997
 114.0239992 125.1634990  30.8109997 114.5309992 124.2864990  31.9359997
 114.4571690 125.0652234  31.5562770 114.2759992 127.9724990  28.5099997
 115.2219992 127.8274990  28.4909997 114.1629992 128.7564990  29.0469997
 114.3903578 128.0586708  28.5800300 123.8659992 131.9844990  22.8749997
 123.7909992 131.8634990  21.9279997 123.8989992 132.9334990  22.9929997
 123.8602083 132.0962639  22.7614973 117.5199992 130.7734990  24.6559997
 117.6719992 130.4254990  25.5339997 116.6689992 130.4164990  24.3999997
 117.4258344 130.6775891  24.7416851 126.9679992 131.1384990  19.8769997
 127.3429992 130.3944990  19.4059997 126.9719992 130.8684990  20.7949997
 127.0198969 131.0000920  19.9366475 126.6369992 131.0644990  22.6259997
 125.7019992 131.1644990  22.8049997 126.9169992 130.3544990  23.2049997
 126.5469471 130.9822944  22.7286678 116.7739992 126.5154990  32.6689997
 116.9899992 126.1534990  33.5289997 115.9189992 126.1404990  32.4599997
 116.6879082 126.4153377  32.7582396 119.3929992 114.9854990  28.6649997
 118.5309992 114.8984990  28.2569997 119.3709992 115.8414990  29.0929997
 119.2720557 115.0893078  28.6670202 124.0559992 114.7074990  32.0399997
 124.4759992 114.2924990  32.7929997 123.1229992 114.5284990  32.1569997
 123.9873736 114.6264921  32.1588950 122.2019992  46.9484990  89.5389997
 122.9529992  46.7924990  88.9659997 121.8629992  47.8004990  89.2629997
 122.2589052  47.0422745  89.4233469 127.3819992 118.4624990  32.8929997
 126.8679992 118.3374990  33.6909997 127.2269992 119.3754990  32.6489997
 127.2907802 118.5687433  32.9691504 128.1449992 123.3234990  18.6539997
 128.1869992 123.1014990  17.7239997 128.9939992 123.7224990  18.8439997
 128.2655253 123.3470510  18.5523804 123.7179992 117.1994990  19.3249997
 123.4639992 117.2184990  20.2469997 123.4609992 116.3284990  19.0229997
 123.6484508 117.0843292  19.4104786 119.4839992 119.9504990  29.7599997
 118.8419992 119.9104990  30.4689997 119.5209992 120.8774990  29.5219997
 119.4011659 120.0702540  29.8248463 119.4809992 120.1714990  24.6719997
 118.5879992 119.8314990  24.6129997 119.9319992 119.7944990  23.9159997
 119.4197185 120.0740220  24.5617698 125.0169992 120.5874990  23.4889997
 124.6079992 121.4024990  23.1969997 125.7369992 120.4474990  22.8749997
 125.0584439 120.6800383  23.3660098 126.0209992 120.0334990  26.3029997
 125.8259992 120.6394990  25.5879997 126.2029992 119.2004990  25.8689997
 126.0189195 120.0037936  26.1464079 117.2339992 120.2714990  31.6269997
 117.1959992 120.6714990  32.4959997 116.7429992 119.4544990  31.7169997
 117.1624373 120.2158228  31.7580980 120.5999992 117.6454990  18.4259997
 120.1689992 117.2004990  19.1549997 119.8819992 118.0164990  17.9129997
 120.4439176 117.6347063  18.4564913 113.8419992 117.3874990  25.4779997
 114.4729992 117.3584990  26.1969997 114.2919992 116.9624990  24.7469997
 113.9891082 117.3261269  25.4776307 126.6179992  44.7634990  94.5669997
 126.8099992  43.8324990  94.4559997 127.4749992  45.1884990  94.5569997
 126.7602320  44.6934743  94.5504433 115.1159992 118.1334990  20.9019997
 115.5909992 118.7244990  20.3169997 114.3989992 118.6634990  21.2489997
 115.0840406 118.2861011  20.8688495 125.2849992 121.6714990  30.9739997
 125.6089992 121.0404990  30.3309997 124.8449992 121.1374990  31.6349997
 125.2698707 121.5128261  30.9753195 122.0629992 117.5994990  25.7579997
 121.1519992 117.6564990  26.0469997 122.5679992 117.5394990  26.5689997
 122.0066873 117.5991838  25.9071190 116.8909992 119.2284990  24.5849997
 116.0019992 119.3274990  24.2449997 117.1869992 118.3864990  24.2389997
 116.8094001 119.1282473  24.4917318 120.5439992 119.2284990  22.2419997
 121.4759992 119.3574990  22.4199997 120.3289992 119.8974990  21.5919997
 120.6424472 119.3365817  22.1784873 126.4679992 116.8344990  29.0219997
 125.7909992 116.9654990  29.6859997 125.9819992 116.6794990  28.2119997
 126.3097265 116.8314665  29.0033380 119.2179992 120.4224990  19.8079997
 118.6759992 120.0434990  19.1169997 120.0519992 120.6174990  19.3799997
 119.2564390 120.3969091  19.6554374 123.3829992 120.3864990  27.6449997
 123.9469992 119.8404990  27.0979997 123.2349992 119.8654990  28.4339997
 123.4403037 120.2411798  27.6767212 118.3849992 116.5234990  24.0639997
 118.0669992 115.6204990  24.0279997 119.1659992 116.5254990  23.5109997
 118.4471079 116.4002240  23.9842908 122.0089992 118.7754990  30.0589997
 121.1739992 119.2294990  30.1699997 122.5329992 119.0514990  30.8109997
 121.9656072 118.8748960  30.1758118 127.9339992  47.5524990  92.6449997
 127.6529992  48.2614990  92.0669997 128.8769992  47.4794990  92.4939997
 128.0229272  47.6396704  92.5454976 122.5529992 124.9884990  21.7439997
 121.8079992 124.4804990  21.4219997 122.4189992 125.0374990  22.6899997
 122.4329334 124.9256144  21.8278892 129.7029992 124.1214990  30.5309997
 130.3449992 124.5774990  29.9869997 128.8729992 124.2344990  30.0679997
 129.6786536 124.1991813  30.3939579 126.4509992 117.8024990  19.9429997
 125.5119992 117.9134990  19.7919997 126.7479992 118.6584990  20.2499997
 126.3626136 117.9334977  19.9638568 124.0729992 125.1724990  32.9809997
 123.7269992 124.7904990  33.7879997 123.8729992 126.1054990  33.0519997
 123.9985987 125.2464013  33.1010443 127.1689992 119.6694990  21.6039997
 128.0609992 119.5314990  21.9229997 127.2259992 120.4604990  21.0669997
 127.2987380 119.7574777  21.5750981 117.6779992 124.2834990  27.5139997
 118.4229992 124.2804990  26.9119997 117.7559992 123.4594990  27.9949997
 117.7903365 124.1717395  27.4967412 124.6789992 126.4464990  20.7689997
 124.3839992 127.2734990  21.1509997 123.9759992 125.8274990  20.9659997
 124.5436379 126.4759182  20.8478636 126.3229992 127.6344990  32.9309997
 125.4219992 127.8174990  32.6639997 126.3569992 127.8934990  33.8519997
 126.2043861 127.6945245  33.0189517 132.0539992 119.8784990  21.2989997
 131.4999992 119.4824990  20.6259997 132.1549992 120.7894990  21.0209997
 131.9918589 119.9473904  21.1693839 130.3489992 128.6644990  21.7639997
 129.9769992 127.8394990  22.0729997 130.6269992 128.4814990  20.8659997
 130.3355807 128.5267031  21.6850063 118.6859992  44.3374990  93.7179997
 117.9189992  43.8044990  93.5079997 119.3649992  44.0274990  93.1189997
 118.6728292  44.2226360  93.6082693 127.5099992 123.4724990  28.7849997
 126.5819992 123.2414990  28.7579997 127.9609992 122.6954990  28.4549997
 127.4438165 123.3357785  28.7366772 120.0529992 127.8014990  24.9179997
 120.5799992 128.5744990  24.7179997 119.1729992 128.0254990  24.6159997
 120.0062121 127.9377344  24.8497460 115.8079992 122.6634990  19.5049997
 116.4239992 123.2904990  19.8849997 114.9459992 122.9794990  19.7769997
 115.7757678 122.7919423  19.5937192 121.4799992 125.4644990  24.4939997
 121.2389992 126.3894990  24.5359997 120.7399992 125.0054990  24.8909997
 121.3469463 125.5290969  24.5534279 121.9949992 129.6134990  30.8089997
 122.3579992 130.4674990  30.5759997 122.5269992 129.3214990  31.5499997
 122.1165141 129.6908907  30.8772079 120.1629992 130.4854990  24.0399997
 119.2139992 130.5914990  24.0909997 120.5149992 131.3064990  24.3839997
 120.0805647 130.6110029  24.0934883 125.5389992 125.7124990  30.5099997
 125.1129992 125.4844990  31.3359997 126.1199992 124.9734990  30.3279997
 125.5592088 125.5814393  30.5984454 127.7419992 126.6414990  19.5839997
 128.0949992 126.2614990  20.3879997 126.7929992 126.5474990  19.6709997
 127.6620956 126.5767867  19.7058005 128.1979992 130.2644990  32.9789997
 127.5959992 129.7084990  32.4839997 128.4789992 130.9314990  32.3529997
 128.1535757 130.2785755  32.8265657 132.2449992 131.1204990  19.7849997
 132.9889992 131.7064990  19.6449997 131.5509992 131.6894990  20.1179997
 132.2529809 131.2775830  19.8108572 121.4259992  38.9654990  89.7309997
 121.3279992  39.9114990  89.6249997 120.6829992  38.5924990  89.2549997
 121.3122363  39.0445987  89.6522029 116.3199992 117.4974990  32.3869997
 115.4269992 117.8354990  32.3189997 116.2209992 116.6414990  32.8049997
 116.1844752 117.4280986  32.4341644 128.6079992 125.3134990  21.8109997
 128.3309992 124.5854990  22.3669997 129.5349992 125.4324990  22.0159997
 128.6954419 125.2299436  21.9148264 115.9709992 129.3014990  30.8219997
 116.1879992 128.3694990  30.7909997 116.2179992 129.5764990  31.7049997
 116.0340948 129.2110976  30.9371268 121.8329992 127.7534990  18.0309997
 122.0719992 127.0044990  17.4839997 121.5639992 127.3654990  18.8639997
 121.8293233 127.5986865  18.0687791 120.7699992 127.3234990  20.4869997
 120.9169992 126.8034990  21.2769997 120.7669992 128.2304990  20.7939997
 120.7897102 127.3748964  20.6365907 117.2229992 124.5754990  20.9979997
 116.5369992 124.9284990  21.5649997 117.7459992 125.3384990  20.7509997
 117.1998402 124.7268912  21.0421783 125.0539992 117.2384990  31.2769997
 125.7529992 117.3124990  31.9269997 124.6739992 116.3734990  31.4309997
 125.0982662 117.1317050  31.3867412 125.8389992 116.8904990  22.3739997
 126.0589992 117.3614990  21.5699997 126.3969992 117.2844990  23.0439997
 125.9446044 117.0082946  22.3545207 123.5079992 129.0204990  21.2369997
 122.6909992 129.5174990  21.2889997 124.0369992 129.4964990  20.5959997
 123.4678125 129.1527000  21.1575289 123.0389992 118.6184990  23.2089997
 123.8509992 119.1224990  23.2549997 122.7939992 118.4734990  24.1229997
 123.1171091 118.6679366  23.3388552 122.6899992  43.2864990  93.2939997
 122.4539992  43.0674990  94.1959997 121.9069992  43.0794990  92.7849997
 122.5518444  43.2285688  93.3484518 123.5749992 119.6044990  32.3929997
 123.6939992 120.1784990  33.1499997 124.2299992 118.9164990  32.5079997
 123.6798684 119.5900205  32.5121656 123.9229992 115.6994990  24.1469997
 123.5759992 116.3164990  24.7909997 124.5809992 116.2004990  23.6649997
 123.9644430 115.8516860  24.1700046 120.8459992 130.0644990  21.2179997
 121.0069992 130.8644990  20.7179997 120.6489992 130.3714990  22.1029997
 120.8413906 130.2153690  21.2692316 119.5799992 116.7624990  20.8339997
 119.4969992 117.6504990  21.1809997 120.4699992 116.4974990  21.0659997
 119.6889331 116.8481177  20.9128067 128.3809992 121.2614990  27.3239997
 127.5839992 120.8464990  26.9959997 128.8259992 120.5714990  27.8149997
 128.3320367 121.1113372  27.3454897 117.8389992 127.1894990  19.8939997
 118.4309992 127.8894990  20.1709997 118.2979992 126.7564990  19.1749997
 117.9821652 127.2267686  19.8346515 116.1549992 119.8544990  19.0099997
 116.1099992 120.7934990  19.1889997 115.2669992 119.6184990  18.7409997
 116.0288166 119.9511698  18.9981507 129.4679992 130.5174990  28.9459997
 129.3119992 131.1964990  28.2889997 130.3999992 130.5894990  29.1489997
 129.5727328 130.6201586  28.8835529 116.9629992 114.6354990  27.6829997
 116.7339992 114.6944990  26.7559997 116.5199992 113.8444990  27.9899997
 116.8717387 114.5366412  27.5975223 115.8929992 128.5764990  23.8439997
 115.0609992 129.0484990  23.8709997 116.4389992 129.0864990  23.2449997
 115.8528710 128.7100317  23.7667570 125.4059992  42.4144990  92.3699997
 124.4579992  42.4464990  92.5019997 125.7179992  41.7884990  93.0239997
 125.3185293  42.3342934  92.4764130 123.8709992 129.6164990  18.1689997
 123.2269992 128.9854990  18.4909997 124.6329992 129.0854990  17.9379997
 123.8858708 129.4583171  18.1818461 128.4749992 129.4334990  18.4029997
 128.7579992 128.6384990  18.8559997 129.2149992 129.6664990  17.8419997
 128.6137295 129.3562349  18.3891469 119.4299992 125.3424990  18.2609997
 119.4939992 124.5484990  18.7909997 120.0829992 125.2244990  17.5709997
 119.5270483 125.2177496  18.2403407 124.7819992 126.3894990  17.9969997
 124.5139992 126.5704990  18.8969997 124.5759992 125.4644990  17.8649997
 124.7173443 126.2891873  18.1026643 127.4789992 124.8844990  32.9439997
 128.2239992 125.4734990  32.8249997 126.7209992 125.4664990  33.0069997
 127.4785289 125.0437067  32.9362292 120.5789992 123.3154990  20.5669997
 120.1199992 122.8314990  21.2519997 120.8339992 122.6464990  19.9309997
 120.5505997 123.1588491  20.5748734 119.8679992 121.2084990  32.9229997
 119.2499992 121.8824990  33.2029997 120.2119992 121.5294990  32.0889997
 119.8298078 121.3442298  32.8486609 121.6499992 121.5584990  18.8289997
 121.4699992 121.4034990  17.9019997 122.5999992 121.6664990  18.8739997
 121.7537804 121.5518821  18.7081966 131.0399992 123.9124990  18.2749997
 130.7669992 123.4884990  17.4619997 131.0799992 124.8444990  18.0579997
 131.0080201 123.9803523  18.1343548 120.6199992 116.9324990  31.4979997
 121.1559992 117.3844990  30.8459997 119.7679992 116.8244990  31.0749997
 120.5781795 116.9797444  31.3516211 127.0399992  41.0484990  94.3749997
 126.9429992  40.0964990  94.3689997 126.7179992  41.3164990  95.2359997
 126.9832229  40.9544706  94.4905108 122.2019992 122.3724990  31.7369997
 122.9529992 122.2164990  31.1639997 121.8629992 123.2244990  31.4619997
 122.2589587 122.4663149  31.6214060 121.4259992 114.3894990  31.9289997
 121.3279992 115.3354990  31.8239997 120.6829992 114.0164990  31.4529997
 121.3122123 114.4686811  31.8503204 121.5479992 132.2484990  19.8299997
 122.4809992 132.4064990  19.9739997 121.2829992 132.9244990  19.2049997
 121.6399846 132.3614567  19.7652930 115.1159992 126.8854990  19.3129997
 116.0299992 126.9644990  19.5859997 115.1229992 126.1984990  18.6469997
 115.2420624 126.8034074  19.2603045 113.7649992 132.2784990  24.3899997
 113.1179992 131.8164990  23.8579997 114.1199992 131.6064990  24.9729997
 113.7243741 132.1244785  24.3959157 114.6349992 130.3584990  26.1949997
 114.3009992 129.4784990  26.3669997 114.8569992 130.7044990  27.0599997
 114.6192565 130.2847410  26.3354263 132.1839992 131.1684990  29.1759997
 132.1619992 131.3534990  30.1139997 132.8739992 131.7364990  28.8349997
 132.2743383 131.2707104  29.2584580 131.7469992 130.7354990  32.0969997
 131.2599992 129.9994990  31.7259997 132.2959992 130.3414990  32.7749997
 131.7546101 130.5816267  32.1379034 131.4989992 124.7814990  22.2499997
 132.3489992 125.2024990  22.3769997 131.5039992 124.0414990  22.8569997
 131.6161143 124.7391106  22.3494732 131.8929992 122.8354990  24.0729997
 131.1669992 122.3554990  24.4709997 132.4739992 123.0404990  24.8049997
 131.8722504 122.7975592  24.2264199 116.8669992  42.2574990  93.4229997
 117.0779992  41.5514990  92.8119997 116.7549992  41.8204990  94.2669997
 116.8807674  42.1016376  93.4534199 131.6519992 125.6204990  29.0209997
 132.4859992 125.2424990  28.7399997 131.7639992 126.5634990  28.9019997
 131.7811917 125.6962954  28.9664844 130.1379992 128.4984990  31.3279997
 129.4909992 128.8234990  31.9529997 129.6209992 128.0574990  30.6539997
 129.9794112 128.4834133  31.3225272 132.1609992 122.7364990  20.4639997
 131.6399992 123.0924990  19.7459997 132.1279992 123.4114990  21.1429997
 132.0850955 122.8765023  20.4572634 130.5099992 119.9754990  19.0149997
 130.6069992 120.6424990  18.3349997 130.3699992 119.1604990  18.5339997
 130.5043407 119.9565670  18.8568312 129.6799992 121.3564990  24.6359997
 129.5299992 120.4114990  24.6159997 129.3259992 121.6374990  25.4799997
 129.6116351 121.2651656  24.7473202 114.7149992 123.4344990  28.6469997
 114.8989992 123.3524990  27.7109997 115.5639992 123.3104990  29.0699997
 114.8550132 123.4065066  28.5761460 129.7579992 117.3834990  18.1329997
 130.3679992 117.0124990  18.7699997 128.9209992 116.9624990  18.3289997
 129.7283704 117.2757942  18.2467077 129.3899992 118.9384990  23.0989997
 129.6699992 118.0314990  23.2229997 130.1489992 119.3724990  22.7099997
 129.5309258 118.8730935  23.0633691 130.0019992 119.5204990  28.5349997
 130.9349992 119.7324990  28.4999997 129.7669992 119.6214990  29.4569997
 130.0979517 119.5631844  28.6549113 130.0309992 120.2574990  31.3109997
 129.1879992 120.5254990  31.6759997 130.4739992 121.0794990  31.0999997
 129.9754035 120.4053351  31.3324770 121.6479992  38.2594990  92.4019997
 122.3589992  37.6194990  92.3879997 121.5469992  38.5254990  91.4879997
 121.7316732  38.2078451  92.2765475 130.0039992 116.2014990  23.1469997
 130.1859992 115.7524990  23.9719997 129.4039992 115.6174990  22.6829997
 129.9478187 116.0610563  23.1972721 115.5339992 117.0174990  27.6789997
 115.9789992 116.2254990  27.9809997 115.9999992 117.7334990  28.1089997
 115.6579718 117.0059546  27.7785247 113.8379992 120.0164990  28.7479997
 114.3299992 119.7954990  27.9569997 114.1999992 120.8564990  29.0289997
 113.9542923 120.0998480  28.6777389 131.8699992 116.2694990  19.6749997
 132.2829992 115.5484990  19.1999997 132.5519992 116.9384990  19.7329997
 132.0186060 116.2613741  19.6179233 114.1509992 116.2744990  22.8019997
 113.2259992 116.4824990  22.6729997 114.6049992 116.7584990  22.1119997
 114.0856298 116.3684311  22.6910433 128.9219992 131.2584990  24.7479997
 129.5739992 130.9104990  24.1399997 129.4329992 131.7464990  25.3939997
 129.0802872 131.2768248  24.7520964 114.1149992 115.0124990  31.1459997
 113.4499992 114.7664990  31.7889997 113.6719992 115.6344990  30.5689997
 113.9641168 115.0629225  31.1559830 116.3069992 128.1874990  35.2909997
 115.4859992 128.3624990  34.8299997 116.0549992 128.1144990  36.2109997
 116.1605594 128.2015728  35.3523593 119.2609992 129.1614990  31.5489997
 118.8359992 129.9714990  31.2669997 120.1649992 129.2474990  31.2469997
 119.3250706 129.2839557  31.4695836 125.9169992 131.8464990  33.7529997
 126.5939992 131.2134990  33.5129997 126.2389992 132.2474990  34.5599997
 126.0531618 131.8141147  33.8292802 122.0009992  39.9414990  94.4559997
 121.8699992  39.4664990  93.6349997 121.4019992  40.6864990  94.3999997
 121.9021524  39.9771968  94.3361553 116.6629992 132.4184990  31.5969997
 115.9419992 132.8584990  31.1459997 116.2969992 132.1674990  32.4449997
 116.5149632 132.4447235  31.6499649 119.1299992 132.0184990  30.6259997
 118.2649992 132.0904990  31.0299997 119.0749992 132.5654990  29.8429997
 119.0042289 132.1023242  30.5753749 123.8409992 131.9064990  29.8019997
 123.3839992 132.4354990  29.1479997 124.0029992 132.5094990  30.5269997
 123.8003919 132.0603990  29.8105740 126.1679992 130.7844990  30.7469997
 125.2639992 130.9494990  30.4809997 126.5969992 131.6374990  30.6809997
 126.1022017 130.9224184  30.7016495 128.7719992 132.3544990  31.0419997
 128.5909992 133.2704990  30.8309997 128.9489992 131.9434990  30.1949997
 128.7711377 132.4243365  30.8987178 116.0779992 131.0414990  28.5069997
 116.0589992 130.6154990  29.3639997 116.8819992 130.7224990  28.0979997
 116.1841393 130.9400297  28.5690155 118.2189992 129.7514990  27.1619997
 117.9999992 128.8344990  27.3319997 119.0429992 129.8914990  27.6279997
 118.3004702 129.6450523  27.2482510 120.7559992 130.2214990  28.0109997
 120.9689992 129.3334990  27.7239997 120.8209992 130.1864990  28.9649997
 120.7939149 130.0953338  28.1007351 124.2649992 115.8854990  27.1549997
 123.5899992 115.2554990  27.4109997 124.8289992 115.4014990  26.5519997
 124.2489363 115.7338886  27.1084810 129.4069992 113.9924990  27.2679997
 130.0109992 114.5404990  26.7659997 128.5379992 114.3114990  27.0269997
 129.3720419 114.1105628  27.1667741 121.5479992  56.8244990  77.6319997
 122.4809992  56.9824990  77.7759997 121.2829992  57.5004990  77.0069997
 121.6399846  56.9374567  77.5672930 131.1339992 115.1314990  25.6009997
 131.7459992 114.6174990  25.0739997 131.5169992 116.0084990  25.6239997
 131.2693867 115.1797613  25.5320888 116.5909992 114.5194990  24.9769997
 115.8139992 114.2844990  24.4699997 117.1219992 113.7224990  24.9859997
 116.5563735 114.3796462  24.9088090 115.4279992 114.3174990  20.7809997
 115.8669992 114.9284990  20.1889997 114.7939992 114.8554990  21.2549997
 115.4023859 114.4739076  20.7640287 121.1709992 114.4454990  24.7899997
 122.0449992 114.8344990  24.7609997 121.0349992 114.2304990  25.7129997
 121.2721953 114.4696654  24.9107599 126.7269992 114.4754990  26.4399997
 126.8039992 114.5714990  25.4899997 126.4519992 113.5684990  26.5679997
 126.7003233 114.3659093  26.3273665 128.0809992 114.5014990  22.1319997
 127.3779992 115.1164990  21.9219997 127.6359992 113.6644990  22.2629997
 127.9246550 114.4724679  22.1209819 115.3289992 130.2654990  21.6779997
 114.6439992 130.2274990  21.0109997 115.3319992 131.1774990  21.9659997
 115.2356806 130.3836669  21.6256961 117.2889992 116.2334990  19.2229997
 117.7799992 115.6034990  18.6959997 117.9119992 116.5294990  19.8859997
 117.4405304 116.1872387  19.2404922 122.3149992 116.5264990  21.6799997
 122.4929992 115.8794990  22.3629997 122.2609992 117.3604990  22.1469997
 122.3320678 116.5506615  21.8366283 124.1929992 131.4744990  20.0759997
 125.0589992 131.8414990  19.8979997 123.9459992 131.0354990  19.2619997
 124.2781853 131.4654021  19.9415813 115.1159992  51.4614990  77.1149997
 116.0299992  51.5404990  77.3879997 115.1229992  50.7744990  76.4479997
 115.2420769  51.3794735  77.0622366 130.9019992 131.0374990  22.7549997
 130.7079992 130.2894990  22.1899997 130.8629992 131.7954990  22.1719997
 130.8701645 131.0375797  22.5988131 117.1469992 131.1854990  18.7029997
 116.8789992 131.4714990  19.5769997 117.9179992 130.6394990  18.8559997
 117.2145926 131.1507790  18.8431188 135.8269992 122.5444990  29.9479997
 135.8679992 121.9194990  30.6709997 136.5299992 123.1684990  30.1299997
 135.9276223 122.5432318  30.0716164 136.7509992 126.9944990  28.4829997
 136.3809992 126.1924990  28.1129997 137.6919992 126.8264990  28.5289997
 136.8275984 126.8619649  28.4385586 133.3609992 120.6544990  23.8749997
 132.9129992 121.5004990  23.8569997 132.7999992 120.0754990  23.3599997
 133.2238546 120.6919004  23.8028874 134.0709992 122.8164990  26.0009997
 134.2849992 122.0464990  26.5279997 134.8089992 122.9064990  25.3979997
 134.2000073 122.7233546  25.9915786 138.1439992 117.8584990  26.3609997
 138.1869992 118.7184990  25.9419997 137.6859992 117.3054990  25.7269997
 138.0880163 117.9014174  26.2180604 134.7639992 120.2554990  27.1229997
 135.4179992 119.7054990  27.5549997 134.7879992 119.9814990  26.2059997
 134.8567199 120.1432178  27.0581650 136.9539992 116.7764990  30.4349997
 136.7349992 117.3064990  29.6679997 136.2859992 117.0024990  31.0819997
 136.8336975 116.8795979  30.4175123 139.5229992 124.4514990  30.7219997
 138.7829992 125.0504990  30.8259997 140.2369992 125.0054990  30.4059997
 139.5183146 124.6082611  30.6935150 113.7649992  56.8544990  82.1919997
 113.1179992  56.3924990  81.6589997 114.1199992  56.1824990  82.7749997
 113.7243861  56.7004707  82.1977939 136.5479992 118.6684990  28.3869997
 137.1609992 119.3014990  28.7599997 137.0599992 118.1964990  27.7309997
 136.7011933 118.6913380  28.3493477 137.9299992 126.4164990  31.5089997
 137.9249992 127.2954990  31.1309997 137.0769992 126.3324990  31.9339997
 137.8139199 126.5255901  31.5146942 134.0519992 126.0874990  22.2909997
 133.7799992 126.3164990  21.4019997 134.0969992 126.9244990  22.7519997
 134.0208360 126.2321034  22.2316186 138.2979992 123.7594990  25.2219997
 137.9679992 123.3884990  24.4039997 138.8859992 123.0884990  25.5689997
 138.3323182 123.6180648  25.1569898 138.6649992 122.5274990  28.8549997
 139.2299992 122.6494990  28.0929997 138.9829992 123.1654990  29.4939997
 138.7853619 122.6304388  28.8370019 139.5449992 126.9274990  33.5729997
 139.2329992 127.7094990  34.0279997 138.8949992 126.7744990  32.8869997
 139.4144858 127.0137882  33.5425344 136.4649992 123.1254990  32.8009997
 136.5349992 123.7764990  33.4999997 135.5739992 123.2284990  32.4659997
 136.3541690 123.2284261  32.8513026 137.2879992 122.8284990  22.8109997
 136.9959992 123.5964990  22.3199997 136.6139992 122.1694990  22.6479997
 137.1568843 122.8444537  22.7217695 133.3809992 125.1914990  31.6259997
 132.8799992 125.1634990  30.8109997 133.3869992 124.2864990  31.9359997
 133.3131690 125.0652234  31.5562770 133.1319992 127.9724990  28.5099997
 134.0779992 127.8274990  28.4909997 133.0189992 128.7564990  29.0469997
 133.2463578 128.0586708  28.5800300 114.6349992  54.9344990  83.9969997
 114.3009992  54.0544990  84.1689997 114.8569992  55.2804990  84.8609997
 114.6192677  54.8607365  84.1374252 136.3759992 130.7734990  24.6559997
 136.5279992 130.4254990  25.5339997 135.5249992 130.4164990  24.3999997
 136.2818344 130.6775891  24.7416851 138.2489992 114.9854990  28.6649997
 137.3869992 114.8984990  28.2569997 138.2269992 115.8414990  29.0929997
 138.1280557 115.0893078  28.6670202 138.3399992 119.9504990  29.7599997
 137.6979992 119.9104990  30.4689997 138.3769992 120.8774990  29.5219997
 138.2571659 120.0702540  29.8248463 138.3369992 120.1714990  24.6719997
 137.4439992 119.8314990  24.6129997 138.7879992 119.7944990  23.9159997
 138.2757185 120.0740220  24.5617698 136.0899992 120.2714990  31.6269997
 136.0519992 120.6714990  32.4959997 135.5989992 119.4544990  31.7169997
 136.0184374 120.2158228  31.7580980 139.4559992 117.6454990  18.4259997
 139.0249992 117.2004990  19.1549997 138.7379992 118.0164990  17.9129997
 139.2999176 117.6347063  18.4564913 132.6979992 117.3874990  25.4779997
 133.3289992 117.3584990  26.1969997 133.1479992 116.9624990  24.7469997
 132.8451082 117.3261269  25.4776307 133.9719992 118.1334990  20.9019997
 134.4469992 118.7244990  20.3169997 133.2549992 118.6634990  21.2489997
 133.9400406 118.2861011  20.8688495 135.7469992 119.2284990  24.5849997
 134.8579992 119.3274990  24.2449997 136.0429992 118.3864990  24.2389997
 135.6654001 119.1282473  24.4917318 139.3999992 119.2284990  22.2419997
 140.3319992 119.3574990  22.4199997 139.1849992 119.8974990  21.5919997
 139.4984472 119.3365817  22.1784873 132.1839992  55.7444990  86.9769997
 132.1619992  55.9294990  87.9159997 132.8739992  56.3124990  86.6359997
 132.2743439  55.8466898  87.0594774 138.0739992 120.4224990  19.8079997
 137.5319992 120.0434990  19.1169997 138.9079992 120.6174990  19.3799997
 138.1124390 120.3969091  19.6554374 137.2409992 116.5234990  24.0639997
 136.9229992 115.6204990  24.0279997 138.0219992 116.5254990  23.5109997
 137.3031079 116.4002240  23.9842908 136.5339992 124.2834990  27.5139997
 137.2789992 124.2804990  26.9119997 136.6119992 123.4594990  27.9949997
 136.6463365 124.1717395  27.4967412 133.5419992 122.7434990  32.8289997
 133.7649992 122.3254990  33.6599997 132.9399992 122.1314990  32.4059997
 133.4911513 122.6034617  32.8856722 138.9089992 127.8014990  24.9179997
 139.4359992 128.5744990  24.7179997 138.0289992 128.0254990  24.6159997
 138.8622121 127.9377344  24.8497460 134.6639992 122.6634990  19.5049997
 135.2799992 123.2904990  19.8849997 133.8019992 122.9794990  19.7769997
 134.6317678 122.7919423  19.5937192 139.0189992 130.4854990  24.0399997
 138.0699992 130.5914990  24.0909997 139.3709992 131.3064990  24.3839997
 138.9365647 130.6110029  24.0934883 135.1759992 117.4974990  32.3869997
 134.2829992 117.8354990  32.3189997 135.0769992 116.6414990  32.8049997
 135.0404752 117.4280986  32.4341644 134.8269992 129.3014990  30.8219997
 135.0439992 128.3694990  30.7909997 135.0739992 129.5764990  31.7049997
 134.8900948 129.2110976  30.9371268 136.0789992 124.5754990  20.9979997
 135.3929992 124.9284990  21.5649997 136.6019992 125.3384990  20.7509997
 136.0558402 124.7268912  21.0421783 131.7469992  55.3114990  89.8989997
 131.2599992  54.5754990  89.5279997 132.2959992  54.9174990  90.5769997
 131.7546101  55.1576267  89.9399034 138.4359992 116.7624990  20.8339997
 138.3529992 117.6504990  21.1809997 139.3259992 116.4974990  21.0659997
 138.5449331 116.8481177  20.9128067 136.6949992 127.1894990  19.8939997
 137.2869992 127.8894990  20.1709997 137.1539992 126.7564990  19.1749997
 136.8381652 127.2267686  19.8346515 135.0109992 119.8544990  19.0099997
 134.9659992 120.7934990  19.1889997 134.1229992 119.6184990  18.7409997
 134.8848166 119.9511698  18.9981507 135.8189992 114.6354990  27.6829997
 135.5899992 114.6944990  26.7559997 135.3759992 113.8444990  27.9899997
 135.7277387 114.5366412  27.5975223 134.7489992 128.5764990  23.8439997
 133.9169992 129.0484990  23.8709997 135.2949992 129.0864990  23.2449997
 134.7088710 128.7100317  23.7667570 138.2859992 125.3424990  18.2609997
 138.3499992 124.5484990  18.7909997 138.9389992 125.2244990  17.5709997
 138.3830483 125.2177496  18.2403407 139.4349992 123.3154990  20.5669997
 138.9759992 122.8314990  21.2519997 139.6899992 122.6464990  19.9309997
 139.4065997 123.1588491  20.5748734 138.7239992 121.2084990  32.9229997
 138.1059992 121.8824990  33.2029997 139.0679992 121.5294990  32.0889997
 138.6858078 121.3442298  32.8486609 139.4759992 116.9324990  31.4979997
 140.0119992 117.3844990  30.8459997 138.6239992 116.8244990  31.0749997
 139.4341795 116.9797444  31.3516211 133.9719992 126.8854990  19.3129997
 134.8859992 126.9644990  19.5859997 133.9789992 126.1984990  18.6469997
 134.0980624 126.8034074  19.2603045 130.1979992  51.1014990  94.5369997
 129.3319992  50.9964990  94.9309997 130.5739992  51.8594990  94.9839997
 130.1303768  51.1896151  94.6513258 132.6209992 132.2784990  24.3899997
 131.9739992 131.8164990  23.8579997 132.9759992 131.6064990  24.9729997
 132.5803741 132.1244785  24.3959157 133.4909992 130.3584990  26.1949997
 133.1569992 129.4784990  26.3669997 133.7129992 130.7044990  27.0599997
 133.4752565 130.2847410  26.3354263 133.5709992 123.4344990  28.6469997
 133.7549992 123.3524990  27.7109997 134.4199992 123.3104990  29.0699997
 133.7110132 123.4065066  28.5761460 133.1679992 118.7044990  34.7869997
 134.0879992 118.5824990  35.0239997 132.7189992 117.9544990  35.1769997
 133.2330500 118.5864576  34.8721016 134.3899992 117.0174990  27.6789997
 134.8349992 116.2254990  27.9809997 134.8559992 117.7334990  28.1089997
 134.5139718 117.0059546  27.7785247 132.6939992 120.0164990  28.7479997
 133.1859992 119.7954990  27.9569997 133.0559992 120.8564990  29.0289997
 132.8102923 120.0998480  28.6777389 133.0069992 116.2744990  22.8019997
 132.0819992 116.4824990  22.6729997 133.4609992 116.7584990  22.1119997
 132.9416298 116.3684311  22.6910433 132.9709992 115.0124990  31.1459997
 132.3059992 114.7664990  31.7889997 132.5279992 115.6344990  30.5689997
 132.8201168 115.0629225  31.1559830 138.1169992 129.1614990  31.5489997
 137.6919992 129.9714990  31.2669997 139.0209992 129.2474990  31.2469997
 138.1810706 129.2839557  31.4695836 135.5189992 132.4184990  31.5969997
 134.7979992 132.8584990  31.1459997 135.1529992 132.1674990  32.4449997
 135.3709632 132.4447235  31.6499649 131.4989992  49.3574990  80.0509997
 132.3489992  49.7784990  80.1789997 131.5039992  48.6174990  80.6589997
 131.6159745  49.3151347  80.1506479 137.9859992 132.0184990  30.6259997
 137.1209992 132.0904990  31.0299997 137.9309992 132.5654990  29.8429997
 137.8602289 132.1023242  30.5753749 134.9339992 131.0414990  28.5069997
 134.9149992 130.6154990  29.3639997 135.7379992 130.7224990  28.0979997
 135.0401393 130.9400297  28.5690155 137.0749992 129.7514990  27.1619997
 136.8559992 128.8344990  27.3319997 137.8989992 129.8914990  27.6279997
 137.1564702 129.6450523  27.2482510 135.4469992 114.5194990  24.9769997
 134.6699992 114.2844990  24.4699997 135.9779992 113.7224990  24.9859997
 135.4123735 114.3796462  24.9088090 134.2839992 114.3174990  20.7809997
 134.7229992 114.9284990  20.1889997 133.6499992 114.8554990  21.2549997
 134.2583859 114.4739076  20.7640287 134.1849992 130.2654990  21.6779997
 133.4999992 130.2274990  21.0109997 134.1879992 131.1774990  21.9659997
 134.0916806 130.3836669  21.6256961 136.1449992 116.2334990  19.2229997
 136.6359992 115.6034990  18.6959997 136.7679992 116.5294990  19.8859997
 136.2965304 116.1872387  19.2404922 135.4049992 115.0334990  34.4949997
 135.0389992 114.2674990  34.9369997 136.3179992 115.0624990  34.7809997
 135.4783172 114.9325335  34.5941872 136.0029992 131.1854990  18.7029997
 135.7349992 131.4714990  19.5769997 136.7739992 130.6394990  18.8559997
 136.0705926 131.1507790  18.8431188  18.5189992 135.8204990  29.6209997
  18.5679992 136.4304990  30.3569997  18.9449992 136.2814990  28.8979997
  18.5832851 135.9663266  29.6240532 131.8929992  47.4114990  81.8749997
 131.1669992  46.9314990  82.2729997 132.4739992  47.6164990  82.6069997
 131.8722504  47.3735592  82.0284199  12.9969992 138.6124990  29.0879997
  13.1389992 137.6664990  29.1079997  12.8909992 138.8194990  28.1599997
  13.0021051 138.5109706  28.9652249   6.1519992 136.7144990  26.3609997
   6.1949992 137.5744990  25.9419997   5.6939992 136.1614990  25.7269997
   6.0960163 136.7574174  26.2180604  13.8739992 136.8454990  24.7609997
  14.5199992 136.5164990  25.3859997  14.3839992 137.3624990  24.1389997
  14.0314289 136.8704333  24.7623681   2.7719992 139.1114990  27.1229997
   3.4259992 138.5614990  27.5549997   2.7959992 138.8374990  26.2059997
   2.8647199 138.9992178  27.0581650  18.9109992 137.2984990  31.8569997
  18.2219992 137.9564990  31.7619997  18.9259992 137.1004990  32.7939997
  18.8187756 137.3617614  31.9705795   4.9619992 135.6324990  30.4349997
   4.7429992 136.1624990  29.6679997   4.2939992 135.8584990  31.0819997
   4.8416975 135.7355979  30.4175123  15.6379992 136.1364990  26.7419997
  15.4229992 135.3704990  27.2749997  16.2939992 136.6084990  27.2549997
  15.6972673 136.0955739  26.8841972   4.5559992 137.5244990  28.3869997
   5.1689992 138.1574990  28.7599997   5.0679992 137.0524990  27.7309997
   4.7091933 137.5473380  28.3493477  15.9849992 134.8514990  30.4209997
  15.2489992 135.4614990  30.3839997  16.6689992 135.2664990  29.8949997
  15.9765367 134.9912562  30.3448156   8.9879992 132.9374990  27.8869997
   8.8709992 131.9894990  27.8329997   8.1329992 133.2704990  28.1599997
   8.8563691 132.8525842  27.9165072 131.6519992  50.1964990  86.8229997
 132.4859992  49.8184990  86.5419997 131.7639992  51.1394990  86.7039997
 131.7811917  50.2722954  86.7684844  17.2299992 132.8974990  20.8369997
  16.3299992 133.0354990  21.1329997  17.4819992 133.7284990  20.4359997
  17.1407727 133.0288705  20.8232935  16.4889992 138.9874990  34.6729997
  16.0819992 139.4674990  33.9519997  16.5299992 138.0814990  34.3649997
  16.4388403 138.9307989  34.5327253   6.2569992 133.8414990  28.6649997
   5.3949992 133.7544990  28.2569997   6.2349992 134.6974990  29.0929997
   6.1360557 133.9453078  28.6670202  10.5819992 136.0554990  19.3249997
  10.3279992 136.0744990  20.2469997  10.3249992 135.1844990  19.0229997
  10.5124508 135.9403292  19.4104786   6.3479992 138.8064990  29.7599997
   5.7059992 138.7664990  30.4689997   6.3849992 139.7334990  29.5219997
   6.2651659 138.9262540  29.8248463   6.3449992 139.0274990  24.6719997
   5.4519992 138.6874990  24.6129997   6.7959992 138.6504990  23.9159997
   6.2837185 138.9300220  24.5617698  11.8809992 139.4434990  23.4889997
  11.4719992 140.2584990  23.1969997  12.6009992 139.3034990  22.8749997
  11.9224439 139.5360383  23.3660098  12.8849992 138.8894990  26.3029997
  12.6899992 139.4954990  25.5879997  13.0669992 138.0564990  25.8689997
  12.8829195 138.8597936  26.1464079   4.0979992 139.1274990  31.6269997
   4.0599992 139.5274990  32.4959997   3.6069992 138.3104990  31.7169997
   4.0264373 139.0718228  31.7580980   7.4639992 136.5014990  18.4259997
   7.0329992 136.0564990  19.1549997   6.7459992 136.8724990  17.9129997
   7.3079176 136.4907063  18.4564913 130.1379992  53.0744990  89.1299997
 129.4909992  53.3994990  89.7549997 129.6209992  52.6334990  88.4549997
 129.9794068  53.0594726  89.1244918   0.7059992 136.2434990  25.4779997
   1.3369992 136.2144990  26.1969997   1.1559992 135.8184990  24.7469997
   0.8531082 136.1821269  25.4776307   1.9799992 136.9894990  20.9019997
   2.4549992 137.5804990  20.3169997   1.2629992 137.5194990  21.2489997
   1.9480406 137.1421011  20.8688495   8.9269992 136.4554990  25.7579997
   8.0159992 136.5124990  26.0469997   9.4319992 136.3954990  26.5689997
   8.8706873 136.4551838  25.9071190   3.7549992 138.0844990  24.5849997
   2.8659992 138.1834990  24.2449997   4.0509992 137.2424990  24.2389997
   3.6734001 137.9842473  24.4917318   7.4079992 138.0844990  22.2419997
   8.3399992 138.2134990  22.4199997   7.1929992 138.7534990  21.5919997
   7.5064472 138.1925817  22.1784873  13.3319992 135.6904990  29.0219997
  12.6549992 135.8214990  29.6859997  12.8459992 135.5354990  28.2119997
  13.1737265 135.6874665  29.0033380   6.0819992 139.2784990  19.8079997
   5.5399992 138.8994990  19.1169997   6.9159992 139.4734990  19.3799997
   6.1204390 139.2529091  19.6554374  10.2469992 139.2424990  27.6449997
  10.8109992 138.6964990  27.0979997  10.0989992 138.7214990  28.4339997
  10.3043037 139.0971798  27.6767212   5.2489992 135.3794990  24.0639997
   4.9309992 134.4764990  24.0279997   6.0299992 135.3814990  23.5109997
   5.3111079 135.2562240  23.9842908   8.8729992 137.6314990  30.0589997
   8.0379992 138.0854990  30.1699997   9.3969992 137.9074990  30.8109997
   8.8296072 137.7308960  30.1758118 129.6799992  45.9324990  82.4379997
 129.5299992  44.9874990  82.4179997 129.3259992  46.2134990  83.2819997
 129.6116351  45.8411656  82.5493202  13.3149992 136.6584990  19.9429997
  12.3759992 136.7694990  19.7919997  13.6119992 137.5144990  20.2499997
  13.2266136 136.7894977  19.9638568  14.0329992 138.5254990  21.6039997
  14.9249992 138.3874990  21.9229997  14.0899992 139.3164990  21.0669997
  14.1627380 138.6134777  21.5750981  18.9179992 138.7344990  21.2989997
  18.3639992 138.3384990  20.6259997  19.0189992 139.6454990  21.0209997
  18.8558589 138.8033904  21.1693839   3.1839992 136.3534990  32.3869997
   2.2909992 136.6914990  32.3189997   3.0849992 135.4974990  32.8049997
   3.0484752 136.2840986  32.4341644  11.9179992 136.0944990  31.2769997
  12.6169992 136.1684990  31.9269997  11.5379992 135.2294990  31.4309997
  11.9622662 135.9877050  31.3867412  12.7029992 135.7464990  22.3739997
  12.9229992 136.2174990  21.5699997  13.2609992 136.1404990  23.0439997
  12.8086044 135.8642946  22.3545207   9.9029992 137.4744990  23.2089997
  10.7149992 137.9784990  23.2549997   9.6579992 137.3294990  24.1229997
   9.9811091 137.5239366  23.3388552  10.4389992 138.4604990  32.3929997
  10.5579992 139.0344990  33.1499997  11.0939992 137.7724990  32.5079997
  10.5438684 138.4460205  32.5121656  10.7869992 134.5554990  24.1469997
  10.4399992 135.1724990  24.7909997  11.4449992 135.0564990  23.6649997
  10.8284430 134.7076860  24.1700046   6.4439992 135.6184990  20.8339997
   6.3609992 136.5064990  21.1809997   7.3339992 135.3534990  21.0659997
   6.5529331 135.7041177  20.9128067 114.7149992  48.0104990  86.4479997
 114.8989992  47.9284990  85.5129997 115.5639992  47.8864990  86.8719997
 114.8550259  47.9824915  86.3771771   3.0189992 138.7104990  19.0099997
   2.9739992 139.6494990  19.1889997   2.1309992 138.4744990  18.7409997
   2.8928166 138.8071698  18.9981507   3.8269992 133.4914990  27.6829997
   3.5979992 133.5504990  26.7559997   3.3839992 132.7004990  27.9899997
   3.7357387 133.3926412  27.5975223   7.0719992 137.4194990  34.0049997
   7.2219992 136.6904990  33.4029997   7.0739992 138.1964990  33.4459997
   7.0927967 137.4247720  33.8470523   7.4839992 135.7884990  31.4979997
   8.0199992 136.2404990  30.8459997   6.6319992 135.6804990  31.0749997
   7.4421795 135.8357444  31.3516211   9.5539992 137.5664990  35.4929997
   9.3179992 137.3474990  36.3939997   8.7709992 137.3594990  34.9829997
   9.4158382 137.5085340  35.5473991   3.7309992 136.5374990  35.6209997
   3.9419992 135.8314990  35.0109997   3.6189992 136.1004990  36.4649997
   3.7447668 136.3816619  35.6515445  17.3739992 138.8314990  19.0149997
  17.4709992 139.4984990  18.3349997  17.2339992 138.0164990  18.5339997
  17.3683407 138.8125670  18.8568312  16.6219992 136.2394990  18.1329997
  17.2319992 135.8684990  18.7699997  15.7849992 135.8184990  18.3289997
  16.5923704 136.1317942  18.2467077  16.2539992 137.7944990  23.0989997
  16.5339992 136.8874990  23.2229997  17.0129992 138.2284990  22.7099997
  16.3949258 137.7290935  23.0633691  16.8659992 138.3764990  28.5349997
  17.7989992 138.5884990  28.4999997  16.6309992 138.4774990  29.4569997
  16.9619517 138.4191844  28.6549113 130.5359992  47.9024990  92.0769997
 131.1189992  47.1674990  92.2679997 131.0999992  48.6744990  92.1229997
 130.6920326  47.9062746  92.1093579  16.8949992 139.1134990  31.3109997
  16.0519992 139.3814990  31.6759997  17.3379992 139.9354990  31.0999997
  16.8394035 139.2613351  31.3324770   1.1759992 137.5604990  34.7869997
   2.0959992 137.4384990  35.0239997   0.7269992 136.8104990  35.1769997
   1.2410500 137.4424576  34.8721016  16.8679992 135.0574990  23.1469997
  17.0499992 134.6084990  23.9719997  16.2679992 134.4734990  22.6829997
  16.8118187 134.9170563  23.1972721   2.3979992 135.8734990  27.6789997
   2.8429992 135.0814990  27.9809997   2.8639992 136.5894990  28.1089997
   2.5219718 135.8619546  27.7785247   0.7019992 138.8724990  28.7479997
   1.1939992 138.6514990  27.9569997   1.0639992 139.7124990  29.0289997
   0.8182923 138.9558480  28.6777389  18.7339992 135.1254990  19.6749997
  19.1469992 134.4044990  19.1999997  19.4159992 135.7944990  19.7329997
  18.8826060 135.1173741  19.6179233   1.0149992 135.1304990  22.8019997
   0.0899992 135.3384990  22.6729997   1.4689992 135.6144990  22.1119997
   0.9496298 135.2244311  22.6910433   0.9789992 133.8684990  31.1459997
   0.3139992 133.6224990  31.7889997   0.5359992 134.4904990  30.5689997
   0.8281168 133.9189225  31.1559830  11.1289992 134.7414990  27.1549997
  10.4539992 134.1114990  27.4109997  11.6929992 134.2574990  26.5519997
  11.1129363 134.5898886  27.1084810  16.2709992 132.8484990  27.2679997
  16.8749992 133.3964990  26.7659997  15.4019992 133.1674990  27.0269997
  16.2360419 132.9665628  27.1667741 132.0329992  45.8054990  92.7609997
 131.1689992  45.4264990  92.5959997 132.6369992  45.0664990  92.6869997
 131.9964912  45.6537937  92.7284360  17.9979992 133.9874990  25.6009997
  18.6099992 133.4734990  25.0739997  18.3809992 134.8644990  25.6239997
  18.1333867 134.0357613  25.5320888   3.4549992 133.3754990  24.9769997
   2.6779992 133.1404990  24.4699997   3.9859992 132.5784990  24.9859997
   3.4203735 133.2356462  24.9088090   2.2919992 133.1734990  20.7809997
   2.7309992 133.7844990  20.1889997   1.6579992 133.7114990  21.2549997
   2.2663859 133.3299076  20.7640287   8.0349992 133.3014990  24.7899997
   8.9089992 133.6904990  24.7609997   7.8989992 133.0864990  25.7129997
   8.1361953 133.3256654  24.9107599  13.5909992 133.3314990  26.4399997
  13.6679992 133.4274990  25.4899997  13.3159992 132.4244990  26.5679997
  13.5643233 133.2219093  26.3273665  14.9449992 133.3574990  22.1319997
  14.2419992 133.9724990  21.9219997  14.4999992 132.5204990  22.2629997
  14.7886550 133.3284679  22.1209819   4.1529992 135.0894990  19.2229997
   4.6439992 134.4594990  18.6959997   4.7759992 135.3854990  19.8859997
   4.3045304 135.0432387  19.2404922   9.1789992 135.3824990  21.6799997
   9.3569992 134.7354990  22.3629997   9.1249992 136.2164990  22.1469997
   9.1960678 135.4066615  21.8366283   3.4129992 133.8894990  34.4949997
   3.0469992 133.1234990  34.9369997   4.3259992 133.9184990  34.7809997
   3.4863172 133.7885335  34.5941872  37.3749992 135.8204990  29.6209997
  37.4239992 136.4304990  30.3569997  37.8009992 136.2814990  28.8979997
  37.4392851 135.9663266  29.6240532 129.3899992  43.5144990  80.8999997
 129.6699992  42.6074990  81.0249997 130.1489992  43.9484990  80.5109997
 129.5309471  43.4490654  80.8645051  31.8529992 138.6124990  29.0879997
  31.9949992 137.6664990  29.1079997  31.7469992 138.8194990  28.1599997
  31.8581051 138.5109706  28.9652249  25.0079992 136.7144990  26.3609997
  25.0509992 137.5744990  25.9419997  24.5499992 136.1614990  25.7269997
  24.9520163 136.7574174  26.2180604  32.7299992 136.8454990  24.7609997
  33.3759992 136.5164990  25.3859997  33.2399992 137.3624990  24.1389997
  32.8874289 136.8704333  24.7623681  21.6279992 139.1114990  27.1229997
  22.2819992 138.5614990  27.5549997  21.6519992 138.8374990  26.2059997
  21.7207199 138.9992178  27.0581650  37.7669992 137.2984990  31.8569997
  37.0779992 137.9564990  31.7619997  37.7819992 137.1004990  32.7939997
  37.6747756 137.3617614  31.9705795  23.8179992 135.6324990  30.4349997
  23.5989992 136.1624990  29.6679997  23.1499992 135.8584990  31.0819997
  23.6976975 135.7355979  30.4175123  34.4939992 136.1364990  26.7419997
  34.2789992 135.3704990  27.2749997  35.1499992 136.6084990  27.2549997
  34.5532673 136.0955739  26.8841972  23.4119992 137.5244990  28.3869997
  24.0249992 138.1574990  28.7599997  23.9239992 137.0524990  27.7309997
  23.5651933 137.5473380  28.3493477  34.8409992 134.8514990  30.4209997
  34.1049992 135.4614990  30.3839997  35.5249992 135.2664990  29.8949997
  34.8325367 134.9912562  30.3448156  27.8439992 132.9374990  27.8869997
  27.7269992 131.9894990  27.8329997  26.9889992 133.2704990  28.1599997
  27.7123691 132.8525842  27.9165072 130.0019992  44.0964990  86.3359997
 130.9349992  44.3084990  86.3019997 129.7669992  44.1974990  87.2589997
 130.0978357  44.1391303  86.4560232  36.0859992 132.8974990  20.8369997
  35.1859992 133.0354990  21.1329997  36.3379992 133.7284990  20.4359997
  35.9967727 133.0288705  20.8232935  25.1129992 133.8414990  28.6649997
  24.2509992 133.7544990  28.2569997  25.0909992 134.6974990  29.0929997
  24.9920557 133.9453078  28.6670202  29.7759992 133.5634990  32.0399997
  30.1959992 133.1484990  32.7929997  28.8429992 133.3844990  32.1569997
  29.7073736 133.4824921  32.1588950  33.1019992 137.3184990  32.8929997
  32.5879992 137.1934990  33.6909997  32.9469992 138.2314990  32.6489997
  33.0107802 137.4247433  32.9691504  29.4379992 136.0554990  19.3249997
  29.1839992 136.0744990  20.2469997  29.1809992 135.1844990  19.0229997
  29.3684508 135.9403292  19.4104786  25.2039992 138.8064990  29.7599997
  24.5619992 138.7664990  30.4689997  25.2409992 139.7334990  29.5219997
  25.1211659 138.9262540  29.8248463  25.2009992 139.0274990  24.6719997
  24.3079992 138.6874990  24.6129997  25.6519992 138.6504990  23.9159997
  25.1397185 138.9300220  24.5617698  30.7369992 139.4434990  23.4889997
  30.3279992 140.2584990  23.1969997  31.4569992 139.3034990  22.8749997
  30.7784439 139.5360383  23.3660098  31.7409992 138.8894990  26.3029997
  31.5459992 139.4954990  25.5879997  31.9229992 138.0564990  25.8689997
  31.7389195 138.8597936  26.1464079  22.9539992 139.1274990  31.6269997
  22.9159992 139.5274990  32.4959997  22.4629992 138.3104990  31.7169997
  22.8824373 139.0718228  31.7580980 130.0309992  44.8334990  89.1119997
 129.1879992  45.1014990  89.4779997 130.4739992  45.6554990  88.9009997
 129.9754358  44.9813294  89.1335999  26.3199992 136.5014990  18.4259997
  25.8889992 136.0564990  19.1549997  25.6019992 136.8724990  17.9129997
  26.1639176 136.4907063  18.4564913  19.5619992 136.2434990  25.4779997
  20.1929992 136.2144990  26.1969997  20.0119992 135.8184990  24.7469997
  19.7091082 136.1821269  25.4776307  20.8359992 136.9894990  20.9019997
  21.3109992 137.5804990  20.3169997  20.1189992 137.5194990  21.2489997
  20.8040406 137.1421011  20.8688495  27.7829992 136.4554990  25.7579997
  26.8719992 136.5124990  26.0469997  28.2879992 136.3954990  26.5689997
  27.7266873 136.4551838  25.9071190  22.6109992 138.0844990  24.5849997
  21.7219992 138.1834990  24.2449997  22.9069992 137.2424990  24.2389997
  22.5294001 137.9842473  24.4917318  26.2639992 138.0844990  22.2419997
  27.1959992 138.2134990  22.4199997  26.0489992 138.7534990  21.5919997
  26.3624472 138.1925817  22.1784873  32.1879992 135.6904990  29.0219997
  31.5109992 135.8214990  29.6859997  31.7019992 135.5354990  28.2119997
  32.0297265 135.6874665  29.0033380  24.9379992 139.2784990  19.8079997
  24.3959992 138.8994990  19.1169997  25.7719992 139.4734990  19.3799997
  24.9764390 139.2529091  19.6554374  29.1029992 139.2424990  27.6449997
  29.6669992 138.6964990  27.0979997  28.9549992 138.7214990  28.4339997
  29.1603037 139.0971798  27.6767212  24.1049992 135.3794990  24.0639997
  23.7869992 134.4764990  24.0279997  24.8859992 135.3814990  23.5109997
  24.1671079 135.2562240  23.9842908 114.3119992  43.2804990  92.5889997
 115.2319992  43.1584990  92.8249997 113.8629992  42.5304990  92.9779997
 114.3771561  43.1623720  92.6739015  27.7289992 137.6314990  30.0589997
  26.8939992 138.0854990  30.1699997  28.2529992 137.9074990  30.8109997
  27.6856072 137.7308960  30.1758118  32.1709992 136.6584990  19.9429997
  31.2319992 136.7694990  19.7919997  32.4679992 137.5144990  20.2499997
  32.0826136 136.7894977  19.9638568  32.8889992 138.5254990  21.6039997
  33.7809992 138.3874990  21.9229997  32.9459992 139.3164990  21.0669997
  33.0187380 138.6134777  21.5750981  37.7739992 138.7344990  21.2989997
  37.2199992 138.3384990  20.6259997  37.8749992 139.6454990  21.0209997
  37.7118589 138.8033904  21.1693839  22.0399992 136.3534990  32.3869997
  21.1469992 136.6914990  32.3189997  21.9409992 135.4974990  32.8049997
  21.9044752 136.2840986  32.4341644  30.7739992 136.0944990  31.2769997
  31.4729992 136.1684990  31.9269997  30.3939992 135.2294990  31.4309997
  30.8182662 135.9877050  31.3867412  31.5589992 135.7464990  22.3739997
  31.7789992 136.2174990  21.5699997  32.1169992 136.1404990  23.0439997
  31.6646044 135.8642946  22.3545207  28.7589992 137.4744990  23.2089997
  29.5709992 137.9784990  23.2549997  28.5139992 137.3294990  24.1229997
  28.8371091 137.5239366  23.3388552  29.2949992 138.4604990  32.3929997
  29.4139992 139.0344990  33.1499997  29.9499992 137.7724990  32.5079997
  29.3998684 138.4460205  32.5121656  29.6429992 134.5554990  24.1469997
  29.2959992 135.1724990  24.7909997  30.3009992 135.0564990  23.6649997
  29.6844430 134.7076860  24.1700046 132.3139992  38.8134990  94.4659997
 132.6639992  38.1594990  93.8599997 132.4609992  39.6504990  94.0259997
 132.3817192  38.8372545  94.3236712  25.2999992 135.6184990  20.8339997
  25.2169992 136.5064990  21.1809997  26.1899992 135.3534990  21.0659997
  25.4089331 135.7041177  20.9128067  35.4989992 136.3674990  33.2279997
  34.5829992 136.6294990  33.1409997  35.8349992 136.3644990  32.3319997
  35.4188499 136.4030174  33.0948748  21.8749992 138.7104990  19.0099997
  21.8299992 139.6494990  19.1889997  20.9869992 138.4744990  18.7409997
  21.7488166 138.8071698  18.9981507  22.6829992 133.4914990  27.6829997
  22.4539992 133.5504990  26.7559997  22.2399992 132.7004990  27.9899997
  22.5917387 133.3926412  27.5975223  25.9279992 137.4194990  34.0049997
  26.0779992 136.6904990  33.4029997  25.9299992 138.1964990  33.4459997
  25.9487967 137.4247720  33.8470523  26.3399992 135.7884990  31.4979997
  26.8759992 136.2404990  30.8459997  25.4879992 135.6804990  31.0749997
  26.2981795 135.8357444  31.3516211  27.1459992 133.2454990  31.9289997
  27.0479992 134.1914990  31.8239997  26.4029992 132.8724990  31.4529997
  27.0322123 133.3246811  31.8503204  36.2299992 138.8314990  19.0149997
  36.3269992 139.4984990  18.3349997  36.0899992 138.0164990  18.5339997
  36.2243407 138.8125670  18.8568312  35.4779992 136.2394990  18.1329997
  36.0879992 135.8684990  18.7699997  34.6409992 135.8184990  18.3289997
  35.4483704 136.1317942  18.2467077  35.1099992 137.7944990  23.0989997
  35.3899992 136.8874990  23.2229997  35.8689992 138.2284990  22.7099997
  35.2509258 137.7290935  23.0633691 130.0039992  40.7774990  80.9489997
 130.1859992  40.3284990  81.7739997 129.4039992  40.1934990  80.4849997
 129.9478187  40.6370563  80.9992721  35.7219992 138.3764990  28.5349997
  36.6549992 138.5884990  28.4999997  35.4869992 138.4774990  29.4569997
  35.8179517 138.4191844  28.6549113  35.7509992 139.1134990  31.3109997
  34.9079992 139.3814990  31.6759997  36.1939992 139.9354990  31.0999997
  35.6954035 139.2613351  31.3324770  20.0319992 137.5604990  34.7869997
  20.9519992 137.4384990  35.0239997  19.5829992 136.8104990  35.1769997
  20.0970500 137.4424576  34.8721016  35.7239992 135.0574990  23.1469997
  35.9059992 134.6084990  23.9719997  35.1239992 134.4734990  22.6829997
  35.6678187 134.9170563  23.1972721  21.2539992 135.8734990  27.6789997
  21.6989992 135.0814990  27.9809997  21.7199992 136.5894990  28.1089997
  21.3779718 135.8619546  27.7785247  19.5579992 138.8724990  28.7479997
  20.0499992 138.6514990  27.9569997  19.9199992 139.7124990  29.0289997
  19.6742923 138.9558480  28.6777389  37.5899992 135.1254990  19.6749997
  38.0029992 134.4044990  19.1999997  38.2719992 135.7944990  19.7329997
  37.7386060 135.1173741  19.6179233  19.8709992 135.1304990  22.8019997
  18.9459992 135.3384990  22.6729997  20.3249992 135.6144990  22.1119997
  19.8056298 135.2244311  22.6910433  19.8349992 133.8684990  31.1459997
  19.1699992 133.6224990  31.7889997  19.3919992 134.4904990  30.5689997
  19.6841168 133.9189225  31.1559830  36.5549992 133.2924990  32.8319997
  35.7419992 133.6174990  32.4449997  36.7879992 132.5314990  32.2989997
  36.4751347 133.2341891  32.7069824 115.5339992  41.5934990  85.4799997
 115.9789992  40.8014990  85.7819997 115.9999992  42.3094990  85.9109997
 115.6579059  41.5819485  85.5796061  29.9849992 134.7414990  27.1549997
  29.3099992 134.1114990  27.4109997  30.5489992 134.2574990  26.5519997
  29.9689363 134.5898886  27.1084810  35.1269992 132.8484990  27.2679997
  35.7309992 133.3964990  26.7659997  34.2579992 133.1674990  27.0269997
  35.0920419 132.9665628  27.1667741  36.8539992 133.9874990  25.6009997
  37.4659992 133.4734990  25.0739997  37.2369992 134.8644990  25.6239997
  36.9893867 134.0357613  25.5320888  22.3109992 133.3754990  24.9769997
  21.5339992 133.1404990  24.4699997  22.8419992 132.5784990  24.9859997
  22.2763735 133.2356462  24.9088090  21.1479992 133.1734990  20.7809997
  21.5869992 133.7844990  20.1889997  20.5139992 133.7114990  21.2549997
  21.1223859 133.3299076  20.7640287  26.8909992 133.3014990  24.7899997
  27.7649992 133.6904990  24.7609997  26.7549992 133.0864990  25.7129997
  26.9921953 133.3256654  24.9107599  32.4469992 133.3314990  26.4399997
  32.5239992 133.4274990  25.4899997  32.1719992 132.4244990  26.5679997
  32.4203233 133.2219093  26.3273665  33.8009992 133.3574990  22.1319997
  33.0979992 133.9724990  21.9219997  33.3559992 132.5204990  22.2629997
  33.6446550 133.3284679  22.1209819  23.0089992 135.0894990  19.2229997
  23.4999992 134.4594990  18.6959997  23.6319992 135.3854990  19.8859997
  23.1605304 135.0432387  19.2404922  28.0349992 135.3824990  21.6799997
  28.2129992 134.7354990  22.3629997  27.9809992 136.2164990  22.1469997
  28.0520678 135.4066615  21.8366283 113.8379992  44.5924990  86.5489997
 114.3299992  44.3714990  85.7589997 114.1999992  45.4324990  86.8299997
 113.9543429  44.6758220  86.4787918  22.2689992 133.8894990  34.4949997
  21.9029992 133.1234990  34.9369997  23.1819992 133.9184990  34.7809997
  22.3423172 133.7885335  34.5941872  56.2309992 135.8204990  29.6209997
  56.2799992 136.4304990  30.3569997  56.6569992 136.2814990  28.8979997
  56.2952851 135.9663266  29.6240532  50.7089992 138.6124990  29.0879997
  50.8509992 137.6664990  29.1079997  50.6029992 138.8194990  28.1599997
  50.7141051 138.5109706  28.9652249  43.8639992 136.7144990  26.3609997
  43.9069992 137.5744990  25.9419997  43.4059992 136.1614990  25.7269997
  43.8080163 136.7574174  26.2180604  51.5859992 136.8454990  24.7609997
  52.2319992 136.5164990  25.3859997  52.0959992 137.3624990  24.1389997
  51.7434289 136.8704333  24.7623681  40.4839992 139.1114990  27.1229997
  41.1379992 138.5614990  27.5549997  40.5079992 138.8374990  26.2059997
  40.5767199 138.9992178  27.0581650  56.6229992 137.2984990  31.8569997
  55.9339992 137.9564990  31.7619997  56.6379992 137.1004990  32.7939997
  56.5307756 137.3617614  31.9705795  42.6739992 135.6324990  30.4349997
  42.4549992 136.1624990  29.6679997  42.0059992 135.8584990  31.0819997
  42.5536975 135.7355979  30.4175123  53.3499992 136.1364990  26.7419997
  53.1349992 135.3704990  27.2749997  54.0059992 136.6084990  27.2549997
  53.4092673 136.0955739  26.8841972  42.2679992 137.5244990  28.3869997
  42.8809992 138.1574990  28.7599997  42.7799992 137.0524990  27.7309997
  42.4211933 137.5473380  28.3493477 131.8339992  40.9224990  92.8149997
 130.9169992  41.1934990  92.7789997 131.9569992  40.3874990  92.0309997
 131.7250828  40.8872711  92.7040767  53.6969992 134.8514990  30.4209997
  52.9609992 135.4614990  30.3839997  54.3809992 135.2664990  29.8949997
  53.6885367 134.9912562  30.3448156  46.6999992 132.9374990  27.8869997
  46.5829992 131.9894990  27.8329997  45.8449992 133.2704990  28.1599997
  46.5683691 132.8525842  27.9165072  54.9419992 132.8974990  20.8369997
  54.0419992 133.0354990  21.1329997  55.1939992 133.7284990  20.4359997
  54.8527727 133.0288705  20.8232935  43.9689992 133.8414990  28.6649997
  43.1069992 133.7544990  28.2569997  43.9469992 134.6974990  29.0929997
  43.8480557 133.9453078  28.6670202  48.6319992 133.5634990  32.0399997
  49.0519992 133.1484990  32.7929997  47.6989992 133.3844990  32.1569997
  48.5633736 133.4824921  32.1588950  48.2939992 136.0554990  19.3249997
  48.0399992 136.0744990  20.2469997  48.0369992 135.1844990  19.0229997
  48.2244508 135.9403292  19.4104786  44.0599992 138.8064990  29.7599997
  43.4179992 138.7664990  30.4689997  44.0969992 139.7334990  29.5219997
  43.9771659 138.9262540  29.8248463  44.0569992 139.0274990  24.6719997
  43.1639992 138.6874990  24.6129997  44.5079992 138.6504990  23.9159997
  43.9957185 138.9300220  24.5617698  49.5929992 139.4434990  23.4889997
  49.1839992 140.2584990  23.1969997  50.3129992 139.3034990  22.8749997
  49.6344439 139.5360383  23.3660098  50.5969992 138.8894990  26.3029997
  50.4019992 139.4954990  25.5879997  50.7789992 138.0564990  25.8689997
  50.5949195 138.8597936  26.1464079 131.8699992  40.8454990  77.4769997
 132.2829992  40.1244990  77.0009997 132.5519992  41.5144990  77.5349997
 132.0185712  40.8374304  77.4198247  41.8099992 139.1274990  31.6269997
  41.7719992 139.5274990  32.4959997  41.3189992 138.3104990  31.7169997
  41.7384373 139.0718228  31.7580980  45.1759992 136.5014990  18.4259997
  44.7449992 136.0564990  19.1549997  44.4579992 136.8724990  17.9129997
  45.0199176 136.4907063  18.4564913  38.4179992 136.2434990  25.4779997
  39.0489992 136.2144990  26.1969997  38.8679992 135.8184990  24.7469997
  38.5651082 136.1821269  25.4776307  39.6919992 136.9894990  20.9019997
  40.1669992 137.5804990  20.3169997  38.9749992 137.5194990  21.2489997
  39.6600406 137.1421011  20.8688495  46.6389992 136.4554990  25.7579997
  45.7279992 136.5124990  26.0469997  47.1439992 136.3954990  26.5689997
  46.5826873 136.4551838  25.9071190  41.4669992 138.0844990  24.5849997
  40.5779992 138.1834990  24.2449997  41.7629992 137.2424990  24.2389997
  41.3854001 137.9842473  24.4917318  45.1199992 138.0844990  22.2419997
  46.0519992 138.2134990  22.4199997  44.9049992 138.7534990  21.5919997
  45.2184472 138.1925817  22.1784873  51.0439992 135.6904990  29.0219997
  50.3669992 135.8214990  29.6859997  50.5579992 135.5354990  28.2119997
  50.8857265 135.6874665  29.0033380  43.7939992 139.2784990  19.8079997
  43.2519992 138.8994990  19.1169997  44.6279992 139.4734990  19.3799997
  43.8324390 139.2529091  19.6554374  47.9589992 139.2424990  27.6449997
  48.5229992 138.6964990  27.0979997  47.8109992 138.7214990  28.4339997
  48.0163037 139.0971798  27.6767212 114.1509992  40.8504990  80.6039997
 113.2259992  41.0584990  80.4739997 114.6049992  41.3344990  79.9139997
 114.0857401  40.9443895  80.4929433  42.9609992 135.3794990  24.0639997
  42.6429992 134.4764990  24.0279997  43.7419992 135.3814990  23.5109997
  43.0231079 135.2562240  23.9842908  46.5849992 137.6314990  30.0589997
  45.7499992 138.0854990  30.1699997  47.1089992 137.9074990  30.8109997
  46.5416072 137.7308960  30.1758118  51.0269992 136.6584990  19.9429997
  50.0879992 136.7694990  19.7919997  51.3239992 137.5144990  20.2499997
  50.9386136 136.7894977  19.9638568  51.7449992 138.5254990  21.6039997
  52.6369992 138.3874990  21.9229997  51.8019992 139.3164990  21.0669997
  51.8747380 138.6134777  21.5750981  56.6299992 138.7344990  21.2989997
  56.0759992 138.3384990  20.6259997  56.7309992 139.6454990  21.0209997
  56.5678589 138.8033904  21.1693839  40.8959992 136.3534990  32.3869997
  40.0029992 136.6914990  32.3189997  40.7969992 135.4974990  32.8049997
  40.7604752 136.2840986  32.4341644  49.6299992 136.0944990  31.2769997
  50.3289992 136.1684990  31.9269997  49.2499992 135.2294990  31.4309997
  49.6742662 135.9877050  31.3867412  50.4149992 135.7464990  22.3739997
  50.6349992 136.2174990  21.5699997  50.9729992 136.1404990  23.0439997
  50.5206044 135.8642946  22.3545207  47.6149992 137.4744990  23.2089997
  48.4269992 137.9784990  23.2549997  47.3699992 137.3294990  24.1229997
  47.6931091 137.5239366  23.3388552  48.1509992 138.4604990  32.3929997
  48.2699992 139.0344990  33.1499997  48.8059992 137.7724990  32.5079997
  48.2558684 138.4460205  32.5121656 128.9219992  55.8344990  82.5489997
 129.5739992  55.4864990  81.9409997 129.4329992  56.3224990  83.1949997
 129.0802872  55.8528248  82.5530964  48.4989992 134.5554990  24.1469997
  48.1519992 135.1724990  24.7909997  49.1569992 135.0564990  23.6649997
  48.5404430 134.7076860  24.1700046  44.1559992 135.6184990  20.8339997
  44.0729992 136.5064990  21.1809997  45.0459992 135.3534990  21.0659997
  44.2649331 135.7041177  20.9128067  40.7309992 138.7104990  19.0099997
  40.6859992 139.6494990  19.1889997  39.8429992 138.4744990  18.7409997
  40.6048166 138.8071698  18.9981507  41.5389992 133.4914990  27.6829997
  41.3099992 133.5504990  26.7559997  41.0959992 132.7004990  27.9899997
  41.4477387 133.3926412  27.5975223  44.7839992 137.4194990  34.0049997
  44.9339992 136.6904990  33.4029997  44.7859992 138.1964990  33.4459997
  44.8047967 137.4247720  33.8470523  45.1959992 135.7884990  31.4979997
  45.7319992 136.2404990  30.8459997  44.3439992 135.6804990  31.0749997
  45.1541795 135.8357444  31.3516211  46.0019992 133.2454990  31.9289997
  45.9039992 134.1914990  31.8239997  45.2589992 132.8724990  31.4529997
  45.8882123 133.3246811  31.8503204  49.9819992 136.6944990  34.5679997
  49.0339992 136.7264990  34.6999997  50.2939992 136.0684990  35.2219997
  49.8945293 136.6142934  34.6744130  55.0859992 138.8314990  19.0149997
  55.1829992 139.4984990  18.3349997  54.9459992 138.0164990  18.5339997
  55.0803407 138.8125670  18.8568312  54.3339992 136.2394990  18.1329997
  54.9439992 135.8684990  18.7699997  53.4969992 135.8184990  18.3289997
  54.3043704 136.1317942  18.2467077 114.1149992  39.5884990  88.9479997
 113.4499992  39.3424990  89.5909997 113.6719992  40.2104990  88.3709997
 113.9641168  39.6389225  88.9579830  53.9659992 137.7944990  23.0989997
  54.2459992 136.8874990  23.2229997  54.7249992 138.2284990  22.7099997
  54.1069258 137.7290935  23.0633691  54.5779992 138.3764990  28.5349997
  55.5109992 138.5884990  28.4999997  54.3429992 138.4774990  29.4569997
  54.6739517 138.4191844  28.6549113  54.6069992 139.1134990  31.3109997
  53.7639992 139.3814990  31.6759997  55.0499992 139.9354990  31.0999997
  54.5514035 139.2613351  31.3324770  54.5799992 135.0574990  23.1469997
  54.7619992 134.6084990  23.9719997  53.9799992 134.4734990  22.6829997
  54.5238187 134.9170563  23.1972721  40.1099992 135.8734990  27.6789997
  40.5549992 135.0814990  27.9809997  40.5759992 136.5894990  28.1089997
  40.2339718 135.8619546  27.7785247  38.4139992 138.8724990  28.7479997
  38.9059992 138.6514990  27.9569997  38.7759992 139.7124990  29.0289997
  38.5302923 138.9558480  28.6777389  56.4459992 135.1254990  19.6749997
  56.8589992 134.4044990  19.1999997  57.1279992 135.7944990  19.7329997
  56.5946060 135.1173741  19.6179233  38.7269992 135.1304990  22.8019997
  37.8019992 135.3384990  22.6729997  39.1809992 135.6144990  22.1119997
  38.6616298 135.2244311  22.6910433  38.6909992 133.8684990  31.1459997
  38.0259992 133.6224990  31.7889997  38.2479992 134.4904990  30.5689997
  38.5401168 133.9189225  31.1559830  55.4109992 133.2924990  32.8319997
  54.5979992 133.6174990  32.4449997  55.6439992 132.5314990  32.2989997
  55.3311347 133.2341891  32.7069824 116.3069992  52.7634990  93.0919997
 115.4859992  52.9384990  92.6319997 116.0549992  52.6904990  94.0129997
 116.1606173  52.7775806  93.1534954  48.8409992 134.7414990  27.1549997
  48.1659992 134.1114990  27.4109997  49.4049992 134.2574990  26.5519997
  48.8249363 134.5898886  27.1084810  53.9829992 132.8484990  27.2679997
  54.5869992 133.3964990  26.7659997  53.1139992 133.1674990  27.0269997
  53.9480419 132.9665628  27.1667741  55.7099992 133.9874990  25.6009997
  56.3219992 133.4734990  25.0739997  56.0929992 134.8644990  25.6239997
  55.8453867 134.0357613  25.5320888  41.1669992 133.3754990  24.9769997
  40.3899992 133.1404990  24.4699997  41.6979992 132.5784990  24.9859997
  41.1323735 133.2356462  24.9088090  40.0039992 133.1734990  20.7809997
  40.4429992 133.7844990  20.1889997  39.3699992 133.7114990  21.2549997
  39.9783859 133.3299076  20.7640287  45.7469992 133.3014990  24.7899997
  46.6209992 133.6904990  24.7609997  45.6109992 133.0864990  25.7129997
  45.8481953 133.3256654  24.9107599  51.3029992 133.3314990  26.4399997
  51.3799992 133.4274990  25.4899997  51.0279992 132.4244990  26.5679997
  51.2763233 133.2219093  26.3273665  52.6569992 133.3574990  22.1319997
  51.9539992 133.9724990  21.9219997  52.2119992 132.5204990  22.2629997
  52.5006550 133.3284679  22.1209819  41.8649992 135.0894990  19.2229997
  42.3559992 134.4594990  18.6959997  42.4879992 135.3854990  19.8859997
  42.0165304 135.0432387  19.2404922  46.8909992 135.3824990  21.6799997
  47.0689992 134.7354990  22.3629997  46.8369992 136.2164990  22.1469997
  46.9080678 135.4066615  21.8366283 119.2609992  53.7374990  89.3509997
 118.8359992  54.5474990  89.0679997 120.1649992  53.8234990  89.0489997
 119.3251002  53.8598728  89.2714798  75.0869992 135.8204990  29.6209997
  75.1359992 136.4304990  30.3569997  75.5129992 136.2814990  28.8979997
  75.1512851 135.9663266  29.6240532  69.5649992 138.6124990  29.0879997
  69.7069992 137.6664990  29.1079997  69.4589992 138.8194990  28.1599997
  69.5701051 138.5109706  28.9652249  62.7199992 136.7144990  26.3609997
  62.7629992 137.5744990  25.9419997  62.2619992 136.1614990  25.7269997
  62.6640163 136.7574174  26.2180604  70.4419992 136.8454990  24.7609997
  71.0879992 136.5164990  25.3859997  70.9519992 137.3624990  24.1389997
  70.5994289 136.8704333  24.7623681  59.3399992 139.1114990  27.1229997
  59.9939992 138.5614990  27.5549997  59.3639992 138.8374990  26.2059997
  59.4327199 138.9992178  27.0581650  75.4789992 137.2984990  31.8569997
  74.7899992 137.9564990  31.7619997  75.4939992 137.1004990  32.7939997
  75.3867756 137.3617614  31.9705795  61.5299992 135.6324990  30.4349997
  61.3109992 136.1624990  29.6679997  60.8619992 135.8584990  31.0819997
  61.4096975 135.7355979  30.4175123  72.2059992 136.1364990  26.7419997
  71.9909992 135.3704990  27.2749997  72.8619992 136.6084990  27.2549997
  72.2652673 136.0955739  26.8841972  61.1239992 137.5244990  28.3869997
  61.7369992 138.1574990  28.7599997  61.6359992 137.0524990  27.7309997
  61.2771933 137.5473380  28.3493477  72.5529992 134.8514990  30.4209997
  71.8169992 135.4614990  30.3839997  73.2369992 135.2664990  29.8949997
  72.5445367 134.9912562  30.3448156 123.5719992  55.1364990  92.3099997
 123.7569992  54.8034990  93.1879997 124.4189992  55.4464990  91.9879997
 123.7117291  55.1328214  92.3866140  65.5559992 132.9374990  27.8869997
  65.4389992 131.9894990  27.8329997  64.7009992 133.2704990  28.1599997
  65.4243691 132.8525842  27.9165072  73.7979992 132.8974990  20.8369997
  72.8979992 133.0354990  21.1329997  74.0499992 133.7284990  20.4359997
  73.7087727 133.0288705  20.8232935  62.8249992 133.8414990  28.6649997
  61.9629992 133.7544990  28.2569997  62.8029992 134.6974990  29.0929997
  62.7040557 133.9453078  28.6670202  67.4879992 133.5634990  32.0399997
  67.9079992 133.1484990  32.7929997  66.5549992 133.3844990  32.1569997
  67.4193736 133.4824921  32.1588950  67.1499992 136.0554990  19.3249997
  66.8959992 136.0744990  20.2469997  66.8929992 135.1844990  19.0229997
  67.0804508 135.9403292  19.4104786  62.9159992 138.8064990  29.7599997
  62.2739992 138.7664990  30.4689997  62.9529992 139.7334990  29.5219997
  62.8331659 138.9262540  29.8248463  62.9129992 139.0274990  24.6719997
  62.0199992 138.6874990  24.6129997  63.3639992 138.6504990  23.9159997
  62.8517185 138.9300220  24.5617698  68.4489992 139.4434990  23.4889997
  68.0399992 140.2584990  23.1969997  69.1689992 139.3034990  22.8749997
  68.4904439 139.5360383  23.3660098  69.4529992 138.8894990  26.3029997
  69.2579992 139.4954990  25.5879997  69.6349992 138.0564990  25.8689997
  69.4509195 138.8597936  26.1464079  60.6659992 139.1274990  31.6269997
  60.6279992 139.5274990  32.4959997  60.1749992 138.3104990  31.7169997
  60.5944374 139.0718228  31.7580980 125.9169992  56.4224990  91.5539997
 126.5939992  55.7894990  91.3139997 126.2389992  56.8234990  92.3619997
 126.0531280  56.3900638  91.6303190  64.0319992 136.5014990  18.4259997
  63.6009992 136.0564990  19.1549997  63.3139992 136.8724990  17.9129997
  63.8759176 136.4907063  18.4564913  57.2739992 136.2434990  25.4779997
  57.9049992 136.2144990  26.1969997  57.7239992 135.8184990  24.7469997
  57.4211082 136.1821269  25.4776307  58.5479992 136.9894990  20.9019997
  59.0229992 137.5804990  20.3169997  57.8309992 137.5194990  21.2489997
  58.5160406 137.1421011  20.8688495  65.4949992 136.4554990  25.7579997
  64.5839992 136.5124990  26.0469997  65.9999992 136.3954990  26.5689997
  65.4386873 136.4551838  25.9071190  60.3229992 138.0844990  24.5849997
  59.4339992 138.1834990  24.2449997  60.6189992 137.2424990  24.2389997
  60.2414001 137.9842473  24.4917318  63.9759992 138.0844990  22.2419997
  64.9079992 138.2134990  22.4199997  63.7609992 138.7534990  21.5919997
  64.0744472 138.1925817  22.1784873  69.8999992 135.6904990  29.0219997
  69.2229992 135.8214990  29.6859997  69.4139992 135.5354990  28.2119997
  69.7417265 135.6874665  29.0033380  62.6499992 139.2784990  19.8079997
  62.1079992 138.8994990  19.1169997  63.4839992 139.4734990  19.3799997
  62.6884390 139.2529091  19.6554374  66.8149992 139.2424990  27.6449997
  67.3789992 138.6964990  27.0979997  66.6669992 138.7214990  28.4339997
  66.8723037 139.0971798  27.6767212  61.8169992 135.3794990  24.0639997
  61.4989992 134.4764990  24.0279997  62.5979992 135.3814990  23.5109997
  61.8791079 135.2562240  23.9842908 130.8349992  39.0124990  90.6339997
 130.0219992  39.3374990  90.2459997 131.0679992  38.2514990  90.1009997
 130.7552566  38.9541570  90.5089196  65.4409992 137.6314990  30.0589997
  64.6059992 138.0854990  30.1699997  65.9649992 137.9074990  30.8109997
  65.3976072 137.7308960  30.1758118  69.8829992 136.6584990  19.9429997
  68.9439992 136.7694990  19.7919997  70.1799992 137.5144990  20.2499997
  69.7946136 136.7894977  19.9638568  70.6009992 138.5254990  21.6039997
  71.4929992 138.3874990  21.9229997  70.6579992 139.3164990  21.0669997
  70.7307380 138.6134777  21.5750981  75.4859992 138.7344990  21.2989997
  74.9319992 138.3384990  20.6259997  75.5869992 139.6454990  21.0209997
  75.4238589 138.8033904  21.1693839  59.7519992 136.3534990  32.3869997
  58.8589992 136.6914990  32.3189997  59.6529992 135.4974990  32.8049997
  59.6164752 136.2840986  32.4341644  69.2709992 135.7464990  22.3739997
  69.4909992 136.2174990  21.5699997  69.8289992 136.1404990  23.0439997
  69.3766044 135.8642946  22.3545207  66.4709992 137.4744990  23.2089997
  67.2829992 137.9784990  23.2549997  66.2259992 137.3294990  24.1229997
  66.5491091 137.5239366  23.3388552  67.0069992 138.4604990  32.3929997
  67.1259992 139.0344990  33.1499997  67.6619992 137.7724990  32.5079997
  67.1118684 138.4460205  32.5121656  67.3549992 134.5554990  24.1469997
  67.0079992 135.1724990  24.7909997  68.0129992 135.0564990  23.6649997
  67.3964430 134.7076860  24.1700046  63.0119992 135.6184990  20.8339997
  62.9289992 136.5064990  21.1809997  63.9019992 135.3534990  21.0659997
  63.1209331 135.7041177  20.9128067 116.6629992  56.9944990  89.3979997
 115.9419992  57.4344990  88.9469997 116.2969992  56.7434990  90.2469997
 116.5149785  57.0207691  89.4509849  73.2109992 136.3674990  33.2279997
  72.2949992 136.6294990  33.1409997  73.5469992 136.3644990  32.3319997
  73.1308499 136.4030174  33.0948748  59.5869992 138.7104990  19.0099997
  59.5419992 139.6494990  19.1889997  58.6989992 138.4744990  18.7409997
  59.4608166 138.8071698  18.9981507  60.3949992 133.4914990  27.6829997
  60.1659992 133.5504990  26.7559997  59.9519992 132.7004990  27.9899997
  60.3037387 133.3926412  27.5975223  63.6399992 137.4194990  34.0049997
  63.7899992 136.6904990  33.4029997  63.6419992 138.1964990  33.4459997
  63.6607967 137.4247720  33.8470523  64.0519992 135.7884990  31.4979997
  64.5879992 136.2404990  30.8459997  63.1999992 135.6804990  31.0749997
  64.0101795 135.8357444  31.3516211  64.8579992 133.2454990  31.9289997
  64.7599992 134.1914990  31.8239997  64.1149992 132.8724990  31.4529997
  64.7442123 133.3246811  31.8503204  73.9419992 138.8314990  19.0149997
  74.0389992 139.4984990  18.3349997  73.8019992 138.0164990  18.5339997
  73.9363407 138.8125670  18.8568312  73.1899992 136.2394990  18.1329997
  73.7999992 135.8684990  18.7699997  72.3529992 135.8184990  18.3289997
  73.1603704 136.1317942  18.2467077  72.8219992 137.7944990  23.0989997
  73.1019992 136.8874990  23.2229997  73.5809992 138.2284990  22.7099997
  72.9629258 137.7290935  23.0633691  73.4339992 138.3764990  28.5349997
  74.3669992 138.5884990  28.4999997  73.1989992 138.4774990  29.4569997
  73.5299517 138.4191844  28.6549113 119.1299992  56.5944990  88.4279997
 118.2649992  56.6664990  88.8319997 119.0749992  57.1414990  87.6439997
 119.0042066  56.6782678  88.3773371  73.4629992 139.1134990  31.3109997
  72.6199992 139.3814990  31.6759997  73.9059992 139.9354990  31.0999997
  73.4074035 139.2613351  31.3324770  73.4359992 135.0574990  23.1469997
  73.6179992 134.6084990  23.9719997  72.8359992 134.4734990  22.6829997
  73.3798187 134.9170563  23.1972721  58.9659992 135.8734990  27.6789997
  59.4109992 135.0814990  27.9809997  59.4319992 136.5894990  28.1089997
  59.0899718 135.8619546  27.7785247  57.2699992 138.8724990  28.7479997
  57.7619992 138.6514990  27.9569997  57.6319992 139.7124990  29.0289997
  57.3862923 138.9558480  28.6777389  75.2659992 135.2024990  35.0129997
  74.3489992 135.4734990  34.9769997  75.3889992 134.6674990  34.2289997
  75.1570828 135.1672711  34.9020767  75.3019992 135.1254990  19.6749997
  75.7149992 134.4044990  19.1999997  75.9839992 135.7944990  19.7329997
  75.4506060 135.1173741  19.6179233  57.5829992 135.1304990  22.8019997
  56.6579992 135.3384990  22.6729997  58.0369992 135.6144990  22.1119997
  57.5176298 135.2244311  22.6910433  57.5469992 133.8684990  31.1459997
  56.8819992 133.6224990  31.7889997  57.1039992 134.4904990  30.5689997
  57.3961168 133.9189225  31.1559830  74.2669992 133.2924990  32.8319997
  73.4539992 133.6174990  32.4449997  74.4999992 132.5314990  32.2989997
  74.1871347 133.2341891  32.7069824  67.6969992 134.7414990  27.1549997
  67.0219992 134.1114990  27.4109997  68.2609992 134.2574990  26.5519997
  67.6809363 134.5898886  27.1084810 123.8409992  56.4824990  87.6039997
 123.3839992  57.0114990  86.9499997 124.0029992  57.0854990  88.3289997
 123.8003919  56.6363990  87.6125740  72.8389992 132.8484990  27.2679997
  73.4429992 133.3964990  26.7659997  71.9699992 133.1674990  27.0269997
  72.8040419 132.9665628  27.1667741  74.5659992 133.9874990  25.6009997
  75.1779992 133.4734990  25.0739997  74.9489992 134.8644990  25.6239997
  74.7013867 134.0357613  25.5320888  60.0229992 133.3754990  24.9769997
  59.2459992 133.1404990  24.4699997  60.5539992 132.5784990  24.9859997
  59.9883735 133.2356462  24.9088090  58.8599992 133.1734990  20.7809997
  59.2989992 133.7844990  20.1889997  58.2259992 133.7114990  21.2549997
  58.8343859 133.3299076  20.7640287  64.6029992 133.3014990  24.7899997
  65.4769992 133.6904990  24.7609997  64.4669992 133.0864990  25.7129997
  64.7041953 133.3256654  24.9107599  70.1589992 133.3314990  26.4399997
  70.2359992 133.4274990  25.4899997  69.8839992 132.4244990  26.5679997
  70.1323233 133.2219093  26.3273665  71.5129992 133.3574990  22.1319997
  70.8099992 133.9724990  21.9219997  71.0679992 132.5204990  22.2629997
  71.3566550 133.3284679  22.1209819  60.7209992 135.0894990  19.2229997
  61.2119992 134.4594990  18.6959997  61.3439992 135.3854990  19.8859997
  60.8725304 135.0432387  19.2404922  65.7469992 135.3824990  21.6799997
  65.9249992 134.7354990  22.3629997  65.6929992 136.2164990  22.1469997
  65.7640678 135.4066615  21.8366283  93.9429992 135.8204990  29.6209997
  93.9919992 136.4304990  30.3569997  94.3689992 136.2814990  28.8979997
  94.0072851 135.9663266  29.6240532 126.1679992  55.3604990  88.5489997
 125.2639992  55.5254990  88.2829997 126.5969992  56.2134990  88.4829997
 126.1022017  55.4984184  88.5036495  88.4209992 138.6124990  29.0879997
  88.5629992 137.6664990  29.1079997  88.3149992 138.8194990  28.1599997
  88.4261051 138.5109706  28.9652249  81.5759992 136.7144990  26.3609997
  81.6189992 137.5744990  25.9419997  81.1179992 136.1614990  25.7269997
  81.5200163 136.7574174  26.2180604  89.2979992 136.8454990  24.7609997
  89.9439992 136.5164990  25.3859997  89.8079992 137.3624990  24.1389997
  89.4554289 136.8704333  24.7623681  78.1959992 139.1114990  27.1229997
  78.8499992 138.5614990  27.5549997  78.2199992 138.8374990  26.2059997
  78.2887199 138.9992178  27.0581650  94.3349992 137.2984990  31.8569997
  93.6459992 137.9564990  31.7619997  94.3499992 137.1004990  32.7939997
  94.2427756 137.3617614  31.9705795  80.3859992 135.6324990  30.4349997
  80.1669992 136.1624990  29.6679997  79.7179992 135.8584990  31.0819997
  80.2656975 135.7355979  30.4175123  91.0619992 136.1364990  26.7419997
  90.8469992 135.3704990  27.2749997  91.7179992 136.6084990  27.2549997
  91.1212673 136.0955739  26.8841972  79.9799992 137.5244990  28.3869997
  80.5929992 138.1574990  28.7599997  80.4919992 137.0524990  27.7309997
  80.1331933 137.5473380  28.3493477  91.4089992 134.8514990  30.4209997
  90.6729992 135.4614990  30.3839997  92.0929992 135.2664990  29.8949997
  91.4005367 134.9912562  30.3448156  84.4119992 132.9374990  27.8869997
  84.2949992 131.9894990  27.8329997  83.5569992 133.2704990  28.1599997
  84.2803691 132.8525842  27.9165072 128.7719992  56.9304990  88.8439997
 128.5909992  57.8464990  88.6329997 128.9489992  56.5194990  87.9969997
 128.7711377  57.0003365  88.7007178  92.6539992 132.8974990  20.8369997
  91.7539992 133.0354990  21.1329997  92.9059992 133.7284990  20.4359997
  92.5647727 133.0288705  20.8232935  81.6809992 133.8414990  28.6649997
  80.8189992 133.7544990  28.2569997  81.6589992 134.6974990  29.0929997
  81.5600557 133.9453078  28.6670202  86.3439992 133.5634990  32.0399997
  86.7639992 133.1484990  32.7929997  85.4109992 133.3844990  32.1569997
  86.2753736 133.4824921  32.1588950  89.6699992 137.3184990  32.8929997
  89.1559992 137.1934990  33.6909997  89.5149992 138.2314990  32.6489997
  89.5787802 137.4247433  32.9691504  86.0059992 136.0554990  19.3249997
  85.7519992 136.0744990  20.2469997  85.7489992 135.1844990  19.0229997
  85.9364508 135.9403292  19.4104786  81.7719992 138.8064990  29.7599997
  81.1299992 138.7664990  30.4689997  81.8089992 139.7334990  29.5219997
  81.6891659 138.9262540  29.8248463  81.7689992 139.0274990  24.6719997
  80.8759992 138.6874990  24.6129997  82.2199992 138.6504990  23.9159997
  81.7077185 138.9300220  24.5617698  87.3049992 139.4434990  23.4889997
  86.8959992 140.2584990  23.1969997  88.0249992 139.3034990  22.8749997
  87.3464439 139.5360383  23.3660098  88.3089992 138.8894990  26.3029997
  88.1139992 139.4954990  25.5879997  88.4909992 138.0564990  25.8689997
  88.3069195 138.8597936  26.1464079  79.5219992 139.1274990  31.6269997
  79.4839992 139.5274990  32.4959997  79.0309992 138.3104990  31.7169997
  79.4504374 139.0718228  31.7580980 116.0779992  55.6174990  86.3089997
 116.0589992  55.1914990  87.1659997 116.8819992  55.2984990  85.8999997
 116.1841393  55.5160297  86.3710155  82.8879992 136.5014990  18.4259997
  82.4569992 136.0564990  19.1549997  82.1699992 136.8724990  17.9129997
  82.7319176 136.4907063  18.4564913  76.1299992 136.2434990  25.4779997
  76.7609992 136.2144990  26.1969997  76.5799992 135.8184990  24.7469997
  76.2771082 136.1821269  25.4776307  77.4039992 136.9894990  20.9019997
  77.8789992 137.5804990  20.3169997  76.6869992 137.5194990  21.2489997
  77.3720406 137.1421011  20.8688495  84.3509992 136.4554990  25.7579997
  83.4399992 136.5124990  26.0469997  84.8559992 136.3954990  26.5689997
  84.2946873 136.4551838  25.9071190  79.1789992 138.0844990  24.5849997
  78.2899992 138.1834990  24.2449997  79.4749992 137.2424990  24.2389997
  79.0974001 137.9842473  24.4917318  82.8319992 138.0844990  22.2419997
  83.7639992 138.2134990  22.4199997  82.6169992 138.7534990  21.5919997
  82.9304472 138.1925817  22.1784873  88.7559992 135.6904990  29.0219997
  88.0789992 135.8214990  29.6859997  88.2699992 135.5354990  28.2119997
  88.5977265 135.6874665  29.0033380  81.5059992 139.2784990  19.8079997
  80.9639992 138.8994990  19.1169997  82.3399992 139.4734990  19.3799997
  81.5444390 139.2529091  19.6554374  85.6709992 139.2424990  27.6449997
  86.2349992 138.6964990  27.0979997  85.5229992 138.7214990  28.4339997
  85.7283037 139.0971798  27.6767212  80.6729992 135.3794990  24.0639997
  80.3549992 134.4764990  24.0279997  81.4539992 135.3814990  23.5109997
  80.7351079 135.2562240  23.9842908 118.2189992  54.3274990  84.9639997
 117.9999992  53.4104990  85.1329997 119.0429992  54.4674990  85.4299997
 118.3004637  54.2209586  85.0501414  84.2969992 137.6314990  30.0589997
  83.4619992 138.0854990  30.1699997  84.8209992 137.9074990  30.8109997
  84.2536072 137.7308960  30.1758118  88.7389992 136.6584990  19.9429997
  87.7999992 136.7694990  19.7919997  89.0359992 137.5144990  20.2499997
  88.6506136 136.7894977  19.9638568  89.4569992 138.5254990  21.6039997
  90.3489992 138.3874990  21.9229997  89.5139992 139.3164990  21.0669997
  89.5867380 138.6134777  21.5750981  94.3419992 138.7344990  21.2989997
  93.7879992 138.3384990  20.6259997  94.4429992 139.6454990  21.0209997
  94.2798589 138.8033904  21.1693839  87.3419992 136.0944990  31.2769997
  88.0409992 136.1684990  31.9269997  86.9619992 135.2294990  31.4309997
  87.3862662 135.9877050  31.3867412  88.1269992 135.7464990  22.3739997
  88.3469992 136.2174990  21.5699997  88.6849992 136.1404990  23.0439997
  88.2326044 135.8642946  22.3545207  85.3269992 137.4744990  23.2089997
  86.1389992 137.9784990  23.2549997  85.0819992 137.3294990  24.1229997
  85.4051091 137.5239366  23.3388552  85.8629992 138.4604990  32.3929997
  85.9819992 139.0344990  33.1499997  86.5179992 137.7724990  32.5079997
  85.9678684 138.4460205  32.5121656  86.2109992 134.5554990  24.1469997
  85.8639992 135.1724990  24.7909997  86.8689992 135.0564990  23.6649997
  86.2524430 134.7076860  24.1700046  81.8679992 135.6184990  20.8339997
  81.7849992 136.5064990  21.1809997  82.7579992 135.3534990  21.0659997
  81.9769331 135.7041177  20.9128067 120.7559992  54.7974990  85.8119997
 120.9689992  53.9094990  85.5249997 120.8209992  54.7624990  86.7669997
 120.7939075  54.6713318  85.9017355  78.4429992 138.7104990  19.0099997
  78.3979992 139.6494990  19.1889997  77.5549992 138.4744990  18.7409997
  78.3168166 138.8071698  18.9981507  79.2509992 133.4914990  27.6829997
  79.0219992 133.5504990  26.7559997  78.8079992 132.7004990  27.9899997
  79.1597387 133.3926412  27.5975223  82.4959992 137.4194990  34.0049997
  82.6459992 136.6904990  33.4029997  82.4979992 138.1964990  33.4459997
  82.5167967 137.4247720  33.8470523  82.9079992 135.7884990  31.4979997
  83.4439992 136.2404990  30.8459997  82.0559992 135.6804990  31.0749997
  82.8661795 135.8357444  31.3516211  83.7139992 133.2454990  31.9289997
  83.6159992 134.1914990  31.8239997  82.9709992 132.8724990  31.4529997
  83.6002123 133.3246811  31.8503204  87.6939992 136.6944990  34.5679997
  86.7459992 136.7264990  34.6999997  88.0059992 136.0684990  35.2219997
  87.6065293 136.6142934  34.6744130  92.7979992 138.8314990  19.0149997
  92.8949992 139.4984990  18.3349997  92.6579992 138.0164990  18.5339997
  92.7923407 138.8125670  18.8568312  92.0459992 136.2394990  18.1329997
  92.6559992 135.8684990  18.7699997  91.2089992 135.8184990  18.3289997
  92.0163704 136.1317942  18.2467077  91.6779992 137.7944990  23.0989997
  91.9579992 136.8874990  23.2229997  92.4369992 138.2284990  22.7099997
  91.8189258 137.7290935  23.0633691  92.2899992 138.3764990  28.5349997
  93.2229992 138.5884990  28.4999997  92.0549992 138.4774990  29.4569997
  92.3859517 138.4191844  28.6549113 124.2649992  40.4614990  84.9569997
 123.5899992  39.8314990  85.2119997 124.8289992  39.9774990  84.3539997
 124.2489558  40.3099283  84.9103451  92.3189992 139.1134990  31.3109997
  91.4759992 139.3814990  31.6759997  92.7619992 139.9354990  31.0999997
  92.2634035 139.2613351  31.3324770  92.2919992 135.0574990  23.1469997
  92.4739992 134.6084990  23.9719997  91.6919992 134.4734990  22.6829997
  92.2358187 134.9170563  23.1972721  77.8219992 135.8734990  27.6789997
  78.2669992 135.0814990  27.9809997  78.2879992 136.5894990  28.1089997
  77.9459718 135.8619546  27.7785247  76.1259992 138.8724990  28.7479997
  76.6179992 138.6514990  27.9569997  76.4879992 139.7124990  29.0289997
  76.2422923 138.9558480  28.6777389  94.1579992 135.1254990  19.6749997
  94.5709992 134.4044990  19.1999997  94.8399992 135.7944990  19.7329997
  94.3066060 135.1173741  19.6179233  76.4389992 135.1304990  22.8019997
  75.5139992 135.3384990  22.6729997  76.8929992 135.6144990  22.1119997
  76.3736298 135.2244311  22.6910433  76.4029992 133.8684990  31.1459997
  75.7379992 133.6224990  31.7889997  75.9599992 134.4904990  30.5689997
  76.2521168 133.9189225  31.1559830  93.1229992 133.2924990  32.8319997
  92.3099992 133.6174990  32.4449997  93.3559992 132.5314990  32.2989997
  93.0431347 133.2341891  32.7069824  86.5529992 134.7414990  27.1549997
  85.8779992 134.1114990  27.4109997  87.1169992 134.2574990  26.5519997
  86.5369363 134.5898886  27.1084810  91.6949992 132.8484990  27.2679997
  92.2989992 133.3964990  26.7659997  90.8259992 133.1674990  27.0269997
  91.6600419 132.9665628  27.1667741 129.4069992  38.5684990  85.0689997
 130.0109992  39.1164990  84.5679997 128.5379992  38.8874990  84.8289997
 129.3721126  38.6867070  84.9679180  93.4219992 133.9874990  25.6009997
  94.0339992 133.4734990  25.0739997  93.8049992 134.8644990  25.6239997
  93.5573867 134.0357613  25.5320888  78.8789992 133.3754990  24.9769997
  78.1019992 133.1404990  24.4699997  79.4099992 132.5784990  24.9859997
  78.8443735 133.2356462  24.9088090  77.7159992 133.1734990  20.7809997
  78.1549992 133.7844990  20.1889997  77.0819992 133.7114990  21.2549997
  77.6903859 133.3299076  20.7640287  83.4589992 133.3014990  24.7899997
  84.3329992 133.6904990  24.7609997  83.3229992 133.0864990  25.7129997
  83.5601953 133.3256654  24.9107599  89.0149992 133.3314990  26.4399997
  89.0919992 133.4274990  25.4899997  88.7399992 132.4244990  26.5679997
  88.9883233 133.2219093  26.3273665  90.3689992 133.3574990  22.1319997
  89.6659992 133.9724990  21.9219997  89.9239992 132.5204990  22.2629997
  90.2126550 133.3284679  22.1209819  79.5769992 135.0894990  19.2229997
  80.0679992 134.4594990  18.6959997  80.1999992 135.3854990  19.8859997
  79.7285304 135.0432387  19.2404922  84.6029992 135.3824990  21.6799997
  84.7809992 134.7354990  22.3629997  84.5489992 136.2164990  22.1469997
  84.6200678 135.4066615  21.8366283  78.8369992 133.8894990  34.4949997
  78.4709992 133.1234990  34.9369997  79.7499992 133.9184990  34.7809997
  78.9103172 133.7885335  34.5941872 112.7989992 135.8204990  29.6209997
 112.8479992 136.4304990  30.3569997 113.2249992 136.2814990  28.8979997
 112.8632851 135.9663266  29.6240532 131.1339992  39.7074990  83.4029997
 131.7459992  39.1934990  82.8759997 131.5169992  40.5844990  83.4259997
 131.2693867  39.7557613  83.3340888 107.2769992 138.6124990  29.0879997
 107.4189992 137.6664990  29.1079997 107.1709992 138.8194990  28.1599997
 107.2821051 138.5109706  28.9652249 100.4319992 136.7144990  26.3609997
 100.4749992 137.5744990  25.9419997  99.9739992 136.1614990  25.7269997
 100.3760163 136.7574174  26.2180604 108.1539992 136.8454990  24.7609997
 108.7999992 136.5164990  25.3859997 108.6639992 137.3624990  24.1389997
 108.3114289 136.8704333  24.7623681  97.0519992 139.1114990  27.1229997
  97.7059992 138.5614990  27.5549997  97.0759992 138.8374990  26.2059997
  97.1447199 138.9992178  27.0581650 113.1909992 137.2984990  31.8569997
 112.5019992 137.9564990  31.7619997 113.2059992 137.1004990  32.7939997
 113.0987756 137.3617614  31.9705795  99.2419992 135.6324990  30.4349997
  99.0229992 136.1624990  29.6679997  98.5739992 135.8584990  31.0819997
  99.1216975 135.7355979  30.4175123 109.9179992 136.1364990  26.7419997
 109.7029992 135.3704990  27.2749997 110.5739992 136.6084990  27.2549997
 109.9772673 136.0955739  26.8841972  98.8359992 137.5244990  28.3869997
  99.4489992 138.1574990  28.7599997  99.3479992 137.0524990  27.7309997
  98.9891933 137.5473380  28.3493477 110.2649992 134.8514990  30.4209997
 109.5289992 135.4614990  30.3839997 110.9489992 135.2664990  29.8949997
 110.2565367 134.9912562  30.3448156 103.2679992 132.9374990  27.8869997
 103.1509992 131.9894990  27.8329997 102.4129992 133.2704990  28.1599997
 103.1363691 132.8525842  27.9165072 116.5909992  39.0954990  82.7789997
 115.8139992  38.8604990  82.2709997 117.1219992  38.2984990  82.7879997
 116.5564443  38.9556721  82.7107200 111.5099992 132.8974990  20.8369997
 110.6099992 133.0354990  21.1329997 111.7619992 133.7284990  20.4359997
 111.4207727 133.0288705  20.8232935 100.5369992 133.8414990  28.6649997
  99.6749992 133.7544990  28.2569997 100.5149992 134.6974990  29.0929997
 100.4160557 133.9453078  28.6670202 105.1999992 133.5634990  32.0399997
 105.6199992 133.1484990  32.7929997 104.2669992 133.3844990  32.1569997
 105.1313736 133.4824921  32.1588950 104.8619992 136.0554990  19.3249997
 104.6079992 136.0744990  20.2469997 104.6049992 135.1844990  19.0229997
 104.7924508 135.9403292  19.4104786 100.6279992 138.8064990  29.7599997
  99.9859992 138.7664990  30.4689997 100.6649992 139.7334990  29.5219997
 100.5451659 138.9262540  29.8248463 100.6249992 139.0274990  24.6719997
  99.7319992 138.6874990  24.6129997 101.0759992 138.6504990  23.9159997
 100.5637185 138.9300220  24.5617698 106.1609992 139.4434990  23.4889997
 105.7519992 140.2584990  23.1969997 106.8809992 139.3034990  22.8749997
 106.2024439 139.5360383  23.3660098 107.1649992 138.8894990  26.3029997
 106.9699992 139.4954990  25.5879997 107.3469992 138.0564990  25.8689997
 107.1629195 138.8597936  26.1464079  98.3779992 139.1274990  31.6269997
  98.3399992 139.5274990  32.4959997  97.8869992 138.3104990  31.7169997
  98.3064374 139.0718228  31.7580980 101.7439992 136.5014990  18.4259997
 101.3129992 136.0564990  19.1549997 101.0259992 136.8724990  17.9129997
 101.5879176 136.4907063  18.4564913 115.4279992  38.8934990  78.5819997
 115.8669992  39.5044990  77.9909997 114.7939992  39.4314990  79.0559997
 115.4024103  39.0499233  78.5651376  94.9859992 136.2434990  25.4779997
  95.6169992 136.2144990  26.1969997  95.4359992 135.8184990  24.7469997
  95.1331082 136.1821269  25.4776307  96.2599992 136.9894990  20.9019997
  96.7349992 137.5804990  20.3169997  95.5429992 137.5194990  21.2489997
  96.2280406 137.1421011  20.8688495 103.2069992 136.4554990  25.7579997
 102.2959992 136.5124990  26.0469997 103.7119992 136.3954990  26.5689997
 103.1506873 136.4551838  25.9071190  98.0349992 138.0844990  24.5849997
  97.1459992 138.1834990  24.2449997  98.3309992 137.2424990  24.2389997
  97.9534001 137.9842473  24.4917318 101.6879992 138.0844990  22.2419997
 102.6199992 138.2134990  22.4199997 101.4729992 138.7534990  21.5919997
 101.7864472 138.1925817  22.1784873 107.6119992 135.6904990  29.0219997
 106.9349992 135.8214990  29.6859997 107.1259992 135.5354990  28.2119997
 107.4537265 135.6874665  29.0033380 100.3619992 139.2784990  19.8079997
  99.8199992 138.8994990  19.1169997 101.1959992 139.4734990  19.3799997
 100.4004390 139.2529091  19.6554374 104.5269992 139.2424990  27.6449997
 105.0909992 138.6964990  27.0979997 104.3789992 138.7214990  28.4339997
 104.5843037 139.0971798  27.6767212  99.5289992 135.3794990  24.0639997
  99.2109992 134.4764990  24.0279997 100.3099992 135.3814990  23.5109997
  99.5911079 135.2562240  23.9842908 103.1529992 137.6314990  30.0589997
 102.3179992 138.0854990  30.1699997 103.6769992 137.9074990  30.8109997
 103.1096072 137.7308960  30.1758118 121.1709992  39.0214990  82.5919997
 122.0449992  39.4104990  82.5619997 121.0349992  38.8064990  83.5149997
 121.2723125  39.0457120  82.7126523 107.5949992 136.6584990  19.9429997
 106.6559992 136.7694990  19.7919997 107.8919992 137.5144990  20.2499997
 107.5066136 136.7894977  19.9638568 108.3129992 138.5254990  21.6039997
 109.2049992 138.3874990  21.9229997 108.3699992 139.3164990  21.0669997
 108.4427380 138.6134777  21.5750981 113.1979992 138.7344990  21.2989997
 112.6439992 138.3384990  20.6259997 113.2989992 139.6454990  21.0209997
 113.1358589 138.8033904  21.1693839  97.4639992 136.3534990  32.3869997
  96.5709992 136.6914990  32.3189997  97.3649992 135.4974990  32.8049997
  97.3284752 136.2840986  32.4341644 106.1979992 136.0944990  31.2769997
 106.8969992 136.1684990  31.9269997 105.8179992 135.2294990  31.4309997
 106.2422662 135.9877050  31.3867412 106.9829992 135.7464990  22.3739997
 107.2029992 136.2174990  21.5699997 107.5409992 136.1404990  23.0439997
 107.0886044 135.8642946  22.3545207 104.1829992 137.4744990  23.2089997
 104.9949992 137.9784990  23.2549997 103.9379992 137.3294990  24.1229997
 104.2611091 137.5239366  23.3388552 104.7189992 138.4604990  32.3929997
 104.8379992 139.0344990  33.1499997 105.3739992 137.7724990  32.5079997
 104.8238684 138.4460205  32.5121656 105.0669992 134.5554990  24.1469997
 104.7199992 135.1724990  24.7909997 105.7249992 135.0564990  23.6649997
 105.1084430 134.7076860  24.1700046 100.7239992 135.6184990  20.8339997
 100.6409992 136.5064990  21.1809997 101.6139992 135.3534990  21.0659997
 100.8329331 135.7041177  20.9128067 126.7269992  39.0514990  84.2409997
 126.8039992  39.1474990  83.2919997 126.4519992  38.1444990  84.3699997
 126.7003407  38.9419188  84.1283532  97.2989992 138.7104990  19.0099997
  97.2539992 139.6494990  19.1889997  96.4109992 138.4744990  18.7409997
  97.1728166 138.8071698  18.9981507  98.1069992 133.4914990  27.6829997
  97.8779992 133.5504990  26.7559997  97.6639992 132.7004990  27.9899997
  98.0157387 133.3926412  27.5975223 101.7639992 135.7884990  31.4979997
 102.2999992 136.2404990  30.8459997 100.9119992 135.6804990  31.0749997
 101.7221795 135.8357444  31.3516211 102.5699992 133.2454990  31.9289997
 102.4719992 134.1914990  31.8239997 101.8269992 132.8724990  31.4529997
 102.4562123 133.3246811  31.8503204 103.8339992 137.5664990  35.4929997
 103.5979992 137.3474990  36.3939997 103.0509992 137.3594990  34.9829997
 103.6958382 137.5085340  35.5473991 111.6539992 138.8314990  19.0149997
 111.7509992 139.4984990  18.3349997 111.5139992 138.0164990  18.5339997
 111.6483407 138.8125670  18.8568312 110.9019992 136.2394990  18.1329997
 111.5119992 135.8684990  18.7699997 110.0649992 135.8184990  18.3289997
 110.8723704 136.1317942  18.2467077 110.5339992 137.7944990  23.0989997
 110.8139992 136.8874990  23.2229997 111.2929992 138.2284990  22.7099997
 110.6749258 137.7290935  23.0633691 111.1459992 138.3764990  28.5349997
 112.0789992 138.5884990  28.4999997 110.9109992 138.4774990  29.4569997
 111.2419517 138.4191844  28.6549113 111.1749992 139.1134990  31.3109997
 110.3319992 139.3814990  31.6759997 111.6179992 139.9354990  31.0999997
 111.1194035 139.2613351  31.3324770 128.0809992  39.0774990  79.9339997
 127.3779992  39.6924990  79.7239997 127.6359992  38.2404990  80.0649997
 127.9246550  39.0484679  79.9229819 111.1479992 135.0574990  23.1469997
 111.3299992 134.6084990  23.9719997 110.5479992 134.4734990  22.6829997
 111.0918187 134.9170563  23.1972721  96.6779992 135.8734990  27.6789997
  97.1229992 135.0814990  27.9809997  97.1439992 136.5894990  28.1089997
  96.8019718 135.8619546  27.7785247  94.9819992 138.8724990  28.7479997
  95.4739992 138.6514990  27.9569997  95.3439992 139.7124990  29.0289997
  95.0982923 138.9558480  28.6777389 113.0139992 135.1254990  19.6749997
 113.4269992 134.4044990  19.1999997 113.6959992 135.7944990  19.7329997
 113.1626060 135.1173741  19.6179233  95.2949992 135.1304990  22.8019997
  94.3699992 135.3384990  22.6729997  95.7489992 135.6144990  22.1119997
  95.2296298 135.2244311  22.6910433  95.2589992 133.8684990  31.1459997
  94.5939992 133.6224990  31.7889997  94.8159992 134.4904990  30.5689997
  95.1081168 133.9189225  31.1559830 111.9789992 133.2924990  32.8319997
 111.1659992 133.6174990  32.4449997 112.2119992 132.5314990  32.2989997
 111.8991347 133.2341891  32.7069824 105.4089992 134.7414990  27.1549997
 104.7339992 134.1114990  27.4109997 105.9729992 134.2574990  26.5519997
 105.3929363 134.5898886  27.1084810 110.5509992 132.8484990  27.2679997
 111.1549992 133.3964990  26.7659997 109.6819992 133.1674990  27.0269997
 110.5160419 132.9665628  27.1667741 112.2779992 133.9874990  25.6009997
 112.8899992 133.4734990  25.0739997 112.6609992 134.8644990  25.6239997
 112.4133867 134.0357613  25.5320888 115.3289992  54.8414990  79.4799997
 114.6439992  54.8034990  78.8119997 115.3319992  55.7534990  79.7679997
 115.2357358  54.9596744  79.4276145  97.7349992 133.3754990  24.9769997
  96.9579992 133.1404990  24.4699997  98.2659992 132.5784990  24.9859997
  97.7003735 133.2356462  24.9088090  96.5719992 133.1734990  20.7809997
  97.0109992 133.7844990  20.1889997  95.9379992 133.7114990  21.2549997
  96.5463859 133.3299076  20.7640287 102.3149992 133.3014990  24.7899997
 103.1889992 133.6904990  24.7609997 102.1789992 133.0864990  25.7129997
 102.4161953 133.3256654  24.9107599 107.8709992 133.3314990  26.4399997
 107.9479992 133.4274990  25.4899997 107.5959992 132.4244990  26.5679997
 107.8443233 133.2219093  26.3273665 109.2249992 133.3574990  22.1319997
 108.5219992 133.9724990  21.9219997 108.7799992 132.5204990  22.2629997
 109.0686550 133.3284679  22.1209819  98.4329992 135.0894990  19.2229997
  98.9239992 134.4594990  18.6959997  99.0559992 135.3854990  19.8859997
  98.5845304 135.0432387  19.2404922 103.4589992 135.3824990  21.6799997
 103.6369992 134.7354990  22.3629997 103.4049992 136.2164990  22.1469997
 103.4760678 135.4066615  21.8366283 131.6549992 135.8204990  29.6209997
 131.7039992 136.4304990  30.3569997 132.0809992 136.2814990  28.8979997
 131.7192851 135.9663266  29.6240532 126.1329992 138.6124990  29.0879997
 126.2749992 137.6664990  29.1079997 126.0269992 138.8194990  28.1599997
 126.1381051 138.5109706  28.9652249 119.2879992 136.7144990  26.3609997
 119.3309992 137.5744990  25.9419997 118.8299992 136.1614990  25.7269997
 119.2320163 136.7574174  26.2180604 122.3149992  41.1024990  79.4819997
 122.4929992  40.4554990  80.1649997 122.2609992  41.9364990  79.9489997
 122.3320678  41.1266615  79.6386283 127.0099992 136.8454990  24.7609997
 127.6559992 136.5164990  25.3859997 127.5199992 137.3624990  24.1389997
 127.1674289 136.8704333  24.7623681 115.9079992 139.1114990  27.1229997
 116.5619992 138.5614990  27.5549997 115.9319992 138.8374990  26.2059997
 116.0007199 138.9992178  27.0581650 132.0469992 137.2984990  31.8569997
 131.3579992 137.9564990  31.7619997 132.0619992 137.1004990  32.7939997
 131.9547756 137.3617614  31.9705795 118.0979992 135.6324990  30.4349997
 117.8789992 136.1624990  29.6679997 117.4299992 135.8584990  31.0819997
 117.9776975 135.7355979  30.4175123 128.7739992 136.1364990  26.7419997
 128.5589992 135.3704990  27.2749997 129.4299992 136.6084990  27.2549997
 128.8332673 136.0955739  26.8841972 117.6919992 137.5244990  28.3869997
 118.3049992 138.1574990  28.7599997 118.2039992 137.0524990  27.7309997
 117.8451933 137.5473380  28.3493477 129.1209992 134.8514990  30.4209997
 128.3849992 135.4614990  30.3839997 129.8049992 135.2664990  29.8949997
 129.1125367 134.9912562  30.3448156 122.1239992 132.9374990  27.8869997
 122.0069992 131.9894990  27.8329997 121.2689992 133.2704990  28.1599997
 121.9923691 132.8525842  27.9165072 130.3659992 132.8974990  20.8369997
 129.4659992 133.0354990  21.1329997 130.6179992 133.7284990  20.4359997
 130.2767727 133.0288705  20.8232935 129.6249992 138.9874990  34.6729997
 129.2179992 139.4674990  33.9519997 129.6659992 138.0814990  34.3649997
 129.5748403 138.9307989  34.5327253 130.9019992  55.6134990  80.5569997
 130.7079992  54.8654990  79.9919997 130.8629992  56.3714990  79.9729997
 130.8701907  55.6135770  80.4008077 119.3929992 133.8414990  28.6649997
 118.5309992 133.7544990  28.2569997 119.3709992 134.6974990  29.0929997
 119.2720557 133.9453078  28.6670202 124.0559992 133.5634990  32.0399997
 124.4759992 133.1484990  32.7929997 123.1229992 133.3844990  32.1569997
 123.9873736 133.4824921  32.1588950 123.7179992 136.0554990  19.3249997
 123.4639992 136.0744990  20.2469997 123.4609992 135.1844990  19.0229997
 123.6484508 135.9403292  19.4104786 119.4839992 138.8064990  29.7599997
 118.8419992 138.7664990  30.4689997 119.5209992 139.7334990  29.5219997
 119.4011659 138.9262540  29.8248463 119.4809992 139.0274990  24.6719997
 118.5879992 138.6874990  24.6129997 119.9319992 138.6504990  23.9159997
 119.4197185 138.9300220  24.5617698 125.0169992 139.4434990  23.4889997
 124.6079992 140.2584990  23.1969997 125.7369992 139.3034990  22.8749997
 125.0584439 139.5360383  23.3660098 126.0209992 138.8894990  26.3029997
 125.8259992 139.4954990  25.5879997 126.2029992 138.0564990  25.8689997
 126.0189195 138.8597936  26.1464079 117.2339992 139.1274990  31.6269997
 117.1959992 139.5274990  32.4959997 116.7429992 138.3104990  31.7169997
 117.1624373 139.0718228  31.7580980 120.5999992 136.5014990  18.4259997
 120.1689992 136.0564990  19.1549997 119.8819992 136.8724990  17.9129997
 120.4439176 136.4907063  18.4564913 113.8419992 136.2434990  25.4779997
 114.4729992 136.2144990  26.1969997 114.2919992 135.8184990  24.7469997
 113.9891082 136.1821269  25.4776307 116.5489992  39.6094990  92.2959997
 116.1829992  38.8434990  92.7389997 117.4619992  39.6384990  92.5829997
 116.6223225  39.5086917  92.3953441 115.1159992 136.9894990  20.9019997
 115.5909992 137.5804990  20.3169997 114.3989992 137.5194990  21.2489997
 115.0840406 137.1421011  20.8688495 122.0629992 136.4554990  25.7579997
 121.1519992 136.5124990  26.0469997 122.5679992 136.3954990  26.5689997
 122.0066873 136.4551838  25.9071190 116.8909992 138.0844990  24.5849997
 116.0019992 138.1834990  24.2449997 117.1869992 137.2424990  24.2389997
 116.8094001 137.9842473  24.4917318 120.5439992 138.0844990  22.2419997
 121.4759992 138.2134990  22.4199997 120.3289992 138.7534990  21.5919997
 120.6424472 138.1925817  22.1784873 126.4679992 135.6904990  29.0219997
 125.7909992 135.8214990  29.6859997 125.9819992 135.5354990  28.2119997
 126.3097265 135.6874665  29.0033380 119.2179992 139.2784990  19.8079997
 118.6759992 138.8994990  19.1169997 120.0519992 139.4734990  19.3799997
 119.2564390 139.2529091  19.6554374 123.3829992 139.2424990  27.6449997
 123.9469992 138.6964990  27.0979997 123.2349992 138.7214990  28.4339997
 123.4403037 139.0971798  27.6767212 118.3849992 135.3794990  24.0639997
 118.0669992 134.4764990  24.0279997 119.1659992 135.3814990  23.5109997
 118.4471079 135.2562240  23.9842908 122.0089992 137.6314990  30.0589997
 121.1739992 138.0854990  30.1699997 122.5329992 137.9074990  30.8109997
 121.9656072 137.7308960  30.1758118 126.4509992 136.6584990  19.9429997
 125.5119992 136.7694990  19.7919997 126.7479992 137.5144990  20.2499997
 126.3626136 136.7894977  19.9638568 118.5219992  38.9594990  93.8319997
 119.4209992  38.6854990  93.6469997 118.1359992  38.2174990  94.2959997
 118.5927237  38.8216520  93.8694693 127.1689992 138.5254990  21.6039997
 128.0609992 138.3874990  21.9229997 127.2259992 139.3164990  21.0669997
 127.2987380 138.6134777  21.5750981 132.0539992 138.7344990  21.2989997
 131.4999992 138.3384990  20.6259997 132.1549992 139.6454990  21.0209997
 131.9918589 138.8033904  21.1693839 116.3199992 136.3534990  32.3869997
 115.4269992 136.6914990  32.3189997 116.2209992 135.4974990  32.8049997
 116.1844752 136.2840986  32.4341644 125.0539992 136.0944990  31.2769997
 125.7529992 136.1684990  31.9269997 124.6739992 135.2294990  31.4309997
 125.0982662 135.9877050  31.3867412 125.8389992 135.7464990  22.3739997
 126.0589992 136.2174990  21.5699997 126.3969992 136.1404990  23.0439997
 125.9446044 135.8642946  22.3545207 123.0389992 137.4744990  23.2089997
 123.8509992 137.9784990  23.2549997 122.7939992 137.3294990  24.1229997
 123.1171091 137.5239366  23.3388552 123.9229992 134.5554990  24.1469997
 123.5759992 135.1724990  24.7909997 124.5809992 135.0564990  23.6649997
 123.9644430 134.7076860  24.1700046 119.5799992 135.6184990  20.8339997
 119.4969992 136.5064990  21.1809997 120.4699992 135.3534990  21.0659997
 119.6889331 135.7041177  20.9128067 129.7789992 136.3674990  33.2279997
 128.8629992 136.6294990  33.1409997 130.1149992 136.3644990  32.3319997
 129.6988499 136.4030174  33.0948748 116.1549992 138.7104990  19.0099997
 116.1099992 139.6494990  19.1889997 115.2669992 138.4744990  18.7409997
 116.0288166 138.8071698  18.9981507 126.9429992  38.2924990  94.0139997
 127.0199992  37.8664990  94.8679997 127.8369992  38.3054990  93.6719997
 127.0743315  38.2360320  94.0845052 116.9629992 133.4914990  27.6829997
 116.7339992 133.5504990  26.7559997 116.5199992 132.7004990  27.9899997
 116.8717387 133.3926412  27.5975223 120.2079992 137.4194990  34.0049997
 120.3579992 136.6904990  33.4029997 120.2099992 138.1964990  33.4459997
 120.2287967 137.4247720  33.8470523 120.6199992 135.7884990  31.4979997
 121.1559992 136.2404990  30.8459997 119.7679992 135.6804990  31.0749997
 120.5781795 135.8357444  31.3516211 121.4259992 133.2454990  31.9289997
 121.3279992 134.1914990  31.8239997 120.6829992 132.8724990  31.4529997
 121.3122123 133.3246811  31.8503204 116.8669992 136.5374990  35.6209997
 117.0779992 135.8314990  35.0109997 116.7549992 136.1004990  36.4649997
 116.8807668 136.3816619  35.6515445 121.6479992 132.5394990  34.5999997
 122.3589992 131.8994990  34.5859997 121.5469992 132.8054990  33.6869997
 121.7316858 132.4878591  34.4745501 130.5099992 138.8314990  19.0149997
 130.6069992 139.4984990  18.3349997 130.3699992 138.0164990  18.5339997
 130.5043407 138.8125670  18.8568312 129.7579992 136.2394990  18.1329997
 130.3679992 135.8684990  18.7699997 128.9209992 135.8184990  18.3289997
 129.7283704 136.1317942  18.2467077 129.3899992 137.7944990  23.0989997
 129.6699992 136.8874990  23.2229997 130.1489992 138.2284990  22.7099997
 129.5309258 137.7290935  23.0633691 130.0019992 138.3764990  28.5349997
 130.9349992 138.5884990  28.4999997 129.7669992 138.4774990  29.4569997
 130.0979517 138.4191844  28.6549113 130.1199992  54.3644990  92.7069997
 129.3379992  54.1784990  92.1869997 130.0479992  55.2944990  92.9239997
 130.0032975  54.4646973  92.6651822 130.0309992 139.1134990  31.3109997
 129.1879992 139.3814990  31.6759997 130.4739992 139.9354990  31.0999997
 129.9754035 139.2613351  31.3324770 114.3119992 137.5604990  34.7869997
 115.2319992 137.4384990  35.0239997 113.8629992 136.8104990  35.1769997
 114.3770500 137.4424576  34.8721016 130.0039992 135.0574990  23.1469997
 130.1859992 134.6084990  23.9719997 129.4039992 134.4734990  22.6829997
 129.9478187 134.9170563  23.1972721 115.5339992 135.8734990  27.6789997
 115.9789992 135.0814990  27.9809997 115.9999992 136.5894990  28.1089997
 115.6579718 135.8619546  27.7785247 113.8379992 138.8724990  28.7479997
 114.3299992 138.6514990  27.9569997 114.1999992 139.7124990  29.0289997
 113.9542923 138.9558480  28.6777389 131.8699992 135.1254990  19.6749997
 132.2829992 134.4044990  19.1999997 132.5519992 135.7944990  19.7329997
 132.0186060 135.1173741  19.6179233 114.1509992 135.1304990  22.8019997
 113.2259992 135.3384990  22.6729997 114.6049992 135.6144990  22.1119997
 114.0856298 135.2244311  22.6910433 114.1149992 133.8684990  31.1459997
 113.4499992 133.6224990  31.7889997 113.6719992 134.4904990  30.5689997
 113.9641168 133.9189225  31.1559830 130.8349992 133.2924990  32.8319997
 130.0219992 133.6174990  32.4449997 131.0679992 132.5314990  32.2989997
 130.7551347 133.2341891  32.7069824 124.2649992 134.7414990  27.1549997
 123.5899992 134.1114990  27.4109997 124.8289992 134.2574990  26.5519997
 124.2489363 134.5898886  27.1084810 135.8269992  47.1204990  87.7489997
 135.8679992  46.4954990  88.4729997 136.5299992  47.7444990  87.9309997
 135.9276054  47.1193262  87.8726311 129.4069992 132.8484990  27.2679997
 130.0109992 133.3964990  26.7659997 128.5379992 133.1674990  27.0269997
 129.3720419 132.9665628  27.1667741 131.1339992 133.9874990  25.6009997
 131.7459992 133.4734990  25.0739997 131.5169992 134.8644990  25.6239997
 131.2693867 134.0357613  25.5320888 116.5909992 133.3754990  24.9769997
 115.8139992 133.1404990  24.4699997 117.1219992 132.5784990  24.9859997
 116.5563735 133.2356462  24.9088090 115.4279992 133.1734990  20.7809997
 115.8669992 133.7844990  20.1889997 114.7939992 133.7114990  21.2549997
 115.4023859 133.3299076  20.7640287 121.1709992 133.3014990  24.7899997
 122.0449992 133.6904990  24.7609997 121.0349992 133.0864990  25.7129997
 121.2721953 133.3256654  24.9107599 126.7269992 133.3314990  26.4399997
 126.8039992 133.4274990  25.4899997 126.4519992 132.4244990  26.5679997
 126.7003233 133.2219093  26.3273665 128.0809992 133.3574990  22.1319997
 127.3779992 133.9724990  21.9219997 127.6359992 132.5204990  22.2629997
 127.9246550 133.3284679  22.1209819 117.2889992 135.0894990  19.2229997
 117.7799992 134.4594990  18.6959997 117.9119992 135.3854990  19.8859997
 117.4405304 135.0432387  19.2404922 122.3149992 135.3824990  21.6799997
 122.4929992 134.7354990  22.3629997 122.2609992 136.2164990  22.1469997
 122.3320678 135.4066615  21.8366283 138.1439992 136.7144990  26.3609997
 138.1869992 137.5744990  25.9419997 137.6859992 136.1614990  25.7269997
 138.0880163 136.7574174  26.2180604 136.7509992  51.5704990  86.2839997
 136.3809992  50.7684990  85.9149997 137.6919992  51.4024990  86.3309997
 136.8275630  51.4378680  86.2397873 134.7639992 139.1114990  27.1229997
 135.4179992 138.5614990  27.5549997 134.7879992 138.8374990  26.2059997
 134.8567199 138.9992178  27.0581650 136.9539992 135.6324990  30.4349997
 136.7349992 136.1624990  29.6679997 136.2859992 135.8584990  31.0819997
 136.8336975 135.7355979  30.4175123 136.5479992 137.5244990  28.3869997
 137.1609992 138.1574990  28.7599997 137.0599992 137.0524990  27.7309997
 136.7011933 137.5473380  28.3493477 138.2489992 133.8414990  28.6649997
 137.3869992 133.7544990  28.2569997 138.2269992 134.6974990  29.0929997
 138.1280557 133.9453078  28.6670202 138.3399992 138.8064990  29.7599997
 137.6979992 138.7664990  30.4689997 138.3769992 139.7334990  29.5219997
 138.2571659 138.9262540  29.8248463 138.3369992 139.0274990  24.6719997
 137.4439992 138.6874990  24.6129997 138.7879992 138.6504990  23.9159997
 138.2757185 138.9300220  24.5617698 136.0899992 139.1274990  31.6269997
 136.0519992 139.5274990  32.4959997 135.5989992 138.3104990  31.7169997
 136.0184374 139.0718228  31.7580980 139.4559992 136.5014990  18.4259997
 139.0249992 136.0564990  19.1549997 138.7379992 136.8724990  17.9129997
 139.2999176 136.4907063  18.4564913 132.6979992 136.2434990  25.4779997
 133.3289992 136.2144990  26.1969997 133.1479992 135.8184990  24.7469997
 132.8451082 136.1821269  25.4776307 133.9719992 136.9894990  20.9019997
 134.4469992 137.5804990  20.3169997 133.2549992 137.5194990  21.2489997
 133.9400406 137.1421011  20.8688495 133.3609992  45.2304990  81.6769997
 132.9129992  46.0764990  81.6589997 132.7999992  44.6514990  81.1619997
 133.2238546  45.2679004  81.6048874 135.7469992 138.0844990  24.5849997
 134.8579992 138.1834990  24.2449997 136.0429992 137.2424990  24.2389997
 135.6654001 137.9842473  24.4917318 139.3999992 138.0844990  22.2419997
 140.3319992 138.2134990  22.4199997 139.1849992 138.7534990  21.5919997
 139.4984472 138.1925817  22.1784873 138.0739992 139.2784990  19.8079997
 137.5319992 138.8994990  19.1169997 138.9079992 139.4734990  19.3799997
 138.1124390 139.2529091  19.6554374 137.2409992 135.3794990  24.0639997
 136.9229992 134.4764990  24.0279997 138.0219992 135.3814990  23.5109997
 137.3031079 135.2562240  23.9842908 135.1759992 136.3534990  32.3869997
 134.2829992 136.6914990  32.3189997 135.0769992 135.4974990  32.8049997
 135.0404752 136.2840986  32.4341644 138.4359992 135.6184990  20.8339997
 138.3529992 136.5064990  21.1809997 139.3259992 135.3534990  21.0659997
 138.5449331 135.7041177  20.9128067 135.0109992 138.7104990  19.0099997
 134.9659992 139.6494990  19.1889997 134.1229992 138.4744990  18.7409997
 134.8848166 138.8071698  18.9981507 135.8189992 133.4914990  27.6829997
 135.5899992 133.5504990  26.7559997 135.3759992 132.7004990  27.9899997
 135.7277387 133.3926412  27.5975223 139.4759992 135.7884990  31.4979997
 140.0119992 136.2404990  30.8459997 138.6239992 135.6804990  31.0749997
 139.4341795 135.8357444  31.3516211 133.1679992 137.5604990  34.7869997
 134.0879992 137.4384990  35.0239997 132.7189992 136.8104990  35.1769997
 133.2330500 137.4424576  34.8721016 134.0709992  47.3924990  83.8029997
 134.2849992  46.6224990  84.3299997 134.8089992  47.4824990  83.1999997
 134.2000073  47.2993546  83.7935786 134.3899992 135.8734990  27.6789997
 134.8349992 135.0814990  27.9809997 134.8559992 136.5894990  28.1089997
 134.5139718 135.8619546  27.7785247 132.6939992 138.8724990  28.7479997
 133.1859992 138.6514990  27.9569997 133.0559992 139.7124990  29.0289997
 132.8102923 138.9558480  28.6777389 133.0069992 135.1304990  22.8019997
 132.0819992 135.3384990  22.6729997 133.4609992 135.6144990  22.1119997
 132.9416298 135.2244311  22.6910433 132.9709992 133.8684990  31.1459997
 132.3059992 133.6224990  31.7889997 132.5279992 134.4904990  30.5689997
 132.8201168 133.9189225  31.1559830 135.4469992 133.3754990  24.9769997
 134.6699992 133.1404990  24.4699997 135.9779992 132.5784990  24.9859997
 135.4123735 133.2356462  24.9088090 134.2839992 133.1734990  20.7809997
 134.7229992 133.7844990  20.1889997 133.6499992 133.7114990  21.2549997
 134.2583859 133.3299076  20.7640287 136.1449992 135.0894990  19.2229997
 136.6359992 134.4594990  18.6959997 136.7679992 135.3854990  19.8859997
 136.2965304 135.0432387  19.2404922 135.4049992 133.8894990  34.4949997
 135.0389992 133.1234990  34.9369997 136.3179992 133.9184990  34.7809997
 135.4783172 133.7885335  34.5941872 138.1439992  42.4344990  84.1619997
 138.1869992  43.2944990  83.7439997 137.6859992  41.8814990  83.5289997
 138.0879613  42.4775689  84.0191276 134.7639992  44.8314990  84.9239997
 135.4179992  44.2814990  85.3559997 134.7879992  44.5574990  84.0079997
 134.8567022  44.7192005  84.8591698 136.9539992  41.3524990  88.2359997
 136.7349992  41.8824990  87.4699997 136.2859992  41.5784990  88.8839997
 136.8337271  41.4556508  88.2186206 139.5229992  49.0274990  88.5239997
 138.7829992  49.6264990  88.6269997 140.2369992  49.5814990  88.2079997
 139.5183288  49.1842368  88.4953787 136.5479992  43.2444990  86.1889997
 137.1609992  43.8774990  86.5619997 137.0599992  42.7724990  85.5319997
 136.7011680  43.2674006  86.1512830 137.9299992  50.9924990  89.3109997
 137.9249992  51.8714990  88.9329997 137.0769992  50.9084990  89.7359997
 137.8139199  51.1015901  89.3166942 134.0519992  50.6634990  80.0929997
 133.7799992  50.8924990  79.2039997 134.0969992  51.5004990  80.5529997
 134.0208709  50.8081069  80.0336089 138.2979992  48.3354990  83.0239997
 137.9679992  47.9644990  82.2049997 138.8859992  47.6644990  83.3699997
 138.3324056  48.1941257  82.9589035 138.6649992  47.1034990  86.6569997
 139.2299992  47.2254990  85.8939997 138.9829992  47.7414990  87.2959997
 138.7853430  47.2064448  86.6389094 139.5449992  51.5034990  91.3739997
 139.2329992  52.2854990  91.8299997 138.8949992  51.3504990  90.6879997
 139.4144643  51.5898019  91.3436657 136.4649992  47.7014990  90.6029997
 136.5349992  48.3524990  91.3009997 135.5739992  47.8044990  90.2679997
 136.3541802  47.8044769  90.6532231 137.7839992  53.5744990  92.1379997
 137.7919992  53.4384990  91.1899997 136.8679992  53.4574990  92.3899997
 137.6612512  53.5400663  92.0423179 137.2879992  47.4044990  80.6129997
 136.9959992  48.1724990  80.1219997 136.6139992  46.7454990  80.4499997
 137.1568843  47.4204537  80.5237695 133.3809992  49.7674990  89.4279997
 132.8799992  49.7394990  88.6129997 133.3869992  48.8624990  89.7379997
 133.3131690  49.6412234  89.3582770 133.1319992  52.5484990  86.3119997
 134.0779992  52.4034990  86.2929997 133.0189992  53.3324990  86.8489997
 133.2463578  52.6346708  86.3820300 136.3759992  55.3494990  82.4569997
 136.5279992  55.0014990  83.3359997 135.5249992  54.9924990  82.2019997
 136.2817899  55.2536749  82.5427322 135.6299992  51.0914990  90.4709997
 135.8459992  50.7294990  91.3309997 134.7749992  50.7164990  90.2609997
 135.5439349  50.9912914  90.5602134 138.2489992  39.5614990  86.4669997
 137.3869992  39.4744990  86.0589997 138.2269992  40.4174990  86.8939997
 138.1280953  39.6653558  86.4689262 138.3399992  44.5264990  87.5619997
 137.6979992  44.4864990  88.2709997 138.3769992  45.4534990  87.3239997
 138.2571659  44.6462540  87.6268463 138.3369992  44.7474990  82.4739997
 137.4439992  44.4074990  82.4149997 138.7879992  44.3704990  81.7179997
 138.2757185  44.6500220  82.3637698 136.0899992  44.8474990  89.4289997
 136.0519992  45.2474990  90.2969997 135.5989992  44.0304990  89.5189997
 136.0184246  44.7918842  89.5601171 139.4559992  42.2214990  76.2269997
 139.0249992  41.7764990  76.9569997 138.7379992  42.5924990  75.7149997
 139.2999363  42.2107979  76.2576194 132.6979992  41.9634990  83.2789997
 133.3289992  41.9344990  83.9989997 133.1479992  41.5384990  82.5489997
 132.8450905  41.9020839  83.2787479 135.7469992  43.8044990  82.3869997
 134.8579992  43.9034990  82.0469997 136.0429992  42.9624990  82.0409997
 135.6654001  43.7042473  82.2937318 139.3999992  43.8044990  80.0429997
 140.3319992  43.9334990  80.2209997 139.1849992  44.4734990  79.3939997
 139.4984245  43.9126452  79.9795602 138.0739992  44.9984990  77.6099997
 137.5319992  44.6194990  76.9189997 138.9079992  45.1934990  77.1809997
 138.1124283  44.9729383  77.4574298 136.2089992  49.5554990  92.7089997
 136.9409992  49.8104990  93.2699997 135.4289992  49.7604990  93.2239997
 136.2037684  49.6181457  92.8554774 137.2409992  41.0994990  81.8649997
 136.9229992  40.1964990  81.8299997 138.0219992  41.1014990  81.3129997
 137.3031560  40.9761148  81.7854975 136.5339992  48.8594990  85.3149997
 137.2789992  48.8564990  84.7139997 136.6119992  48.0354990  85.7969997
 136.6464158  48.7477928  85.2979136 133.5419992  47.3194990  90.6299997
 133.7649992  46.9014990  91.4619997 132.9399992  46.7074990  90.2079997
 133.4910802  47.1795216  90.6867561 138.9089992  52.3774990  82.7199997
 139.4359992  53.1504990  82.5189997 138.0289992  52.6014990  82.4179997
 138.8621793  52.5136652  82.6516304 139.0189992  55.0614990  81.8409997
 138.0699992  55.1674990  81.8929997 139.3709992  55.8824990  82.1859997
 138.9366214  55.1869361  81.8947317 135.1759992  42.0734990  90.1879997
 134.2829992  42.4114990  90.1209997 135.0769992  41.2174990  90.6059997
 135.0405241  42.0040941  90.2352982 134.8269992  53.8774990  88.6229997
 135.0439992  52.9454990  88.5919997 135.0739992  54.1524990  89.5069997
 134.8900543  53.7870877  88.7381412 136.0789992  49.1514990  78.7989997
 135.3929992  49.5044990  79.3659997 136.6019992  49.9144990  78.5529997
 136.0559033  49.3028757  78.8432644 138.4359992  41.3384990  78.6359997
 138.3529992  42.2264990  78.9819997 139.3259992  41.0734990  78.8669997
 138.5449751  41.4242482  78.7146066 135.8189992  39.2114990  85.4849997
 135.5899992  39.2704990  84.5579997 135.3759992  38.4204990  85.7919997
 135.7277387  39.1126412  85.3995223 134.7489992  53.1524990  81.6459997
 133.9169992  53.6244990  81.6729997 135.2949992  53.6624990  81.0469997
 134.7088710  53.2860317  81.5687570 134.0379992  55.7644990  92.9759997
 134.5779992  55.5484990  93.7349997 133.5559992  54.9594990  92.7859997
 134.0469101  55.6260216  93.0544364 138.6349992  54.6844990  94.5959997
 139.4029992  54.2254990  94.9369997 138.6139992  54.4584990  93.6659997
 138.7372135  54.5911680  94.5169473 133.9449992  49.5754990  93.9299997
 134.0889992  48.6734990  93.6439997 133.1719992  49.8614990  93.4419997
 133.8602854  49.4906876  93.8249363 138.2859992  49.9184990  76.0619997
 138.3499992  49.1244990  76.5929997 138.9389992  49.8004990  75.3729997
 138.3831168  49.7937748  76.0415119 134.7769992  46.7754990  93.3499997
 135.1849992  45.9184990  93.2289997 134.5169992  46.7894990  94.2709997
 134.7977082  46.6600596  93.4579469 139.4349992  47.8914990  78.3679997
 138.9759992  47.4074990  79.0539997 139.6899992  47.2224990  77.7319997
 139.4066178  47.7348511  78.3759785 138.7239992  45.7844990  90.7239997
 138.1059992  46.4584990  91.0049997 139.0679992  46.1054990  89.8909997
 138.6858181  45.9203233  90.6498266 139.0639992  43.1394990  91.8069997
 139.2139992  42.4104990  91.2039997 139.0659992  43.9164990  91.2479997
 139.0847664  43.1448971  91.6490525 139.4759992  41.5084990  89.2989997
 140.0119992  41.9604990  88.6469997 138.6239992  41.4004990  88.8769997
 139.4341648  41.5557883  89.1526395 137.5419992  44.3374990  93.7179997
 136.7749992  43.8044990  93.5079997 138.2209992  44.0274990  93.1189997
 137.5288292  44.2226360  93.6082693 135.7229992  42.2574990  93.4229997
 135.9339992  41.5514990  92.8119997 135.6109992  41.8204990  94.2669997
 135.7367674  42.1016376  93.4534199 132.6209992  56.8544990  82.1919997
 131.9739992  56.3924990  81.6589997 132.9759992  56.1824990  82.7749997
 132.5803861  56.7004707  82.1977939 133.4909992  54.9344990  83.9969997
 133.1569992  54.0544990  84.1689997 133.7129992  55.2804990  84.8609997
 133.4752677  54.8607366  84.1374252 133.5709992  48.0104990  86.4479997
 133.7549992  47.9284990  85.5129997 134.4199992  47.8864990  86.8719997
 133.7110259  47.9824915  86.3771771 133.1679992  43.2804990  92.5889997
 134.0879992  43.1584990  92.8249997 132.7189992  42.5304990  92.9779997
 133.2331561  43.1623720  92.6739015 134.3899992  41.5934990  85.4799997
 134.8349992  40.8014990  85.7819997 134.8559992  42.3094990  85.9109997
 134.5139059  41.5819485  85.5796061 132.6939992  44.5924990  86.5489997
 133.1859992  44.3714990  85.7589997 133.0559992  45.4324990  86.8299997
 132.8103429  44.6758220  86.4787918 133.0069992  40.8504990  80.6039997
 132.0819992  41.0584990  80.4739997 133.4609992  41.3344990  79.9139997
 132.9417401  40.9443895  80.4929433 132.9709992  39.5884990  88.9479997
 132.3059992  39.3424990  89.5909997 132.5279992  40.2104990  88.3709997
 132.8201168  39.6389225  88.9579830 135.1629992  52.7634990  93.0919997
 134.3419992  52.9384990  92.6319997 134.9109992  52.6904990  94.0129997
 135.0166173  52.7775806  93.1534954 138.1169992  53.7374990  89.3509997
 137.6919992  54.5474990  89.0679997 139.0209992  53.8234990  89.0489997
 138.1811002  53.8598728  89.2714798 135.5189992  56.9944990  89.3979997
 134.7979992  57.4344990  88.9469997 135.1529992  56.7434990  90.2469997
 135.3709785  57.0207691  89.4509849 137.9859992  56.5944990  88.4279997
 137.1209992  56.6664990  88.8319997 137.9309992  57.1414990  87.6439997
 137.8602066  56.6782678  88.3773371 134.9339992  55.6174990  86.3089997
 134.9149992  55.1914990  87.1659997 135.7379992  55.2984990  85.8999997
 135.0401393  55.5160297  86.3710155 137.0749992  54.3274990  84.9639997
 136.8559992  53.4104990  85.1329997 137.8989992  54.4674990  85.4299997
 137.1564637  54.2209586  85.0501414 135.4469992  39.0954990  82.7789997
 134.6699992  38.8604990  82.2709997 135.9779992  38.2984990  82.7879997
 135.4124443  38.9556721  82.7107200 134.2839992  38.8934990  78.5819997
 134.7229992  39.5044990  77.9909997 133.6499992  39.4314990  79.0559997
 134.2584103  39.0499233  78.5651376 136.1449992  40.8094990  77.0249997
 136.6359992  40.1794990  76.4969997 136.7679992  41.1054990  77.6879997
 136.2965459  40.7632419  77.0423667 135.4049992  39.6094990  92.2959997
 135.0389992  38.8434990  92.7389997 136.3179992  39.6384990  92.5829997
 135.4783225  39.5086917  92.3953441 137.3779992  38.9594990  93.8319997
 138.2769992  38.6854990  93.6469997 136.9919992  38.2174990  94.2959997
 137.4487237  38.8216520  93.8694693  12.5339992  67.1074990  82.7369997
  12.6229992  68.0514990  82.6049997  11.8949992  66.8324990  82.0789997
  12.4598319  67.1994984  82.6300276  11.4669992  66.3624990  86.1559997
  11.4279992  65.7164990  86.8609997  11.1439992  65.8954990  85.3849997
  11.4180199  66.2110089  86.1482865   3.8349992  65.9764990  87.7489997
   3.8759992  65.3514990  88.4729997   4.5379992  66.6004990  87.9309997
   3.9356054  65.9753262  87.8726311  15.1729992  69.3014990  84.4579997
  14.7319992  68.5814990  84.9079997  15.1599992  70.0224990  85.0879997
  15.1108398  69.3003187  84.6047734   4.7589992  70.4264990  86.2839997
   4.3889992  69.6244990  85.9149997   5.6999992  70.2584990  86.3309997
   4.8355630  70.2938680  86.2397873   1.3689992  64.0864990  81.6769997
   0.9209992  64.9324990  81.6589997   0.8079992  63.5074990  81.1619997
   1.2318546  64.1239004  81.6048874   2.0789992  66.2484990  83.8029997
   2.2929992  65.4784990  84.3299997   2.8169992  66.3384990  83.1999997
   2.2080073  66.1553546  83.7935786  12.2839992  74.4054990  84.6699997
  12.9039992  73.7294990  84.3969997  12.0759992  74.1874990  85.5779997
  12.3407360  74.2834792  84.7554387   9.8559992  68.7944990  86.5619997
  10.1599992  68.1084990  85.9679997  10.5779992  68.9134990  87.1799997
   9.9951152  68.7167201  86.5642106  18.5189992  60.3964990  87.4229997
  18.5679992  61.0064990  88.1589997  18.9449992  60.8574990  86.6999997
  18.5832851  60.5423266  87.4260532  12.9969992  63.1884990  86.8899997
  13.1389992  62.2424990  86.9099997  12.8909992  63.3954990  85.9609997
  13.0021158  63.0869722  86.7672241   6.1519992  61.2904990  84.1619997
   6.1949992  62.1504990  83.7439997   5.6939992  60.7374990  83.5289997
   6.0959613  61.3335689  84.0191276  13.8739992  61.4214990  82.5629997
  14.5199992  61.0924990  83.1879997  14.3839992  61.9384990  81.9399997
  14.0314392  61.4463710  82.5643248   2.7719992  63.6874990  84.9239997
   3.4259992  63.1374990  85.3559997   2.7959992  63.4134990  84.0079997
   2.8647022  63.5752005  84.8591698   7.9279992  65.2374990  84.1399997
   8.5439992  64.7104990  84.6489997   7.3419992  64.5974990  83.7359997
   7.9330652  65.0788919  84.1550277  18.9109992  61.8744990  89.6589997
  18.2219992  62.5324990  89.5639997  18.9259992  61.6764990  90.5959997
  18.8187756  61.9377614  89.7725795   4.9619992  60.2084990  88.2359997
   4.7429992  60.7384990  87.4699997   4.2939992  60.4344990  88.8839997
   4.8417271  60.3116508  88.2186206  12.3309992  69.7084990  81.7799997
  12.0349992  69.3854990  80.9289997  12.0069992  70.6084990  81.8219997
  12.2466501  69.7859058  81.6690893   7.5309992  67.8834990  88.5239997
   6.7909992  68.4824990  88.6269997   8.2449992  68.4374990  88.2079997
   7.5263288  68.0402368  88.4953787  15.6379992  60.7124990  84.5439997
  15.4229992  59.9464990  85.0759997  16.2939992  61.1844990  85.0569997
  15.6972451  60.6714472  84.6861699   4.5559992  62.1004990  86.1889997
   5.1689992  62.7334990  86.5619997   5.0679992  61.6284990  85.5319997
   4.7091680  62.1234006  86.1512830   5.9379992  69.8484990  89.3109997
   5.9329992  70.7274990  88.9329997   5.0849992  69.7644990  89.7359997
   5.8219199  69.9575901  89.3166942   2.0599992  69.5194990  80.0929997
   1.7879992  69.7484990  79.2039997   2.1049992  70.3564990  80.5529997
   2.0288709  69.6641069  80.0336089  15.6849992  71.1404990  86.8059997
  14.7429992  71.1994990  86.9669997  15.9609992  72.0464990  86.6689997
  15.5935771  71.2710270  86.8094827  15.9849992  59.4274990  88.2229997
  15.2489992  60.0374990  88.1849997  16.6689992  59.8424990  87.6969997
  15.9765885  59.5671924  88.1466931   8.9879992  57.5134990  85.6889997
   8.8709992  56.5654990  85.6349997   8.1329992  57.8464990  85.9619997
   8.8563691  57.4285842  85.7185072  13.9369992  72.9214990  83.4309997
  14.3619992  72.2144990  82.9459997  14.2539992  73.7234990  83.0139997
  14.0380266  72.9330201  83.3082461  15.0959992  70.8224990  81.9399997
  14.8389992  70.1324990  81.3279997  15.1669992  70.3794990  82.7849997
  15.0704322  70.6681568  81.9705372  16.7819992  69.3894990  90.4169997
  16.9219992  68.7974990  89.6779997  16.9499992  70.2624990  90.0609997
  16.8238734  69.4264041  90.2676937  11.2549992  66.3514990  80.1889997
  10.5429992  66.8864990  79.8379997  11.9459992  66.4064990  79.5289997
  11.2508696  66.4322591  80.0516372  11.3089992  64.8084990  77.2279997
  12.0099992  64.8314990  77.8789997  11.6109992  64.1804990  76.5719997
  11.4458282  64.7267350  77.2284478  18.6239992  65.7294990  88.4829997
  17.9719992  66.4234990  88.5719997  19.0889992  65.9394990  87.6729997
  18.5975357  65.8529544  88.3857056  14.6609992  66.5604990  81.1409997
  13.9289992  66.7894990  81.7139997  15.1079992  65.8474990  81.5959997
  14.6212753  66.4953984  81.2809698  14.5579992  64.7354990  90.2089997
  14.6379992  65.4984990  90.7809997  13.9569992  65.0144990  89.5179997
  14.4877115  64.8777707  90.1939631   6.3059992  67.1914990  83.0239997
   5.9759992  66.8204990  82.2049997   6.8939992  66.5204990  83.3699997
   6.3404056  67.0501257  82.9589035   7.6729992  70.6194990  85.7049997
   7.5779992  70.0404990  84.9479997   8.4019992  70.2484990  86.2009997
   7.7586161  70.4900902  85.6685192   6.6729992  65.9594990  86.6569997
   7.2379992  66.0814990  85.8939997   6.9909992  66.5974990  87.2959997
   6.7933430  66.0624448  86.6389094  12.9819992  71.4634990  87.3909997
  12.7409992  72.1254990  88.0389997  12.7839992  70.6284990  87.8159997
  12.9222662  71.4412704  87.5371008   7.5529992  70.3594990  91.3739997
   7.2409992  71.1414990  91.8299997   6.9029992  70.2064990  90.6879997
   7.4224643  70.4458019  91.3436657  13.5319992  65.7234990  78.8259997
  14.1109992  65.8734990  79.5729997  13.9459992  66.1934990  78.1029997
  13.6673122  65.8076288  78.8305024   4.4729992  66.5574990  90.6029997
   4.5429992  67.2084990  91.3009997   3.5819992  66.6604990  90.2679997
   4.3621802  66.6604769  90.6532231  11.2579992  72.4594990  82.2619997
  11.7319992  72.7554990  83.0389997  10.6949992  73.1984990  82.0279997
  11.2468460  72.5998336  82.3367626   5.7919992  72.4304990  92.1379997
   5.7999992  72.2944990  91.1899997   4.8759992  72.3134990  92.3899997
   5.6692512  72.3960663  92.0423179   5.2959992  66.2604990  80.6129997
   5.0039992  67.0284990  80.1219997   4.6219992  65.6014990  80.4499997
   5.1648843  66.2764537  80.5237695  18.4199992  71.8394990  77.0159997
  18.4929992  72.7784990  77.1859997  19.3249992  71.5344990  76.9589997
  18.5524168  71.9268531  77.0315736   1.3889992  68.6234990  89.4279997
   0.8879992  68.5954990  88.6129997   1.3949992  67.7184990  89.7379997
   1.3211690  68.4972234  89.3582770   1.1399992  71.4044990  86.3119997
   2.0859992  71.2594990  86.2929997   1.0269992  72.1884990  86.8489997
   1.2543578  71.4906708  86.3820300  19.3369992  72.0704990  91.9939997
  19.2879992  71.1144990  91.9569997  18.5109992  72.3374990  92.3959997
  19.2185767  71.9758841  92.0433133  10.3159992  71.6444990  90.8699997
  10.4029992  72.4704990  91.3449997   9.4519992  71.3144990  91.1189997
  10.2111944  71.7129871  90.9686558  10.7299992  75.4164990  80.6759997
  10.6549992  75.2954990  79.7299997  10.7629992  76.3654990  80.7949997
  10.7241862  75.5282492  80.5624840   4.3839992  74.2054990  82.4569997
   4.5359992  73.8574990  83.3359997   3.5329992  73.8484990  82.2019997
   4.2897899  74.1096749  82.5427322  13.8319992  74.5704990  77.6789997
  14.2069992  73.8264990  77.2079997  13.8359992  74.3004990  78.5969997
  13.8838969  74.4320920  77.7386475  13.5009992  74.4964990  80.4279997
  12.5659992  74.5964990  80.6069997  13.7809992  73.7864990  81.0059997
  13.4109270  74.4142300  80.5305984  16.4889992  63.5634990  92.4739997
  16.0819992  64.0434990  91.7539997  16.5299992  62.6574990  92.1669997
  16.4387178  63.5068609  92.3337441   3.6379992  69.9474990  90.4709997
   3.8539992  69.5854990  91.3309997   2.7829992  69.5724990  90.2609997
   3.5519349  69.8472914  90.5602134   6.2569992  58.4174990  86.4669997
   5.3949992  58.3304990  86.0589997   6.2349992  59.2734990  86.8939997
   6.1360953  58.5213558  86.4689262  10.9199992  58.1394990  89.8409997
  11.3399992  57.7244990  90.5939997   9.9869992  57.9604990  89.9579997
  10.8513736  58.0584921  89.9598950  14.2459992  61.8944990  90.6949997
  13.7319992  61.7694990  91.4919997  14.0909992  62.8074990  90.4499997
  14.1546643  62.0007068  90.7710624   6.3479992  63.3824990  87.5619997
   5.7059992  63.3424990  88.2709997   6.3849992  64.3094990  87.3239997
   6.2651659  63.5022540  87.6268463   6.3449992  63.6034990  82.4739997
   5.4519992  63.2634990  82.4149997   6.7959992  63.2264990  81.7179997
   6.2837185  63.5060220  82.3637698  11.8809992  64.0194990  81.2909997
  11.4719992  64.8344990  80.9989997  12.6009992  63.8794990  80.6759997
  11.9223946  64.1119963  81.1679616  10.9829992  64.1954990  92.7789997
  10.4199992  63.4904990  93.0989997  11.8089992  64.0744990  93.2459997
  11.0176423  64.0825614  92.8860168  12.8849992  63.4654990  84.1049997
  12.6899992  64.0714990  83.3899997  13.0669992  62.6324990  83.6699997
  12.8829272  63.4357955  83.9484075   4.0979992  63.7034990  89.4289997
   4.0599992  64.1034990  90.2969997   3.6069992  62.8864990  89.5189997
   4.0264246  63.6478842  89.5601171   0.7059992  60.8194990  83.2789997
   1.3369992  60.7904990  83.9989997   1.1559992  60.3944990  82.5489997
   0.8530905  60.7580839  83.2787479   1.9799992  61.5654990  78.7029997
   2.4549992  62.1564990  78.1179997   1.2629992  62.0954990  79.0499997
   1.9480406  61.7181011  78.6698495  12.1489992  65.1034990  88.7759997
  12.4729992  64.4724990  88.1329997  11.7089992  64.5694990  89.4369997
  12.1338707  64.9448261  88.7773195   8.9269992  61.0314990  83.5599997
   8.0159992  61.0884990  83.8489997   9.4319992  60.9714990  84.3709997
   8.8706873  61.0311838  83.7091190   3.7549992  62.6604990  82.3869997
   2.8659992  62.7594990  82.0469997   4.0509992  61.8184990  82.0409997
   3.6734001  62.5602473  82.2937318   7.4079992  62.6604990  80.0429997
   8.3399992  62.7894990  80.2209997   7.1929992  63.3294990  79.3939997
   7.5064245  62.7686452  79.9795602  13.3319992  60.2664990  86.8239997
  12.6549992  60.3974990  87.4879997  12.8459992  60.1114990  86.0139997
  13.1737265  60.2634665  86.8053380  16.6189992  75.9374990  93.1009997
  16.8189992  76.3614990  92.2659997  17.2749992  76.2814990  93.7079997
  16.7349916  76.0419784  93.0687890   4.2169992  68.4114990  92.7089997
   4.9489992  68.6664990  93.2699997   3.4369992  68.6164990  93.2239997
   4.2117684  68.4741457  92.8554774  10.2469992  63.8184990  85.4469997
  10.8109992  63.2724990  84.8999997  10.0989992  63.2974990  86.2359997
  10.3043037  63.6731798  85.4787212   5.2489992  59.9554990  81.8649997
   4.9309992  59.0524990  81.8299997   6.0299992  59.9574990  81.3129997
   5.3111560  59.8321148  81.7854975   8.8729992  62.2074990  87.8609997
   8.0379992  62.6614990  87.9709997   9.3969992  62.4834990  88.6129997
   8.8295070  62.3069677  87.9777134   9.4169992  68.4204990  79.5459997
   8.6719992  67.9124990  79.2229997   9.2829992  68.4694990  80.4919997
   9.2968633  68.3575714  79.6297563  16.5669992  67.5534990  88.3319997
  17.2089992  68.0094990  87.7889997  15.7369992  67.6664990  87.8699997
  16.5427352  67.6313223  88.1950234  13.3149992  61.2344990  77.7449997
  12.3759992  61.3454990  77.5939997  13.6119992  62.0904990  78.0509997
  13.2266371  61.3655327  77.7657362  10.9369992  68.6044990  90.7829997
  10.5909992  68.2224990  91.5889997  10.7369992  69.5374990  90.8539997
  10.8625399  68.6783489  90.9030401  14.0329992  63.1014990  79.4059997
  14.9249992  62.9634990  79.7249997  14.0899992  63.8924990  78.8689997
  14.1627380  63.1894777  79.3770981   4.5419992  67.7154990  85.3149997
   5.2869992  67.7124990  84.7139997   4.6199992  66.8914990  85.7969997
   4.6544158  67.6037928  85.2979136  11.5429992  69.8784990  78.5709997
  11.2479992  70.7054990  78.9529997  10.8399992  69.2594990  78.7669997
  11.4075855  69.9079458  78.6497634   1.5499992  66.1754990  90.6299997
   1.7729992  65.7574990  91.4619997   0.9479992  65.5634990  90.2079997
   1.4990802  66.0355216  90.6867561   8.5669992  65.6924990  92.8429997
   8.2709992  65.5274990  91.9479997   9.4979992  65.4724990  92.8329997
   8.6523909  65.6401274  92.7190110  13.1869992  71.0664990  90.7329997
  12.2859992  71.2494990  90.4649997  13.2209992  71.3254990  91.6539997
  13.0683021  71.1265505  90.8208206  18.8809992  69.1114990  91.9369997
  18.0299992  69.3494990  91.5699997  19.4719992  69.0944990  91.1839997
  18.8442468  69.1418251  91.7848902  17.2129992  72.0964990  79.5649997
  16.8409992  71.2714990  79.8749997  17.4909992  71.9134990  78.6679997
  17.1995997  71.9586160  79.4861551  14.3739992  66.9044990  86.5869997
  13.4459992  66.6734990  86.5599997  14.8249992  66.1274990  86.2569997
  14.3078165  66.7677785  86.5386772   6.9169992  71.2334990  82.7199997
   7.4439992  72.0064990  82.5189997   6.0369992  71.4574990  82.4179997
   6.8701793  71.3696652  82.6516304   8.3439992  68.8964990  82.2959997
   8.1029992  69.8214990  82.3379997   7.6039992  68.4374990  82.6919997
   8.2108934  68.9610881  82.3553191   8.8589992  73.0454990  88.6109997
   9.2219992  73.8994990  88.3779997   9.3909992  72.7534990  89.3519997
   8.9805141  73.1228907  88.6792079   7.0269992  73.9174990  81.8409997
   6.0779992  74.0234990  81.8929997   7.3789992  74.7384990  82.1859997
   6.9446214  74.0429361  81.8947317  12.4029992  69.1444990  88.3119997
  11.9769992  68.9164990  89.1379997  12.9839992  68.4054990  88.1289997
  12.4231587  69.0134084  88.4004111  14.6059992  70.0734990  77.3859997
  14.9589992  69.6934990  78.1899997  13.6569992  69.9794990  77.4719997
  14.5260985  70.0087330  77.5077738  15.0619992  73.6964990  90.7809997
  14.4599992  73.1404990  90.2859997  15.3429992  74.3634990  90.1549997
  15.0175757  73.7105755  90.6285657   3.1839992  60.9294990  90.1879997
   2.2909992  61.2674990  90.1209997   3.0849992  60.0734990  90.6059997
   3.0485241  60.8600941  90.2352982  15.4719992  68.7454990  79.6119997
  15.1949992  68.0174990  80.1679997  16.3989992  68.8644990  79.8179997
  15.5594181  68.6620068  79.7158972   2.8349992  72.7334990  88.6229997
   3.0519992  71.8014990  88.5919997   3.0819992  73.0084990  89.5069997
   2.8980543  72.6430877  88.7381412  11.9179992  60.6704990  89.0779997
  12.6169992  60.7444990  89.7279997  11.5379992  59.8054990  89.2329997
  11.9622095  60.5637402  89.1877982  12.7029992  60.3224990  80.1749997
  12.9229992  60.7934990  79.3719997  13.2609992  60.7164990  80.8459997
  12.8085851  60.4403272  80.1556134  10.3719992  72.4524990  79.0379997
   9.5549992  72.9494990  79.0909997  10.9009992  72.9284990  78.3979997
  10.3317898  72.5848123  78.9587274   9.9029992  62.0504990  81.0099997
  10.7149992  62.5544990  81.0559997   9.6579992  61.9054990  81.9239997
   9.9811091  62.0999366  81.1398552  10.4389992  63.0364990  90.1949997
  10.5579992  63.6104990  90.9519997  11.0939992  62.3484990  90.3099997
  10.5438684  63.0220205  90.3141656  10.7869992  59.1314990  81.9479997
  10.4399992  59.7484990  82.5929997  11.4449992  59.6324990  81.4669997
  10.8285290  59.2836384  81.9711635   7.7099992  73.4964990  79.0199997
   7.8709992  74.2964990  78.5189997   7.5129992  73.8034990  79.9049997
   7.7053919  73.6474140  79.0710988   6.4439992  60.1944990  78.6359997
   6.3609992  61.0824990  78.9819997   7.3339992  59.9294990  78.8669997
   6.5529751  60.2802482  78.7146066  16.6429992  60.9434990  91.0299997
  15.7269992  61.2054990  90.9419997  16.9789992  60.9404990  90.1329997
  16.5629789  60.9789637  90.8967829  15.2449992  64.6934990  85.1259997
  14.4479992  64.2784990  84.7969997  15.6899992  64.0034990  85.6169997
  15.1960317  64.5433197  85.1473556  16.3319992  73.9494990  86.7479997
  16.1759992  74.6284990  86.0909997  17.2639992  74.0214990  86.9509997
  16.4367328  74.0521586  86.6855529   3.8269992  58.0674990  85.4849997
   3.5979992  58.1264990  84.5579997   3.3839992  57.2764990  85.7919997
   3.7357387  57.9686412  85.3995223   2.7569992  72.0084990  81.6459997
   1.9249992  72.4804990  81.6729997   3.3029992  72.5184990  81.0469997
   2.7168710  72.1420317  81.5687570   2.0459992  74.6204990  92.9759997
   2.5859992  74.4044990  93.7349997   1.5639992  73.8154990  92.7859997
   2.0549101  74.4820216  93.0544364   6.6429992  73.5404990  94.5959997
   7.4109992  73.0814990  94.9369997   6.6219992  73.3144990  93.6659997
   6.7452135  73.4471680  94.5169473  13.2199992  71.9204990  93.3249997
  12.8689992  71.0634990  93.5679997  13.9459992  72.0624990  93.9319997
  13.2701590  71.8225189  93.4402889  15.3389992  72.8654990  76.2049997
  15.6219992  72.0704990  76.6579997  16.0789992  73.0984990  75.6439997
  15.4777295  72.7882349  76.1911469   1.9529992  68.4314990  93.9299997
   2.0969992  67.5294990  93.6439997   1.1799992  68.7174990  93.4419997
   1.8682854  68.3466876  93.8249363   8.6079992  68.4004990  93.3629997
   8.2799992  68.6714990  92.5049997   8.7599992  67.4594990  93.2749997
   8.5836970  68.3103694  93.2337953  14.3429992  68.3164990  90.7459997
  15.0879992  68.9054990  90.6259997  13.5849992  68.8984990  90.8089997
  14.3425185  68.4757000  90.7380940   2.7849992  65.6314990  93.3499997
   3.1929992  64.7744990  93.2289997   2.5249992  65.6454990  94.2709997
   2.8057082  65.5160596  93.4579469   7.4429992  66.7474990  78.3679997
   6.9839992  66.2634990  79.0539997   7.6979992  66.0784990  77.7319997
   7.4146178  66.5908511  78.3759785   6.7319992  64.6404990  90.7239997
   6.1139992  65.3144990  91.0049997   7.0759992  64.9614990  89.8909997
   6.6938181  64.7763233  90.6498266  11.7519992  67.1114990  94.0019997
  12.7049992  67.1954990  93.9739997  11.5919992  66.3994990  94.6209997
  11.8608161  67.0267198  94.0818689   7.0719992  61.9954990  91.8069997
   7.2219992  61.2664990  91.2039997   7.0739992  62.7724990  91.2479997
   7.0927664  62.0008971  91.6490525   7.4839992  60.3644990  89.2989997
   8.0199992  60.8164990  88.6469997   6.6319992  60.2564990  88.8769997
   7.4421648  60.4117883  89.1526395   9.0659992  65.8044990  89.5389997
   9.8169992  65.6484990  88.9659997   8.7269992  66.6564990  89.2629997
   9.1229052  65.8982745  89.4233469  13.4819992  63.6194990  94.5669997
  13.6739992  62.6884990  94.4559997  14.3389992  64.0444990  94.5569997
  13.6242320  63.5494743  94.5504433  14.7979992  66.4084990  92.6449997
  14.5169992  67.1174990  92.0669997  15.7409992  66.3354990  92.4939997
  14.8869272  66.4956704  92.5454976   5.5499992  63.1934990  93.7179997
   4.7829992  62.6604990  93.5079997   6.2289992  62.8834990  93.1189997
   5.5368292  63.0786360  93.6082693   8.2899992  57.8214990  89.7309997
   8.1919992  58.7674990  89.6249997   7.5469992  57.4484990  89.2549997
   8.1762363  57.9005987  89.6522029   9.5539992  62.1424990  93.2939997
   9.3179992  61.9234990  94.1959997   8.7709992  61.9354990  92.7849997
   9.4158444  62.0845688  93.3484518  12.2699992  61.2704990  92.3699997
  11.3219992  61.3024990  92.5019997  12.5819992  60.6444990  93.0239997
  12.1825293  61.1902934  92.4764130  13.9039992  59.9044990  94.3749997
  13.8069992  58.9524990  94.3689997  13.5819992  60.1724990  95.2359997
  13.8472229  59.8104706  94.4905108   3.7309992  61.1134990  93.4229997
   3.9419992  60.4074990  92.8119997   3.6189992  60.6764990  94.2669997
   3.7447674  60.9576376  93.4534199   8.5119992  57.1154990  92.4019997
   9.2229992  56.4754990  92.3879997   8.4109992  57.3814990  91.4879997
   8.5956732  57.0638451  92.2765475   8.8649992  58.7974990  94.4559997
   8.7339992  58.3224990  93.6349997   8.2659992  59.5424990  94.3999997
   8.7661524  58.8331968  94.3361553   8.4119992  75.6804990  77.6319997
   9.3449992  75.8384990  77.7759997   8.1469992  76.3564990  77.0069997
   8.5039846  75.7934567  77.5672930   1.9799992  70.3174990  77.1149997
   2.8939992  70.3964990  77.3879997   1.9869992  69.6304990  76.4479997
   2.1060769  70.2354734  77.0622366   0.6289992  75.7104990  82.1919997
  -0.0180008  75.2484990  81.6589997   0.9839992  75.0384990  82.7749997
   0.5883861  75.5564707  82.1977939   1.4989992  73.7904990  83.9969997
   1.1649992  72.9104990  84.1689997   1.7209992  74.1364990  84.8609997
   1.4832677  73.7167366  84.1374252  19.0479992  74.6004990  86.9769997
  19.0259992  74.7854990  87.9159997  19.7379992  75.1684990  86.6359997
  19.1383439  74.7026898  87.0594774  18.6109992  74.1674990  89.8989997
  18.1239992  73.4314990  89.5279997  19.1599992  73.7734990  90.5769997
  18.6186101  74.0136267  89.9399034  17.0619992  69.9574990  94.5369997
  16.1959992  69.8524990  94.9309997  17.4379992  70.7154990  94.9839997
  16.9943768  70.0456151  94.6513258  18.7569992  66.2674990  81.8749997
  18.0309992  65.7874990  82.2729997  19.3379992  66.4724990  82.6069997
  18.7362504  66.2295592  82.0284199  18.5159992  69.0524990  86.8229997
  19.3499992  68.6744990  86.5419997  18.6279992  69.9954990  86.7039997
  18.6451917  69.1282954  86.7684844  17.0019992  71.9304990  89.1299997
  16.3549992  72.2554990  89.7549997  16.4849992  71.4894990  88.4549997
  16.8434068  71.9154726  89.1244918  16.5439992  64.7884990  82.4379997
  16.3939992  63.8434990  82.4179997  16.1899992  65.0694990  83.2819997
  16.4756351  64.6971656  82.5493202   1.5789992  66.8664990  86.4479997
   1.7629992  66.7844990  85.5129997   2.4279992  66.7424990  86.8719997
   1.7190259  66.8384915  86.3771771  17.3999992  66.7584990  92.0769997
  17.9829992  66.0234990  92.2679997  17.9639992  67.5304990  92.1229997
  17.5560326  66.7622746  92.1093579  18.8969992  64.6614990  92.7609997
  18.0329992  64.2824990  92.5959997  19.5009992  63.9224990  92.6869997
  18.8604912  64.5097937  92.7284360  16.2539992  62.3704990  80.8999997
  16.5339992  61.4634990  81.0249997  17.0129992  62.8044990  80.5109997
  16.3949471  62.3050654  80.8645052  16.8659992  62.9524990  86.3359997
  17.7989992  63.1644990  86.3019997  16.6309992  63.0534990  87.2589997
  16.9618357  62.9951303  86.4560232  16.8949992  63.6894990  89.1119997
  16.0519992  63.9574990  89.4779997  17.3379992  64.5114990  88.9009997
  16.8394358  63.8373294  89.1335999   1.1759992  62.1364990  92.5889997
   2.0959992  62.0144990  92.8249997   0.7269992  61.3864990  92.9779997
   1.2411561  62.0183720  92.6739015  19.1779992  57.6694990  94.4659997
  19.5279992  57.0154990  93.8599997  19.3249992  58.5064990  94.0259997
  19.2457192  57.6932545  94.3236712  16.8679992  59.6334990  80.9489997
  17.0499992  59.1844990  81.7739997  16.2679992  59.0494990  80.4849997
  16.8118187  59.4930563  80.9992721   2.3979992  60.4494990  85.4799997
   2.8429992  59.6574990  85.7819997   2.8639992  61.1654990  85.9109997
   2.5219059  60.4379485  85.5796061   0.7019992  63.4484990  86.5489997
   1.1939992  63.2274990  85.7589997   1.0639992  64.2884990  86.8299997
   0.8183428  63.5318220  86.4787918  18.6979992  59.7784990  92.8149997
  17.7809992  60.0494990  92.7789997  18.8209992  59.2434990  92.0309997
  18.5890828  59.7432711  92.7040767   1.0149992  59.7064990  80.6039997
   0.0899992  59.9144990  80.4739997   1.4689992  60.1904990  79.9139997
   0.9497401  59.8003895  80.4929433  15.7859992  74.6904990  82.5489997
  16.4379992  74.3424990  81.9409997  16.2969992  75.1784990  83.1949997
  15.9442872  74.7088248  82.5530964   0.9789992  58.4444990  88.9479997
   0.3139992  58.1984990  89.5909997   0.5359992  59.0664990  88.3709997
   0.8281168  58.4949225  88.9579830   3.1709992  71.6194990  93.0919997
   2.3499992  71.7944990  92.6319997   2.9189992  71.5464990  94.0129997
   3.0246173  71.6335806  93.1534954   6.1249992  72.5934990  89.3509997
   5.6999992  73.4034990  89.0679997   7.0289992  72.6794990  89.0489997
   6.1891002  72.7158728  89.2714798  10.4359992  73.9924990  92.3099997
  10.6209992  73.6594990  93.1879997  11.2829992  74.3024990  91.9879997
  10.5757291  73.9888214  92.3866140  12.7809992  75.2784990  91.5539997
  13.4579992  74.6454990  91.3139997  13.1029992  75.6794990  92.3619997
  12.9171280  75.2460638  91.6303190  17.6989992  57.8684990  90.6339997
  16.8859992  58.1934990  90.2459997  17.9319992  57.1074990  90.1009997
  17.6192566  57.8101570  90.5089196   3.5269992  75.8504990  89.3979997
   2.8059992  76.2904990  88.9469997   3.1609992  75.5994990  90.2469997
   3.3789785  75.8767691  89.4509849   5.9939992  75.4504990  88.4279997
   5.1289992  75.5224990  88.8319997   5.9389992  75.9974990  87.6439997
   5.8682066  75.5342678  88.3773371  10.7049992  75.3384990  87.6039997
  10.2479992  75.8674990  86.9499997  10.8669992  75.9414990  88.3289997
  10.6643919  75.4923990  87.6125740  13.0319992  74.2164990  88.5489997
  12.1279992  74.3814990  88.2829997  13.4609992  75.0694990  88.4829997
  12.9662017  74.3544184  88.5036495  15.6359992  75.7864990  88.8439997
  15.4549992  76.7024990  88.6329997  15.8129992  75.3754990  87.9969997
  15.6351377  75.8563365  88.7007178   2.9419992  74.4734990  86.3089997
   2.9229992  74.0474990  87.1659997   3.7459992  74.1544990  85.8999997
   3.0481393  74.3720297  86.3710155   5.0829992  73.1834990  84.9639997
   4.8639992  72.2664990  85.1329997   5.9069992  73.3234990  85.4299997
   5.1644637  73.0769586  85.0501414   7.6199992  73.6534990  85.8119997
   7.8329992  72.7654990  85.5249997   7.6849992  73.6184990  86.7669997
   7.6579075  73.5273318  85.9017355  11.1289992  59.3174990  84.9569997
  10.4539992  58.6874990  85.2119997  11.6929992  58.8334990  84.3539997
  11.1129558  59.1659283  84.9103451  16.2709992  57.4244990  85.0689997
  16.8749992  57.9724990  84.5679997  15.4019992  57.7434990  84.8289997
  16.2361126  57.5427070  84.9679180  17.9979992  58.5634990  83.4029997
  18.6099992  58.0494990  82.8759997  18.3809992  59.4404990  83.4259997
  18.1333867  58.6117613  83.3340888   3.4549992  57.9514990  82.7789997
   2.6779992  57.7164990  82.2709997   3.9859992  57.1544990  82.7879997
   3.4204443  57.8116721  82.7107200   8.0349992  57.8774990  82.5919997
   8.9089992  58.2664990  82.5619997   7.8989992  57.6624990  83.5149997
   8.1363125  57.9017120  82.7126523  13.5909992  57.9074990  84.2409997
  13.6679992  58.0034990  83.2919997  13.3159992  57.0004990  84.3699997
  13.5643407  57.7979188  84.1283532  14.9449992  57.9334990  79.9339997
  14.2419992  58.5484990  79.7239997  14.4999992  57.0964990  80.0649997
  14.7886550  57.9044679  79.9229819   2.1929992  73.6974990  79.4799997
   1.5079992  73.6594990  78.8119997   2.1959992  74.6094990  79.7679997
   2.0997358  73.8156744  79.4276145   9.1789992  59.9584990  79.4819997
   9.3569992  59.3114990  80.1649997   9.1249992  60.7924990  79.9489997
   9.1960678  59.9826615  79.6386283  11.0569992  74.9064990  77.8769997
  11.9229992  75.2734990  77.6989997  10.8099992  74.4674990  77.0639997
  11.1422041  74.8973648  77.7425958  17.7659992  74.4694990  80.5569997
  17.5719992  73.7214990  79.9919997  17.7269992  75.2274990  79.9729997
  17.7341907  74.4695770  80.4008077   3.4129992  58.4654990  92.2959997
   3.0469992  57.6994990  92.7389997   4.3259992  58.4944990  92.5829997
   3.4863225  58.3646917  92.3953441   5.3859992  57.8154990  93.8319997
   6.2849992  57.5414990  93.6469997   4.9999992  57.0734990  94.2959997
   5.4567237  57.6776520  93.8694693  13.8069992  57.1484990  94.0139997
  13.8839992  56.7224990  94.8679997  14.7009992  57.1614990  93.6719997
  13.9383315  57.0920320  94.0845052  16.9839992  73.2204990  92.7069997
  16.2019992  73.0344990  92.1869997  16.9119992  74.1504990  92.9239997
  16.8672975  73.3206973  92.6651822  31.3899992  67.1074990  82.7369997
  31.4789992  68.0514990  82.6049997  30.7509992  66.8324990  82.0789997
  31.3158319  67.1994984  82.6300276  30.3229992  66.3624990  86.1559997
  30.2839992  65.7164990  86.8609997  29.9999992  65.8954990  85.3849997
  30.2740199  66.2110089  86.1482865  22.6909992  65.9764990  87.7489997
  22.7319992  65.3514990  88.4729997  23.3939992  66.6004990  87.9309997
  22.7916054  65.9753262  87.8726311  34.0289992  69.3014990  84.4579997
  33.5879992  68.5814990  84.9079997  34.0159992  70.0224990  85.0879997
  33.9668398  69.3003187  84.6047734  23.6149992  70.4264990  86.2839997
  23.2449992  69.6244990  85.9149997  24.5559992  70.2584990  86.3309997
  23.6915630  70.2938680  86.2397873  20.2249992  64.0864990  81.6769997
  19.7769992  64.9324990  81.6589997  19.6639992  63.5074990  81.1619997
  20.0878546  64.1239004  81.6048874  20.9349992  66.2484990  83.8029997
  21.1489992  65.4784990  84.3299997  21.6729992  66.3384990  83.1999997
  21.0640073  66.1553546  83.7935786  31.1399992  74.4054990  84.6699997
  31.7599992  73.7294990  84.3969997  30.9319992  74.1874990  85.5779997
  31.1967360  74.2834792  84.7554387  28.7119992  68.7944990  86.5619997
  29.0159992  68.1084990  85.9679997  29.4339992  68.9134990  87.1799997
  28.8511152  68.7167201  86.5642106  37.3749992  60.3964990  87.4229997
  37.4239992  61.0064990  88.1589997  37.8009992  60.8574990  86.6999997
  37.4392851  60.5423266  87.4260532  31.8529992  63.1884990  86.8899997
  31.9949992  62.2424990  86.9099997  31.7469992  63.3954990  85.9609997
  31.8581158  63.0869722  86.7672241  25.0079992  61.2904990  84.1619997
  25.0509992  62.1504990  83.7439997  24.5499992  60.7374990  83.5289997
  24.9519613  61.3335689  84.0191276  32.7299992  61.4214990  82.5629997
  33.3759992  61.0924990  83.1879997  33.2399992  61.9384990  81.9399997
  32.8874392  61.4463710  82.5643248  21.6279992  63.6874990  84.9239997
  22.2819992  63.1374990  85.3559997  21.6519992  63.4134990  84.0079997
  21.7207022  63.5752005  84.8591698  26.7839992  65.2374990  84.1399997
  27.3999992  64.7104990  84.6489997  26.1979992  64.5974990  83.7359997
  26.7890652  65.0788919  84.1550277  37.7669992  61.8744990  89.6589997
  37.0779992  62.5324990  89.5639997  37.7819992  61.6764990  90.5959997
  37.6747756  61.9377614  89.7725795  23.8179992  60.2084990  88.2359997
  23.5989992  60.7384990  87.4699997  23.1499992  60.4344990  88.8839997
  23.6977271  60.3116508  88.2186206  31.1869992  69.7084990  81.7799997
  30.8909992  69.3854990  80.9289997  30.8629992  70.6084990  81.8219997
  31.1026501  69.7859058  81.6690893  26.3869992  67.8834990  88.5239997
  25.6469992  68.4824990  88.6269997  27.1009992  68.4374990  88.2079997
  26.3823288  68.0402368  88.4953787  34.4939992  60.7124990  84.5439997
  34.2789992  59.9464990  85.0759997  35.1499992  61.1844990  85.0569997
  34.5532451  60.6714472  84.6861699  23.4119992  62.1004990  86.1889997
  24.0249992  62.7334990  86.5619997  23.9239992  61.6284990  85.5319997
  23.5651680  62.1234006  86.1512830  24.7939992  69.8484990  89.3109997
  24.7889992  70.7274990  88.9329997  23.9409992  69.7644990  89.7359997
  24.6779199  69.9575901  89.3166942  20.9159992  69.5194990  80.0929997
  20.6439992  69.7484990  79.2039997  20.9609992  70.3564990  80.5529997
  20.8848709  69.6641069  80.0336089  34.5409992  71.1404990  86.8059997
  33.5989992  71.1994990  86.9669997  34.8169992  72.0464990  86.6689997
  34.4495771  71.2710270  86.8094827  34.8409992  59.4274990  88.2229997
  34.1049992  60.0374990  88.1849997  35.5249992  59.8424990  87.6969997
  34.8325885  59.5671924  88.1466931  27.8439992  57.5134990  85.6889997
  27.7269992  56.5654990  85.6349997  26.9889992  57.8464990  85.9619997
  27.7123691  57.4285842  85.7185072  32.7929992  72.9214990  83.4309997
  33.2179992  72.2144990  82.9459997  33.1099992  73.7234990  83.0139997
  32.8940266  72.9330201  83.3082461  33.9519992  70.8224990  81.9399997
  33.6949992  70.1324990  81.3279997  34.0229992  70.3794990  82.7849997
  33.9264322  70.6681568  81.9705372  35.6379992  69.3894990  90.4169997
  35.7779992  68.7974990  89.6779997  35.8059992  70.2624990  90.0609997
  35.6798734  69.4264041  90.2676937  30.1109992  66.3514990  80.1889997
  29.3989992  66.8864990  79.8379997  30.8019992  66.4064990  79.5289997
  30.1068696  66.4322591  80.0516372  37.4799992  65.7294990  88.4829997
  36.8279992  66.4234990  88.5719997  37.9449992  65.9394990  87.6729997
  37.4535357  65.8529544  88.3857056  33.5169992  66.5604990  81.1409997
  32.7849992  66.7894990  81.7139997  33.9639992  65.8474990  81.5959997
  33.4772753  66.4953984  81.2809698  33.4139992  64.7354990  90.2089997
  33.4939992  65.4984990  90.7809997  32.8129992  65.0144990  89.5179997
  33.3437115  64.8777707  90.1939631  25.1619992  67.1914990  83.0239997
  24.8319992  66.8204990  82.2049997  25.7499992  66.5204990  83.3699997
  25.1964056  67.0501257  82.9589035  26.5289992  70.6194990  85.7049997
  26.4339992  70.0404990  84.9479997  27.2579992  70.2484990  86.2009997
  26.6146161  70.4900902  85.6685192  25.5289992  65.9594990  86.6569997
  26.0939992  66.0814990  85.8939997  25.8469992  66.5974990  87.2959997
  25.6493430  66.0624448  86.6389094  31.8379992  71.4634990  87.3909997
  31.5969992  72.1254990  88.0389997  31.6399992  70.6284990  87.8159997
  31.7782662  71.4412704  87.5371008  26.4089992  70.3594990  91.3739997
  26.0969992  71.1414990  91.8299997  25.7589992  70.2064990  90.6879997
  26.2784643  70.4458019  91.3436657  23.3289992  66.5574990  90.6029997
  23.3989992  67.2084990  91.3009997  22.4379992  66.6604990  90.2679997
  23.2181802  66.6604769  90.6532231  30.1139992  72.4594990  82.2619997
  30.5879992  72.7554990  83.0389997  29.5509992  73.1984990  82.0279997
  30.1028460  72.5998336  82.3367626  24.6479992  72.4304990  92.1379997
  24.6559992  72.2944990  91.1899997  23.7319992  72.3134990  92.3899997
  24.5252512  72.3960663  92.0423179  36.0859992  57.4734990  78.6389997
  35.1859992  57.6114990  78.9339997  36.3379992  58.3044990  78.2369997
  35.9967355  57.6048200  78.6250539  24.1519992  66.2604990  80.6129997
  23.8599992  67.0284990  80.1219997  23.4779992  65.6014990  80.4499997
  24.0208843  66.2764537  80.5237695  37.2759992  71.8394990  77.0159997
  37.3489992  72.7784990  77.1859997  38.1809992  71.5344990  76.9589997
  37.4084168  71.9268531  77.0315736  20.2449992  68.6234990  89.4279997
  19.7439992  68.5954990  88.6129997  20.2509992  67.7184990  89.7379997
  20.1771690  68.4972234  89.3582770  19.9959992  71.4044990  86.3119997
  20.9419992  71.2594990  86.2929997  19.8829992  72.1884990  86.8489997
  20.1103578  71.4906708  86.3820300  38.1929992  72.0704990  91.9939997
  38.1439992  71.1144990  91.9569997  37.3669992  72.3374990  92.3959997
  38.0745767  71.9758841  92.0433133  29.1719992  71.6444990  90.8699997
  29.2589992  72.4704990  91.3449997  28.3079992  71.3144990  91.1189997
  29.0671944  71.7129871  90.9686558  29.5859992  75.4164990  80.6759997
  29.5109992  75.2954990  79.7299997  29.6189992  76.3654990  80.7949997
  29.5801862  75.5282492  80.5624840  23.2399992  74.2054990  82.4569997
  23.3919992  73.8574990  83.3359997  22.3889992  73.8484990  82.2019997
  23.1457899  74.1096749  82.5427322  32.3569992  74.4964990  80.4279997
  31.4219992  74.5964990  80.6069997  32.6369992  73.7864990  81.0059997
  32.2669270  74.4142300  80.5305984  35.3449992  63.5634990  92.4739997
  34.9379992  64.0434990  91.7539997  35.3859992  62.6574990  92.1669997
  35.2947178  63.5068609  92.3337441  22.4939992  69.9474990  90.4709997
  22.7099992  69.5854990  91.3309997  21.6389992  69.5724990  90.2609997
  22.4079349  69.8472914  90.5602134  25.1129992  58.4174990  86.4669997
  24.2509992  58.3304990  86.0589997  25.0909992  59.2734990  86.8939997
  24.9920953  58.5213558  86.4689262  29.7759992  58.1394990  89.8409997
  30.1959992  57.7244990  90.5939997  28.8429992  57.9604990  89.9579997
  29.7073736  58.0584921  89.9598950  33.1019992  61.8944990  90.6949997
  32.5879992  61.7694990  91.4919997  32.9469992  62.8074990  90.4499997
  33.0106643  62.0007068  90.7710624  29.4379992  60.6314990  77.1259997
  29.1839992  60.6504990  78.0489997  29.1809992  59.7604990  76.8249997
  29.3685133  60.5163121  77.2115065  25.2039992  63.3824990  87.5619997
  24.5619992  63.3424990  88.2709997  25.2409992  64.3094990  87.3239997
  25.1211659  63.5022540  87.6268463  25.2009992  63.6034990  82.4739997
  24.3079992  63.2634990  82.4149997  25.6519992  63.2264990  81.7179997
  25.1397185  63.5060220  82.3637698  30.7369992  64.0194990  81.2909997
  30.3279992  64.8344990  80.9989997  31.4569992  63.8794990  80.6759997
  30.7783946  64.1119963  81.1679616  29.8389992  64.1954990  92.7789997
  29.2759992  63.4904990  93.0989997  30.6649992  64.0744990  93.2459997
  29.8736423  64.0825614  92.8860168  31.7409992  63.4654990  84.1049997
  31.5459992  64.0714990  83.3899997  31.9229992  62.6324990  83.6699997
  31.7389272  63.4357955  83.9484075  22.9539992  63.7034990  89.4289997
  22.9159992  64.1034990  90.2969997  22.4629992  62.8864990  89.5189997
  22.8824246  63.6478842  89.5601171  19.5619992  60.8194990  83.2789997
  20.1929992  60.7904990  83.9989997  20.0119992  60.3944990  82.5489997
  19.7090905  60.7580839  83.2787479  20.8359992  61.5654990  78.7029997
  21.3109992  62.1564990  78.1179997  20.1189992  62.0954990  79.0499997
  20.8040406  61.7181011  78.6698495  31.0049992  65.1034990  88.7759997
  31.3289992  64.4724990  88.1329997  30.5649992  64.5694990  89.4369997
  30.9898707  64.9448261  88.7773195  27.7829992  61.0314990  83.5599997
  26.8719992  61.0884990  83.8489997  28.2879992  60.9714990  84.3709997
  27.7266873  61.0311838  83.7091190  22.6109992  62.6604990  82.3869997
  21.7219992  62.7594990  82.0469997  22.9069992  61.8184990  82.0409997
  22.5294001  62.5602473  82.2937318  26.2639992  62.6604990  80.0429997
  27.1959992  62.7894990  80.2209997  26.0489992  63.3294990  79.3939997
  26.3624245  62.7686452  79.9795602  32.1879992  60.2664990  86.8239997
  31.5109992  60.3974990  87.4879997  31.7019992  60.1114990  86.0139997
  32.0297265  60.2634665  86.8053380  35.4749992  75.9374990  93.1009997
  35.6749992  76.3614990  92.2659997  36.1309992  76.2814990  93.7079997
  35.5909916  76.0419784  93.0687890  23.0729992  68.4114990  92.7089997
  23.8049992  68.6664990  93.2699997  22.2929992  68.6164990  93.2239997
  23.0677684  68.4741457  92.8554774  29.1029992  63.8184990  85.4469997
  29.6669992  63.2724990  84.8999997  28.9549992  63.2974990  86.2359997
  29.1603037  63.6731798  85.4787212  24.1049992  59.9554990  81.8649997
  23.7869992  59.0524990  81.8299997  24.8859992  59.9574990  81.3129997
  24.1671560  59.8321148  81.7854975  27.7289992  62.2074990  87.8609997
  26.8939992  62.6614990  87.9709997  28.2529992  62.4834990  88.6129997
  27.6855070  62.3069677  87.9777134  28.2729992  68.4204990  79.5459997
  27.5279992  67.9124990  79.2229997  28.1389992  68.4694990  80.4919997
  28.1528633  68.3575714  79.6297563  35.4229992  67.5534990  88.3319997
  36.0649992  68.0094990  87.7889997  34.5929992  67.6664990  87.8699997
  35.3987352  67.6313223  88.1950234  29.7929992  68.6044990  90.7829997
  29.4469992  68.2224990  91.5889997  29.5929992  69.5374990  90.8539997
  29.7185399  68.6783489  90.9030401  23.3979992  67.7154990  85.3149997
  24.1429992  67.7124990  84.7139997  23.4759992  66.8914990  85.7969997
  23.5104159  67.6037928  85.2979136  30.3989992  69.8784990  78.5709997
  30.1039992  70.7054990  78.9529997  29.6959992  69.2594990  78.7669997
  30.2635855  69.9079458  78.6497633  20.4059992  66.1754990  90.6299997
  20.6289992  65.7574990  91.4619997  19.8039992  65.5634990  90.2079997
  20.3550802  66.0355216  90.6867561  27.4229992  65.6924990  92.8429997
  27.1269992  65.5274990  91.9479997  28.3539992  65.4724990  92.8329997
  27.5083909  65.6401274  92.7190110  32.0429992  71.0664990  90.7329997
  31.1419992  71.2494990  90.4649997  32.0769992  71.3254990  91.6539997
  31.9243021  71.1265505  90.8208206  37.7739992  63.3104990  79.0999997
  37.2199992  62.9144990  78.4279997  37.8749992  64.2214990  78.8229997
  37.7117084  63.3793565  78.9704381  37.7369992  69.1114990  91.9369997
  36.8859992  69.3494990  91.5699997  38.3279992  69.0944990  91.1839997
  37.7002468  69.1418251  91.7848902  36.0689992  72.0964990  79.5649997
  35.6969992  71.2714990  79.8749997  36.3469992  71.9134990  78.6679997
  36.0555997  71.9586160  79.4861551  33.2299992  66.9044990  86.5869997
  32.3019992  66.6734990  86.5599997  33.6809992  66.1274990  86.2569997
  33.1638165  66.7677785  86.5386772  25.7729992  71.2334990  82.7199997
  26.2999992  72.0064990  82.5189997  24.8929992  71.4574990  82.4179997
  25.7261793  71.3696652  82.6516304  27.1999992  68.8964990  82.2959997
  26.9589992  69.8214990  82.3379997  26.4599992  68.4374990  82.6919997
  27.0668934  68.9610881  82.3553191  27.7149992  73.0454990  88.6109997
  28.0779992  73.8994990  88.3779997  28.2469992  72.7534990  89.3519997
  27.8365141  73.1228907  88.6792079  25.8829992  73.9174990  81.8409997
  24.9339992  74.0234990  81.8929997  26.2349992  74.7384990  82.1859997
  25.8006214  74.0429361  81.8947317  31.2589992  69.1444990  88.3119997
  30.8329992  68.9164990  89.1379997  31.8399992  68.4054990  88.1289997
  31.2791587  69.0134084  88.4004111  33.9179992  73.6964990  90.7809997
  33.3159992  73.1404990  90.2859997  34.1989992  74.3634990  90.1549997
  33.8735757  73.7105755  90.6285657  22.0399992  60.9294990  90.1879997
  21.1469992  61.2674990  90.1209997  21.9409992  60.0734990  90.6059997
  21.9045241  60.8600941  90.2352982  34.3279992  68.7454990  79.6119997
  34.0509992  68.0174990  80.1679997  35.2549992  68.8644990  79.8179997
  34.4154181  68.6620068  79.7158972  21.6909992  72.7334990  88.6229997
  21.9079992  71.8014990  88.5919997  21.9379992  73.0084990  89.5069997
  21.7540543  72.6430877  88.7381412  22.9429992  68.0074990  78.7989997
  22.2569992  68.3604990  79.3659997  23.4659992  68.7704990  78.5529997
  22.9199033  68.1588757  78.8432644  30.7739992  60.6704990  89.0779997
  31.4729992  60.7444990  89.7279997  30.3939992  59.8054990  89.2329997
  30.8182095  60.5637402  89.1877982  31.5589992  60.3224990  80.1749997
  31.7789992  60.7934990  79.3719997  32.1169992  60.7164990  80.8459997
  31.6645851  60.4403272  80.1556134  29.2279992  72.4524990  79.0379997
  28.4109992  72.9494990  79.0909997  29.7569992  72.9284990  78.3979997
  29.1877898  72.5848123  78.9587274  28.7589992  62.0504990  81.0099997
  29.5709992  62.5544990  81.0559997  28.5139992  61.9054990  81.9239997
  28.8371091  62.0999366  81.1398552  29.2949992  63.0364990  90.1949997
  29.4139992  63.6104990  90.9519997  29.9499992  62.3484990  90.3099997
  29.3998684  63.0220205  90.3141656  29.6429992  59.1314990  81.9479997
  29.2959992  59.7484990  82.5929997  30.3009992  59.6324990  81.4669997
  29.6845290  59.2836384  81.9711635  25.2999992  60.1944990  78.6359997
  25.2169992  61.0824990  78.9819997  26.1899992  59.9294990  78.8669997
  25.4089751  60.2802482  78.7146066  35.4989992  60.9434990  91.0299997
  34.5829992  61.2054990  90.9419997  35.8349992  60.9404990  90.1329997
  35.4189789  60.9789637  90.8967829  34.1009992  64.6934990  85.1259997
  33.3039992  64.2784990  84.7969997  34.5459992  64.0034990  85.6169997
  34.0520317  64.5433197  85.1473556  23.5589992  70.6214990  77.6959997
  24.1509992  71.3214990  77.9719997  24.0179992  70.1884990  76.9769997
  23.7021172  70.6587371  77.6365163  35.1879992  73.9494990  86.7479997
  35.0319992  74.6284990  86.0909997  36.1199992  74.0214990  86.9509997
  35.2927328  74.0521586  86.6855529  22.6829992  58.0674990  85.4849997
  22.4539992  58.1264990  84.5579997  22.2399992  57.2764990  85.7919997
  22.5917387  57.9686413  85.3995223  21.6129992  72.0084990  81.6459997
  20.7809992  72.4804990  81.6729997  22.1589992  72.5184990  81.0469997
  21.5728710  72.1420317  81.5687570  20.9019992  74.6204990  92.9759997
  21.4419992  74.4044990  93.7349997  20.4199992  73.8154990  92.7859997
  20.9109101  74.4820216  93.0544364  25.4989992  73.5404990  94.5959997
  26.2669992  73.0814990  94.9369997  25.4779992  73.3144990  93.6659997
  25.6012135  73.4471680  94.5169473  32.0759992  71.9204990  93.3249997
  31.7249992  71.0634990  93.5679997  32.8019992  72.0624990  93.9319997
  32.1261590  71.8225189  93.4402889  34.1949992  72.8654990  76.2049997
  34.4779992  72.0704990  76.6579997  34.9349992  73.0984990  75.6439997
  34.3337295  72.7882349  76.1911469  20.8089992  68.4314990  93.9299997
  20.9529992  67.5294990  93.6439997  20.0359992  68.7174990  93.4419997
  20.7242854  68.3466876  93.8249363  27.4639992  68.4004990  93.3629997
  27.1359992  68.6714990  92.5049997  27.6159992  67.4594990  93.2749997
  27.4396970  68.3103694  93.2337953  33.1989992  68.3164990  90.7459997
  33.9439992  68.9054990  90.6259997  32.4409992  68.8984990  90.8089997
  33.1985185  68.4757000  90.7380940  21.6409992  65.6314990  93.3499997
  22.0489992  64.7744990  93.2289997  21.3809992  65.6454990  94.2709997
  21.6617082  65.5160596  93.4579469  26.2989992  66.7474990  78.3679997
  25.8399992  66.2634990  79.0539997  26.5539992  66.0784990  77.7319997
  26.2706178  66.5908511  78.3759785  25.5879992  64.6404990  90.7239997
  24.9699992  65.3144990  91.0049997  25.9319992  64.9614990  89.8909997
  25.5498181  64.7763233  90.6498266  30.6079992  67.1114990  94.0019997
  31.5609992  67.1954990  93.9739997  30.4479992  66.3994990  94.6209997
  30.7168161  67.0267198  94.0818689  36.7599992  67.3444990  76.0759997
  36.4869992  66.9204990  75.2629997  36.7999992  68.2764990  75.8589997
  36.7280201  67.4123523  75.9353548  25.9279992  61.9954990  91.8069997
  26.0779992  61.2664990  91.2039997  25.9299992  62.7724990  91.2479997
  25.9487664  62.0008971  91.6490525  26.3399992  60.3644990  89.2989997
  26.8759992  60.8164990  88.6469997  25.4879992  60.2564990  88.8769997
  26.2981648  60.4117883  89.1526395  27.9219992  65.8044990  89.5389997
  28.6729992  65.6484990  88.9659997  27.5829992  66.6564990  89.2629997
  27.9789052  65.8982745  89.4233469  32.3379992  63.6194990  94.5669997
  32.5299992  62.6884990  94.4559997  33.1949992  64.0444990  94.5569997
  32.4802320  63.5494743  94.5504433  33.6539992  66.4084990  92.6449997
  33.3729992  67.1174990  92.0669997  34.5969992  66.3354990  92.4939997
  33.7429272  66.4956704  92.5454976  24.4059992  63.1934990  93.7179997
  23.6389992  62.6604990  93.5079997  25.0849992  62.8834990  93.1189997
  24.3928292  63.0786360  93.6082693  27.1459992  57.8214990  89.7309997
  27.0479992  58.7674990  89.6249997  26.4029992  57.4484990  89.2549997
  27.0322363  57.9005987  89.6522029  28.4099992  62.1424990  93.2939997
  28.1739992  61.9234990  94.1959997  27.6269992  61.9354990  92.7849997
  28.2718444  62.0845688  93.3484518  31.1259992  61.2704990  92.3699997
  30.1779992  61.3024990  92.5019997  31.4379992  60.6444990  93.0239997
  31.0385293  61.1902934  92.4764130  32.7599992  59.9044990  94.3749997
  32.6629992  58.9524990  94.3689997  32.4379992  60.1724990  95.2359997
  32.7032229  59.8104706  94.4905108  22.5869992  61.1134990  93.4229997
  22.7979992  60.4074990  92.8119997  22.4749992  60.6764990  94.2669997
  22.6007674  60.9576376  93.4534199  27.3679992  57.1154990  92.4019997
  28.0789992  56.4754990  92.3879997  27.2669992  57.3814990  91.4879997
  27.4516732  57.0638451  92.2765475  27.7209992  58.7974990  94.4559997
  27.5899992  58.3224990  93.6349997  27.1219992  59.5424990  94.3999997
  27.6221524  58.8331968  94.3361553  27.2679992  75.6804990  77.6319997
  28.2009992  75.8384990  77.7759997  27.0029992  76.3564990  77.0069997
  27.3599846  75.7934567  77.5672930  20.8359992  70.3174990  77.1149997
  21.7499992  70.3964990  77.3879997  20.8429992  69.6304990  76.4479997
  20.9620769  70.2354734  77.0622366  19.4849992  75.7104990  82.1919997
  18.8379992  75.2484990  81.6589997  19.8399992  75.0384990  82.7749997
  19.4443861  75.5564707  82.1977939  20.3549992  73.7904990  83.9969997
  20.0209992  72.9104990  84.1689997  20.5769992  74.1364990  84.8609997
  20.3392677  73.7167366  84.1374252  37.9039992  74.6004990  86.9769997
  37.8819992  74.7854990  87.9159997  38.5939992  75.1684990  86.6359997
  37.9943439  74.7026898  87.0594774  37.4669992  74.1674990  89.8989997
  36.9799992  73.4314990  89.5279997  38.0159992  73.7734990  90.5769997
  37.4746101  74.0136267  89.9399034  35.9179992  69.9574990  94.5369997
  35.0519992  69.8524990  94.9309997  36.2939992  70.7154990  94.9839997
  35.8503768  70.0456151  94.6513258  37.2189992  68.2134990  80.0509997
  38.0689992  68.6344990  80.1789997  37.2239992  67.4734990  80.6589997
  37.3359745  68.1711347  80.1506479  37.6129992  66.2674990  81.8749997
  36.8869992  65.7874990  82.2729997  38.1939992  66.4724990  82.6069997
  37.5922504  66.2295592  82.0284199  37.3719992  69.0524990  86.8229997
  38.2059992  68.6744990  86.5419997  37.4839992  69.9954990  86.7039997
  37.5011917  69.1282954  86.7684844  35.8579992  71.9304990  89.1299997
  35.2109992  72.2554990  89.7549997  35.3409992  71.4894990  88.4549997
  35.6994068  71.9154726  89.1244918  37.8809992  66.1684990  78.2659997
  37.3599992  66.5244990  77.5469997  37.8479992  66.8434990  78.9439997
  37.8051525  66.3085273  78.2591408  35.3999992  64.7884990  82.4379997
  35.2499992  63.8434990  82.4179997  35.0459992  65.0694990  83.2819997
  35.3316351  64.6971656  82.5493202  20.4349992  66.8664990  86.4479997
  20.6189992  66.7844990  85.5129997  21.2839992  66.7424990  86.8719997
  20.5750259  66.8384915  86.3771771  36.2559992  66.7584990  92.0769997
  36.8389992  66.0234990  92.2679997  36.8199992  67.5304990  92.1229997
  36.4120326  66.7622746  92.1093579  37.7529992  64.6614990  92.7609997
  36.8889992  64.2824990  92.5959997  38.3569992  63.9224990  92.6869997
  37.7164912  64.5097937  92.7284360  35.1099992  62.3704990  80.8999997
  35.3899992  61.4634990  81.0249997  35.8689992  62.8044990  80.5109997
  35.2509471  62.3050654  80.8645052  35.7219992  62.9524990  86.3359997
  36.6549992  63.1644990  86.3019997  35.4869992  63.0534990  87.2589997
  35.8178357  62.9951303  86.4560232  35.7509992  63.6894990  89.1119997
  34.9079992  63.9574990  89.4779997  36.1939992  64.5114990  88.9009997
  35.6954358  63.8373294  89.1335999  20.0319992  62.1364990  92.5889997
  20.9519992  62.0144990  92.8249997  19.5829992  61.3864990  92.9779997
  20.0971561  62.0183720  92.6739015  38.0339992  57.6694990  94.4659997
  38.3839992  57.0154990  93.8599997  38.1809992  58.5064990  94.0259997
  38.1017192  57.6932545  94.3236712  35.7239992  59.6334990  80.9489997
  35.9059992  59.1844990  81.7739997  35.1239992  59.0494990  80.4849997
  35.6678187  59.4930563  80.9992721  21.2539992  60.4494990  85.4799997
  21.6989992  59.6574990  85.7819997  21.7199992  61.1654990  85.9109997
  21.3779059  60.4379485  85.5796061  19.5579992  63.4484990  86.5489997
  20.0499992  63.2274990  85.7589997  19.9199992  64.2884990  86.8299997
  19.6743429  63.5318220  86.4787918  37.5539992  59.7784990  92.8149997
  36.6369992  60.0494990  92.7789997  37.6769992  59.2434990  92.0309997
  37.4450828  59.7432711  92.7040767  37.5899992  59.7014990  77.4769997
  38.0029992  58.9804990  77.0009997  38.2719992  60.3704990  77.5349997
  37.7385712  59.6934304  77.4198247  19.8709992  59.7064990  80.6039997
  18.9459992  59.9144990  80.4739997  20.3249992  60.1904990  79.9139997
  19.8057401  59.8003895  80.4929433  34.6419992  74.6904990  82.5489997
  35.2939992  74.3424990  81.9409997  35.1529992  75.1784990  83.1949997
  34.8002872  74.7088248  82.5530964  19.8349992  58.4444990  88.9479997
  19.1699992  58.1984990  89.5909997  19.3919992  59.0664990  88.3709997
  19.6841168  58.4949225  88.9579830  22.0269992  71.6194990  93.0919997
  21.2059992  71.7944990  92.6319997  21.7749992  71.5464990  94.0129997
  21.8806173  71.6335806  93.1534954  24.9809992  72.5934990  89.3509997
  24.5559992  73.4034990  89.0679997  25.8849992  72.6794990  89.0489997
  25.0451002  72.7158728  89.2714798  29.2919992  73.9924990  92.3099997
  29.4769992  73.6594990  93.1879997  30.1389992  74.3024990  91.9879997
  29.4317291  73.9888214  92.3866140  31.6369992  75.2784990  91.5539997
  32.3139992  74.6454990  91.3139997  31.9589992  75.6794990  92.3619997
  31.7731280  75.2460638  91.6303190  36.5549992  57.8684990  90.6339997
  35.7419992  58.1934990  90.2459997  36.7879992  57.1074990  90.1009997
  36.4752566  57.8101570  90.5089196  22.3829992  75.8504990  89.3979997
  21.6619992  76.2904990  88.9469997  22.0169992  75.5994990  90.2469997
  22.2349785  75.8767691  89.4509849  24.8499992  75.4504990  88.4279997
  23.9849992  75.5224990  88.8319997  24.7949992  75.9974990  87.6439997
  24.7242066  75.5342678  88.3773371  29.5609992  75.3384990  87.6039997
  29.1039992  75.8674990  86.9499997  29.7229992  75.9414990  88.3289997
  29.5203919  75.4923990  87.6125740  31.8879992  74.2164990  88.5489997
  30.9839992  74.3814990  88.2829997  32.3169992  75.0694990  88.4829997
  31.8222017  74.3544184  88.5036495  34.4919992  75.7864990  88.8439997
  34.3109992  76.7024990  88.6329997  34.6689992  75.3754990  87.9969997
  34.4911377  75.8563365  88.7007178  21.7979992  74.4734990  86.3089997
  21.7789992  74.0474990  87.1659997  22.6019992  74.1544990  85.8999997
  21.9041393  74.3720297  86.3710155  23.9389992  73.1834990  84.9639997
  23.7199992  72.2664990  85.1329997  24.7629992  73.3234990  85.4299997
  24.0204637  73.0769586  85.0501414  26.4759992  73.6534990  85.8119997
  26.6889992  72.7654990  85.5249997  26.5409992  73.6184990  86.7669997
  26.5139075  73.5273318  85.9017355  29.9849992  59.3174990  84.9569997
  29.3099992  58.6874990  85.2119997  30.5489992  58.8334990  84.3539997
  29.9689558  59.1659283  84.9103451  35.1269992  57.4244990  85.0689997
  35.7309992  57.9724990  84.5679997  34.2579992  57.7434990  84.8289997
  35.0921126  57.5427070  84.9679180  36.8539992  58.5634990  83.4029997
  37.4659992  58.0494990  82.8759997  37.2369992  59.4404990  83.4259997
  36.9893867  58.6117613  83.3340888  22.3109992  57.9514990  82.7789997
  21.5339992  57.7164990  82.2709997  22.8419992  57.1544990  82.7879997
  22.2764443  57.8116721  82.7107200  21.1479992  57.7494990  78.5819997
  21.5869992  58.3604990  77.9909997  20.5139992  58.2874990  79.0559997
  21.1224103  57.9059233  78.5651376  26.8909992  57.8774990  82.5919997
  27.7649992  58.2664990  82.5619997  26.7549992  57.6624990  83.5149997
  26.9923125  57.9017120  82.7126523  32.4469992  57.9074990  84.2409997
  32.5239992  58.0034990  83.2919997  32.1719992  57.0004990  84.3699997
  32.4203407  57.7979188  84.1283532  33.8009992  57.9334990  79.9339997
  33.0979992  58.5484990  79.7239997  33.3559992  57.0964990  80.0649997
  33.6446550  57.9044679  79.9229819  21.0489992  73.6974990  79.4799997
  20.3639992  73.6594990  78.8119997  21.0519992  74.6094990  79.7679997
  20.9557358  73.8156744  79.4276145  28.0349992  59.9584990  79.4819997
  28.2129992  59.3114990  80.1649997  27.9809992  60.7924990  79.9489997
  28.0520678  59.9826615  79.6386283  36.6219992  74.4694990  80.5569997
  36.4279992  73.7214990  79.9919997  36.5829992  75.2274990  79.9729997
  36.5901907  74.4695770  80.4008077  22.2689992  58.4654990  92.2959997
  21.9029992  57.6994990  92.7389997  23.1819992  58.4944990  92.5829997
  22.3423225  58.3646917  92.3953441  24.2419992  57.8154990  93.8319997
  25.1409992  57.5414990  93.6469997  23.8559992  57.0734990  94.2959997
  24.3127237  57.6776520  93.8694693  22.8669992  74.6174990  76.5049997
  22.5989992  74.9034990  77.3779997  23.6379992  74.0714990  76.6569997
  22.9345600  74.5828341  76.6451482  32.6629992  57.1484990  94.0139997
  32.7399992  56.7224990  94.8679997  33.5569992  57.1614990  93.6719997
  32.7943315  57.0920320  94.0845052  35.8399992  73.2204990  92.7069997
  35.0579992  73.0344990  92.1869997  35.7679992  74.1504990  92.9239997
  35.7232975  73.3206973  92.6651822  49.0234201  66.3333088  86.2551167
  49.1399992  65.7164990  86.8609997  48.8559992  65.8954990  85.3849997
  49.0198586  66.1750293  86.2366068  41.5469992  65.9764990  87.7489997
  41.5879992  65.3514990  88.4729997  42.2499992  66.6004990  87.9309997
  41.6476054  65.9753262  87.8726311  42.4709992  70.4264990  86.2839997
  42.1009992  69.6244990  85.9149997  43.4119992  70.2584990  86.3309997
  42.5475630  70.2938680  86.2397873  39.0809992  64.0864990  81.6769997
  38.6329992  64.9324990  81.6589997  38.5199992  63.5074990  81.1619997
  38.9438546  64.1239004  81.6048874  39.7909992  66.2484990  83.8029997
  40.0049992  65.4784990  84.3299997  40.5289992  66.3384990  83.1999997
  39.9200073  66.1553546  83.7935786  49.9959992  74.4054990  84.6699997
  49.9791372  75.2587085  84.7436090  49.7879992  74.1874990  85.5779997
  49.9681942  74.5050057  84.7913792  47.5679992  68.7944990  86.5619997
  47.8719992  68.1084990  85.9679997  48.2899992  68.9134990  87.1799997
  47.7071152  68.7167201  86.5642106  56.2309992  60.3964990  87.4229997
  56.2799992  61.0064990  88.1589997  56.6569992  60.8574990  86.6999997
  56.2952851  60.5423266  87.4260532  50.7089992  63.1884990  86.8899997
  50.8509992  62.2424990  86.9099997  50.6029992  63.3954990  85.9609997
  50.7141158  63.0869722  86.7672241  43.8639992  61.2904990  84.1619997
  43.9069992  62.1504990  83.7439997  43.4059992  60.7374990  83.5289997
  43.8079613  61.3335689  84.0191276  51.5859992  61.4214990  82.5629997
  52.1255190  62.1071066  82.5629997  52.1255192  60.7358913  82.5629997
  51.7453972  61.4214990  82.5629997  40.4839992  63.6874990  84.9239997
  41.1379992  63.1374990  85.3559997  40.5079992  63.4134990  84.0079997
  40.5767022  63.5752005  84.8591698  45.6399992  65.2374990  84.1399997
  46.2559992  64.7104990  84.6489997  45.0539992  64.5974990  83.7359997
  45.6450652  65.0788919  84.1550277  56.6229992  61.8744990  89.6589997
  55.9339992  62.5324990  89.5639997  56.6379992  61.6764990  90.5959997
  56.5307756  61.9377614  89.7725795  42.6739992  60.2084990  88.2359997
  42.4549992  60.7384990  87.4699997  42.0059992  60.4344990  88.8839997
  42.5537271  60.3116508  88.2186206  45.2429992  67.8834990  88.5239997
  44.5029992  68.4824990  88.6269997  45.9569992  68.4374990  88.2079997
  45.2383288  68.0402368  88.4953787  53.3499992  60.7124990  84.5439997
  53.1349992  59.9464990  85.0759997  54.0059992  61.1844990  85.0569997
  53.4092451  60.6714472  84.6861699  42.2679992  62.1004990  86.1889997
  42.8809992  62.7334990  86.5619997  42.7799992  61.6284990  85.5319997
  42.4211680  62.1234006  86.1512830  43.6499992  69.8484990  89.3109997
  43.6449992  70.7274990  88.9329997  42.7969992  69.7644990  89.7359997
  43.5339199  69.9575901  89.3166942  39.7719992  69.5194990  80.0929997
  39.4999992  69.7484990  79.2039997  39.8169992  70.3564990  80.5529997
  39.7408709  69.6641069  80.0336089  53.6969992  59.4274990  88.2229997
  52.9609992  60.0374990  88.1849997  54.3809992  59.8424990  87.6969997
  53.6885885  59.5671924  88.1466931  46.6999992  57.5134990  85.6889997
  46.5829992  56.5654990  85.6349997  45.8449992  57.8464990  85.9619997
  46.5683691  57.4285842  85.7185072  54.4939992  69.3894990  90.4169997
  54.6339992  68.7974990  89.6779997  54.6619992  70.2624990  90.0609997
  54.5358734  69.4264041  90.2676937  49.0209992  64.8084990  77.2279997
  49.2156500  65.5274709  76.8051820  49.3229992  64.1804990  76.5719997
  49.0864777  64.8383399  77.0857682  56.3359992  65.7294990  88.4829997
  55.6839992  66.4234990  88.5719997  57.0283052  66.2250049  88.3884978
  56.3588614  65.8872180  88.4798789  52.2699992  64.7354990  90.2089997
  52.3499992  65.4984990  90.7809997  51.6689992  65.0144990  89.5179997
  52.1997115  64.8777707  90.1939631  44.0179992  67.1914990  83.0239997
  43.6879992  66.8204990  82.2049997  44.6059992  66.5204990  83.3699997
  44.0524056  67.0501257  82.9589035  45.3849992  70.6194990  85.7049997
  45.2899992  70.0404990  84.9479997  46.1139992  70.2484990  86.2009997
  45.4706161  70.4900902  85.6685192  44.3849992  65.9594990  86.6569997
  44.9499992  66.0814990  85.8939997  44.7029992  66.5974990  87.2959997
  44.5053430  66.0624448  86.6389094  50.6939992  71.4634990  87.3909997
  50.4529992  72.1254990  88.0389997  50.4959992  70.6284990  87.8159997
  50.6342662  71.4412704  87.5371008  45.2649992  70.3594990  91.3739997
  44.9529992  71.1414990  91.8299997  44.6149992  70.2064990  90.6879997
  45.1344643  70.4458019  91.3436657  42.1849992  66.5574990  90.6029997
  42.2549992  67.2084990  91.3009997  41.2939992  66.6604990  90.2679997
  42.0741802  66.6604769  90.6532231  49.0926070  73.7380188  82.0279997
  49.7782145  73.1984990  82.0279997  48.4069992  73.1984990  82.0279997
  49.0926070  73.5786209  82.0279997  43.5039992  72.4304990  92.1379997
  43.5119992  72.2944990  91.1899997  42.5879992  72.3134990  92.3899997
  43.3812512  72.3960663  92.0423179  43.0079992  66.2604990  80.6129997
  42.7159992  67.0284990  80.1219997  42.3339992  65.6014990  80.4499997
  42.8768843  66.2764537  80.5237695  39.1009992  68.6234990  89.4279997
  38.5999992  68.5954990  88.6129997  39.1069992  67.7184990  89.7379997
  39.0331690  68.4972234  89.3582770  38.8519992  71.4044990  86.3119997
  39.7979992  71.2594990  86.2929997  38.7389992  72.1884990  86.8489997
  38.9663578  71.4906708  86.3820300  57.0489992  72.0704990  91.9939997
  56.9999992  71.1144990  91.9569997  56.2229992  72.3374990  92.3959997
  56.9305767  71.9758841  92.0433133  48.0279992  71.6444990  90.8699997
  48.1149992  72.4704990  91.3449997  47.1639992  71.3144990  91.1189997
  47.9231944  71.7129871  90.9686558  48.4419992  75.4164990  80.6759997
  48.3669992  75.2954990  79.7299997  48.4749992  76.3654990  80.7949997
  48.4361862  75.5282492  80.5624840  42.0959992  74.2054990  82.4569997
  42.2479992  73.8574990  83.3359997  41.2449992  73.8484990  82.2019997
  42.0017899  74.1096749  82.5427322  54.2009992  63.5634990  92.4739997
  53.7939992  64.0434990  91.7539997  54.2419992  62.6574990  92.1669997
  54.1507178  63.5068609  92.3337441  41.3499992  69.9474990  90.4709997
  41.5659992  69.5854990  91.3309997  40.4949992  69.5724990  90.2609997
  41.2639349  69.8472914  90.5602134  43.9689992  58.4174990  86.4669997
  43.1069992  58.3304990  86.0589997  43.9469992  59.2734990  86.8939997
  43.8480953  58.5213558  86.4689262  48.6319992  58.1394990  89.8409997
  49.0519992  57.7244990  90.5939997  47.6989992  57.9604990  89.9579997
  48.5633736  58.0584921  89.9598950  51.9579992  61.8944990  90.6949997
  51.4439992  61.7694990  91.4919997  51.8029992  62.8074990  90.4499997
  51.8666643  62.0007068  90.7710624  44.0599992  63.3824990  87.5619997
  43.4179992  63.3424990  88.2709997  44.0969992  64.3094990  87.3239997
  43.9771659  63.5022540  87.6268463  44.0569992  63.6034990  82.4739997
  43.1639992  63.2634990  82.4149997  44.5079992  63.2264990  81.7179997
  43.9957185  63.5060220  82.3637698  48.6949992  64.1954990  92.7789997
  48.1319992  63.4904990  93.0989997  49.5209992  64.0744990  93.2459997
  48.7296423  64.0825614  92.8860168  51.4646070  63.1720188  83.6699997
  52.1502145  62.6324990  83.6699997  50.7789992  62.6324990  83.6699997
  51.4646070  63.0126209  83.6699997  41.8099992  63.7034990  89.4289997
  41.7719992  64.1034990  90.2969997  41.3189992  62.8864990  89.5189997
  41.7384246  63.6478842  89.5601171  38.4179992  60.8194990  83.2789997
  39.0489992  60.7904990  83.9989997  38.8679992  60.3944990  82.5489997
  38.5650905  60.7580839  83.2787479  39.6919992  61.5654990  78.7029997
  40.1669992  62.1564990  78.1179997  38.9749992  62.0954990  79.0499997
  39.6600406  61.7181011  78.6698495  49.8609992  65.1034990  88.7759997
  50.1849992  64.4724990  88.1329997  49.4209992  64.5694990  89.4369997
  49.8458707  64.9448261  88.7773195  46.6389992  61.0314990  83.5599997
  45.7279992  61.0884990  83.8489997  47.1439992  60.9714990  84.3709997
  46.5826873  61.0311838  83.7091190  41.4669992  62.6604990  82.3869997
  40.5779992  62.7594990  82.0469997  41.7629992  61.8184990  82.0409997
  41.3854001  62.5602473  82.2937318  45.1199992  62.6604990  80.0429997
  46.0519992  62.7894990  80.2209997  44.9049992  63.3294990  79.3939997
  45.2184245  62.7686452  79.9795602  51.0439992  60.2664990  86.8239997
  50.3669992  60.3974990  87.4879997  50.5579992  60.1114990  86.0139997
  50.8857265  60.2634665  86.8053380  54.3309992  75.9374990  93.1009997
  54.5309992  76.3614990  92.2659997  54.9869992  76.2814990  93.7079997
  54.4469916  76.0419784  93.0687890  41.9289992  68.4114990  92.7089997
  42.6609992  68.6664990  93.2699997  41.1489992  68.6164990  93.2239997
  41.9237684  68.4741457  92.8554774  47.9589992  63.8184990  85.4469997
  48.5229992  63.2724990  84.8999997  47.8109992  63.2974990  86.2359997
  48.0163037  63.6731798  85.4787212  42.9609992  59.9554990  81.8649997
  42.6429992  59.0524990  81.8299997  43.7419992  59.9574990  81.3129997
  43.0231560  59.8321148  81.7854975  46.5849992  62.2074990  87.8609997
  45.7499992  62.6614990  87.9709997  47.1089992  62.4834990  88.6129997
  46.5415070  62.3069677  87.9777134  47.1289992  68.4204990  79.5459997
  46.3839992  67.9124990  79.2229997  46.9949992  68.4694990  80.4919997
  47.0088633  68.3575714  79.6297563  48.6489992  68.6044990  90.7829997
  48.3029992  68.2224990  91.5889997  48.4489992  69.5374990  90.8539997
  48.5745400  68.6783489  90.9030401  42.2539992  67.7154990  85.3149997
  42.9989992  67.7124990  84.7139997  42.3319992  66.8914990  85.7969997
  42.3664158  67.6037928  85.2979136  39.2619992  66.1754990  90.6299997
  39.4849992  65.7574990  91.4619997  38.6599992  65.5634990  90.2079997
  39.2110802  66.0355216  90.6867561  46.2789992  65.6924990  92.8429997
  45.9829992  65.5274990  91.9479997  47.2099992  65.4724990  92.8329997
  46.3643909  65.6401274  92.7190110  50.8989992  71.0664990  90.7329997
  49.9979992  71.2494990  90.4649997  50.9329992  71.3254990  91.6539997
  50.7803021  71.1265505  90.8208206  56.5929992  69.1114990  91.9369997
  55.7419992  69.3494990  91.5699997  57.1839992  69.0944990  91.1839997
  56.5562468  69.1418251  91.7848902  44.6289992  71.2334990  82.7199997
  45.1559992  72.0064990  82.5189997  43.7489992  71.4574990  82.4179997
  44.5821793  71.3696652  82.6516304  40.3839992  66.0954990  77.3069997
  40.9999992  66.7224990  77.6859997  39.5219992  66.4114990  77.5779997
  40.3518195  66.2240810  77.3955369  46.0559992  68.8964990  82.2959997
  45.8149992  69.8214990  82.3379997  45.3159992  68.4374990  82.6919997
  45.9228934  68.9610881  82.3553191  46.5709992  73.0454990  88.6109997
  46.9339992  73.8994990  88.3779997  47.1029992  72.7534990  89.3519997
  46.6925141  73.1228907  88.6792079  44.7389992  73.9174990  81.8409997
  43.7899992  74.0234990  81.8929997  45.0909992  74.7384990  82.1859997
  44.6566214  74.0429361  81.8947317  50.1149992  69.1444990  88.3119997
  49.6889992  68.9164990  89.1379997  50.6959992  68.4054990  88.1289997
  50.1351587  69.0134084  88.4004111  52.7739992  73.6964990  90.7809997
  52.1719992  73.1404990  90.2859997  53.0549992  74.3634990  90.1549997
  52.7295757  73.7105755  90.6285657  40.8959992  60.9294990  90.1879997
  40.0029992  61.2674990  90.1209997  40.7969992  60.0734990  90.6059997
  40.7605241  60.8600941  90.2352982  40.5469992  72.7334990  88.6229997
  40.7639992  71.8014990  88.5919997  40.7939992  73.0084990  89.5069997
  40.6100543  72.6430877  88.7381412  46.4089992  71.1854990  75.8329997
  46.6479992  70.4364990  75.2849997  46.1399992  70.7974990  76.6649997
  46.4052804  71.0306524  75.8706352  45.3459992  70.7554990  78.2889997
  45.4929992  70.2354990  79.0789997  45.3429992  71.6624990  78.5949997
  45.3657300  70.8068975  78.4385877  41.7989992  68.0074990  78.7989997
  41.1129992  68.3604990  79.3659997  42.3219992  68.7704990  78.5529997
  41.7759033  68.1588757  78.8432644  49.6299992  60.6704990  89.0779997
  50.3289992  60.7444990  89.7279997  49.2499992  59.8054990  89.2329997
  49.6742095  60.5637402  89.1877982  48.0839992  72.4524990  79.0379997
  47.2669992  72.9494990  79.0909997  48.6129992  72.9284990  78.3979997
  48.0437898  72.5848123  78.9587274  47.6149992  62.0504990  81.0099997
  48.4269992  62.5544990  81.0559997  47.3699992  61.9054990  81.9239997
  47.6931091  62.0999366  81.1398552  48.1509992  63.0364990  90.1949997
  48.2699992  63.6104990  90.9519997  48.8059992  62.3484990  90.3099997
  48.2558684  63.0220205  90.3141656  48.4989992  59.1314990  81.9479997
  48.1519992  59.7484990  82.5929997  49.1569992  59.6324990  81.4669997
  48.5405290  59.2836384  81.9711635  45.4219992  73.4964990  79.0199997
  45.5829992  74.2964990  78.5189997  45.2249992  73.8034990  79.9049997
  45.4173919  73.6474140  79.0710988  54.3549992  60.9434990  91.0299997
  53.4389992  61.2054990  90.9419997  54.6909992  60.9404990  90.1329997
  54.2749789  60.9789637  90.8967829  42.4149992  70.6214990  77.6959997
  43.0069992  71.3214990  77.9719997  42.8739992  70.1884990  76.9769997
  42.5581172  70.6587371  77.6365163  40.7309992  63.2864990  76.8119997
  40.6859992  64.2254990  76.9909997  39.8429992  63.0504990  76.5419997
  40.6048472  63.3831946  76.8000282  41.5389992  58.0674990  85.4849997
  41.3099992  58.1264990  84.5579997  41.0959992  57.2764990  85.7919997
  41.4477387  57.9686412  85.3995223  40.4689992  72.0084990  81.6459997
  39.6369992  72.4804990  81.6729997  41.0149992  72.5184990  81.0469997
  40.4288710  72.1420317  81.5687570  39.7579992  74.6204990  92.9759997
  40.2979992  74.4044990  93.7349997  39.2759992  73.8154990  92.7859997
  39.7669101  74.4820216  93.0544364  44.3549992  73.5404990  94.5959997
  45.1229992  73.0814990  94.9369997  44.3339992  73.3144990  93.6659997
  44.4572135  73.4471680  94.5169473  48.4469992  73.0484990  75.9709997
  47.8029992  72.4174990  76.2929997  49.2089992  72.5174990  75.7389997
  48.4618260  72.8903035  75.9837298  50.9319992  71.9204990  93.3249997
  50.5809992  71.0634990  93.5679997  51.6579992  72.0624990  93.9319997
  50.9821590  71.8225189  93.4402889  39.6649992  68.4314990  93.9299997
  39.8089992  67.5294990  93.6439997  38.8919992  68.7174990  93.4419997
  39.5802854  68.3466876  93.8249363  44.0059992  68.7744990  76.0619997
  44.0699992  67.9804990  76.5929997  44.6589992  68.6564990  75.3729997
  44.1031168  68.6497748  76.0415119  46.3199992  68.4004990  93.3629997
  45.9919992  68.6714990  92.5049997  46.4719992  67.4594990  93.2749997
  46.2956970  68.3103694  93.2337953  52.0549992  68.3164990  90.7459997
  52.7999992  68.9054990  90.6259997  51.2969992  68.8984990  90.8089997
  52.0545185  68.4757000  90.7380940  40.4969992  65.6314990  93.3499997
  40.9049992  64.7744990  93.2289997  40.2369992  65.6454990  94.2709997
  40.5177082  65.5160596  93.4579469  45.1549992  66.7474990  78.3679997
  44.6959992  66.2634990  79.0539997  45.4099992  66.0784990  77.7319997
  45.1266178  66.5908511  78.3759785  44.4439992  64.6404990  90.7239997
  43.8259992  65.3144990  91.0049997  44.7879992  64.9614990  89.8909997
  44.4058181  64.7763233  90.6498266  49.4639992  67.1114990  94.0019997
  50.4169992  67.1954990  93.9739997  49.3039992  66.3994990  94.6209997
  49.5728161  67.0267198  94.0818689  44.7839992  61.9954990  91.8069997
  44.9339992  61.2664990  91.2039997  44.7859992  62.7724990  91.2479997
  44.8047664  62.0008971  91.6490525  45.1959992  60.3644990  89.2989997
  45.7319992  60.8164990  88.6469997  44.3439992  60.2564990  88.8769997
  45.1541648  60.4117883  89.1526395  46.7779992  65.8044990  89.5389997
  47.5289992  65.6484990  88.9659997  46.4389992  66.6564990  89.2629997
  46.8349052  65.8982745  89.4233469  51.1939992  63.6194990  94.5669997
  51.3859992  62.6884990  94.4559997  52.0509992  64.0444990  94.5569997
  51.3362320  63.5494743  94.5504433  52.5099992  66.4084990  92.6449997
  52.2289992  67.1174990  92.0669997  53.4529992  66.3354990  92.4939997
  52.5989272  66.4956704  92.5454976  43.2619992  63.1934990  93.7179997
  42.4949992  62.6604990  93.5079997  43.9409992  62.8834990  93.1189997
  43.2488292  63.0786360  93.6082693  46.0019992  57.8214990  89.7309997
  45.9039992  58.7674990  89.6249997  45.2589992  57.4484990  89.2549997
  45.8882363  57.9005987  89.6522029  47.2659992  62.1424990  93.2939997
  47.0299992  61.9234990  94.1959997  46.4829992  61.9354990  92.7849997
  47.1278444  62.0845688  93.3484518  49.9819992  61.2704990  92.3699997
  49.0339992  61.3024990  92.5019997  50.2939992  60.6444990  93.0239997
  49.8945293  61.1902934  92.4764130  51.6159992  59.9044990  94.3749997
  51.5189992  58.9524990  94.3689997  51.2939992  60.1724990  95.2359997
  51.5592229  59.8104706  94.4905108  41.4429992  61.1134990  93.4229997
  41.6539992  60.4074990  92.8119997  41.3309992  60.6764990  94.2669997
  41.4567674  60.9576376  93.4534199  46.2239992  57.1154990  92.4019997
  46.9349992  56.4754990  92.3879997  46.1229992  57.3814990  91.4879997
  46.3076732  57.0638451  92.2765475  46.5769992  58.7974990  94.4559997
  46.4459992  58.3224990  93.6349997  45.9779992  59.5424990  94.3999997
  46.4781524  58.8331968  94.3361553  46.1239992  75.6804990  77.6319997
  47.0569992  75.8384990  77.7759997  45.8589992  76.3564990  77.0069997
  46.2159846  75.7934567  77.5672930  39.6919992  70.3174990  77.1149997
  40.6059992  70.3964990  77.3879997  39.6989992  69.6304990  76.4479997
  39.8180769  70.2354734  77.0622366  38.3409992  75.7104990  82.1919997
  37.6939992  75.2484990  81.6589997  38.6959992  75.0384990  82.7749997
  38.3003861  75.5564707  82.1977939  39.2109992  73.7904990  83.9969997
  38.8769992  72.9104990  84.1689997  39.4329992  74.1364990  84.8609997
  39.1952677  73.7167366  84.1374252  56.7599992  74.6004990  86.9769997
  56.7379992  74.7854990  87.9159997  57.4499992  75.1684990  86.6359997
  56.8503439  74.7026898  87.0594774  56.3229992  74.1674990  89.8989997
  55.8359992  73.4314990  89.5279997  56.8719992  73.7734990  90.5769997
  56.3306101  74.0136267  89.9399034  54.7739992  69.9574990  94.5369997
  53.9079992  69.8524990  94.9309997  55.1499992  70.7154990  94.9839997
  54.7063768  70.0456151  94.6513258  54.7139992  71.9304990  89.1299997
  54.0669992  72.2554990  89.7549997  54.1969992  71.4894990  88.4549997
  54.5554068  71.9154726  89.1244918  39.2909992  66.8664990  86.4479997
  39.4749992  66.7844990  85.5129997  40.1399992  66.7424990  86.8719997
  39.4310259  66.8384915  86.3771771  55.1119992  66.7584990  92.0769997
  55.6949992  66.0234990  92.2679997  55.6759992  67.5304990  92.1229997
  55.2680326  66.7622746  92.1093579  56.6089992  64.6614990  92.7609997
  55.7449992  64.2824990  92.5959997  57.2129992  63.9224990  92.6869997
  56.5724912  64.5097937  92.7284360  54.5779992  62.9524990  86.3359997
  55.5109992  63.1644990  86.3019997  54.3429992  63.0534990  87.2589997
  54.6738357  62.9951303  86.4560232  54.6069992  63.6894990  89.1119997
  53.7639992  63.9574990  89.4779997  55.0499992  64.5114990  88.9009997
  54.5514358  63.8373294  89.1335999  38.8879992  62.1364990  92.5889997
  39.8079992  62.0144990  92.8249997  38.4389992  61.3864990  92.9779997
  38.9531561  62.0183720  92.6739015  56.8899992  57.6694990  94.4659997
  57.2399992  57.0154990  93.8599997  57.0369992  58.5064990  94.0259997
  56.9577192  57.6932545  94.3236712  40.1099992  60.4494990  85.4799997
  40.5549992  59.6574990  85.7819997  40.5759992  61.1654990  85.9109997
  40.2339059  60.4379485  85.5796061  38.4139992  63.4484990  86.5489997
  38.9059992  63.2274990  85.7589997  38.7759992  64.2884990  86.8299997
  38.5303429  63.5318220  86.4787918  56.4099992  59.7784990  92.8149997
  55.4929992  60.0494990  92.7789997  56.5329992  59.2434990  92.0309997
  56.3010828  59.7432711  92.7040767  38.7269992  59.7064990  80.6039997
  37.8019992  59.9144990  80.4739997  39.1809992  60.1904990  79.9139997
  38.6617401  59.8003895  80.4929433  38.6909992  58.4444990  88.9479997
  38.0259992  58.1984990  89.5909997  38.2479992  59.0664990  88.3709997
  38.5401168  58.4949225  88.9579830  40.8829992  71.6194990  93.0919997
  40.0619992  71.7944990  92.6319997  40.6309992  71.5464990  94.0129997
  40.7366173  71.6335806  93.1534954  43.8369992  72.5934990  89.3509997
  43.4119992  73.4034990  89.0679997  44.7409992  72.6794990  89.0489997
  43.9011002  72.7158728  89.2714798  48.1479992  73.9924990  92.3099997
  48.3329992  73.6594990  93.1879997  48.9949992  74.3024990  91.9879997
  48.2877291  73.9888214  92.3866140  50.4929992  75.2784990  91.5539997
  51.1699992  74.6454990  91.3139997  50.8149992  75.6794990  92.3619997
  50.6291280  75.2460638  91.6303190  55.4109992  57.8684990  90.6339997
  54.5979992  58.1934990  90.2459997  55.6439992  57.1074990  90.1009997
  55.3312566  57.8101570  90.5089196  41.2389992  75.8504990  89.3979997
  40.5179992  76.2904990  88.9469997  40.8729992  75.5994990  90.2469997
  41.0909785  75.8767691  89.4509849  43.7059992  75.4504990  88.4279997
  42.8409992  75.5224990  88.8319997  43.6509992  75.9974990  87.6439997
  43.5802066  75.5342678  88.3773371  48.4169992  75.3384990  87.6039997
  47.9599992  75.8674990  86.9499997  48.5789992  75.9414990  88.3289997
  48.3763919  75.4923990  87.6125740  50.7439992  74.2164990  88.5489997
  49.8399992  74.3814990  88.2829997  51.1729992  75.0694990  88.4829997
  50.6782017  74.3544184  88.5036495  53.3479992  75.7864990  88.8439997
  53.1669992  76.7024990  88.6329997  53.5249992  75.3754990  87.9969997
  53.3471377  75.8563365  88.7007178  40.6539992  74.4734990  86.3089997
  40.6349992  74.0474990  87.1659997  41.4579992  74.1544990  85.8999997
  40.7601393  74.3720297  86.3710155  42.7949992  73.1834990  84.9639997
  42.5759992  72.2664990  85.1329997  43.6189992  73.3234990  85.4299997
  42.8764637  73.0769586  85.0501414  45.3319992  73.6534990  85.8119997
  45.5449992  72.7654990  85.5249997  45.3969992  73.6184990  86.7669997
  45.3699075  73.5273318  85.9017355  48.8409992  59.3174990  84.9569997
  48.1659992  58.6874990  85.2119997  49.4049992  58.8334990  84.3539997
  48.8249558  59.1659283  84.9103451  41.1669992  57.9514990  82.7789997
  40.3899992  57.7164990  82.2709997  41.6979992  57.1544990  82.7879997
  41.1324443  57.8116721  82.7107200  40.0039992  57.7494990  78.5819997
  40.4429992  58.3604990  77.9909997  39.3699992  58.2874990  79.0559997
  39.9784103  57.9059233  78.5651376  45.7469992  57.8774990  82.5919997
  46.6209992  58.2664990  82.5619997  45.6109992  57.6624990  83.5149997
  45.8483125  57.9017120  82.7126523  51.3029992  57.9074990  84.2409997
  50.6098428  58.2915839  84.5661530  51.0279992  57.0004990  84.3699997
  51.1671229  57.8538076  84.3047380  39.9049992  73.6974990  79.4799997
  39.2199992  73.6594990  78.8119997  39.9079992  74.6094990  79.7679997
  39.8117358  73.8156744  79.4276145  48.7689992  74.9064990  77.8769997
  49.6349992  75.2734990  77.6989997  48.5219992  74.4674990  77.0639997
  48.8542041  74.8973648  77.7425958  41.1249992  58.4654990  92.2959997
  40.7589992  57.6994990  92.7389997  42.0379992  58.4944990  92.5829997
  41.1983225  58.3646917  92.3953441  43.0979992  57.8154990  93.8319997
  43.9969992  57.5414990  93.6469997  42.7119992  57.0734990  94.2959997
  43.1687237  57.6776520  93.8694693  51.5189992  57.1484990  94.0139997
  51.5959992  56.7224990  94.8679997  52.4129992  57.1614990  93.6719997
  51.6503315  57.0920320  94.0845052  54.6959992  73.2204990  92.7069997
  53.9139992  73.0344990  92.1869997  54.6239992  74.1504990  92.9239997
  54.5792975  73.3206973  92.6651822  68.0349992  66.3624990  86.1559997
  67.9959992  65.7164990  86.8609997  67.7119992  65.8954990  85.3849997
  67.9860199  66.2110089  86.1482865  61.3164322  65.3514990  88.4729997
  60.4439992  65.3514990  88.4729997  61.5215782  66.1994700  88.4729997
  61.2178592  65.4767630  88.4729997  71.7409992  69.3014990  84.4579997
  71.2999992  68.5814990  84.9079997  71.7279992  70.0224990  85.0879997
  71.6788398  69.3003187  84.6047734  68.8519992  74.4054990  84.6699997
  69.4719992  73.7294990  84.3969997  68.6439992  74.1874990  85.5779997
  68.9087360  74.2834792  84.7554387  66.4239992  68.7944990  86.5619997
  66.7279992  68.1084990  85.9679997  67.1459992  68.9134990  87.1799997
  66.5631152  68.7167201  86.5642106  75.0869992  60.3964990  87.4229997
  75.1359992  61.0064990  88.1589997  75.5129992  60.8574990  86.6999997
  75.1512851  60.5423266  87.4260532  69.5649992  63.1884990  86.8899997
  69.7069992  62.2424990  86.9099997  69.4589992  63.3954990  85.9609997
  69.5701158  63.0869722  86.7672241  70.4419992  61.4214990  82.5629997
  71.0879992  61.0924990  83.1879997  70.9519992  61.9384990  81.9399997
  70.5994392  61.4463710  82.5643248  75.4789992  61.8744990  89.6589997
  74.7899992  62.5324990  89.5639997  75.4939992  61.6764990  90.5959997
  75.3867756  61.9377614  89.7725795  61.5299992  60.2084990  88.2359997
  61.3109992  60.7384990  87.4699997  60.8619992  60.4344990  88.8839997
  61.4097271  60.3116508  88.2186206  64.0989992  67.8834990  88.5239997
  63.3589992  68.4824990  88.6269997  64.8129992  68.4374990  88.2079997
  64.0943288  68.0402368  88.4953787  72.2059992  60.7124990  84.5439997
  71.9909992  59.9464990  85.0759997  72.8619992  61.1844990  85.0569997
  72.2652451  60.6714472  84.6861699  61.1239992  62.1004990  86.1889997
  61.7369992  62.7334990  86.5619997  61.6359992  61.6284990  85.5319997
  61.2771680  62.1234006  86.1512830  62.5059992  69.8484990  89.3109997
  62.5009992  70.7274990  88.9329997  61.6529992  69.7644990  89.7359997
  62.3899199  69.9575901  89.3166942  72.2529992  71.1404990  86.8059997
  71.3109992  71.1994990  86.9669997  72.5289992  72.0464990  86.6689997
  72.1615771  71.2710270  86.8094827  72.5529992  59.4274990  88.2229997
  71.8169992  60.0374990  88.1849997  73.2369992  59.8424990  87.6969997
  72.5445885  59.5671924  88.1466931  65.5559992  57.5134990  85.6889997
  65.4389992  56.5654990  85.6349997  64.7009992  57.8464990  85.9619997
  65.4243691  57.4285842  85.7185072  70.5049992  72.9214990  83.4309997
  70.9299992  72.2144990  82.9459997  70.8219992  73.7234990  83.0139997
  70.6060266  72.9330201  83.3082461  71.6639992  70.8224990  81.9399997
  71.6879057  71.6300494  82.2245203  71.7349992  70.3794990  82.7849997
  71.6761710  70.8878819  82.0848604  73.3499992  69.3894990  90.4169997
  73.4899992  68.7974990  89.6779997  73.5179992  70.2624990  90.0609997
  73.3918734  69.4264041  90.2676937  75.1919992  65.7294990  88.4829997
  74.5399992  66.4234990  88.5719997  75.6569992  65.9394990  87.6729997
  75.1655357  65.8529544  88.3857056  71.1259992  64.7354990  90.2089997
  71.2059992  65.4984990  90.7809997  70.5249992  65.0144990  89.5179997
  71.0557115  64.8777707  90.1939631  64.2409992  70.6194990  85.7049997
  64.4207114  71.4480166  85.8272729  64.9699992  70.2484990  86.2009997
  64.3562843  70.6967292  85.7834378  64.2446070  67.1370188  87.2959997
  64.9302145  66.5974990  87.2959997  63.5589992  66.5974990  87.2959997
  64.2446070  66.9776209  87.2959997  69.5499992  71.4634990  87.3909997
  69.3089992  72.1254990  88.0389997  69.3519992  70.6284990  87.8159997
  69.4902662  71.4412704  87.5371008  64.1209992  70.3594990  91.3739997
  63.8089992  71.1414990  91.8299997  63.4709992  70.2064990  90.6879997
  63.9904643  70.4458019  91.3436657  61.0409992  66.5574990  90.6029997
  61.1109992  67.2084990  91.3009997  60.1499992  66.6604990  90.2679997
  60.9301802  66.6604769  90.6532231  62.3599992  72.4304990  92.1379997
  62.3679992  72.2944990  91.1899997  61.4439992  72.3134990  92.3899997
  62.2372512  72.3960664  92.0423179  73.7979992  57.4734990  78.6389997
  72.8979992  57.6114990  78.9339997  74.0499992  58.3044990  78.2369997
  73.7087355  57.6048200  78.6250539  57.9569992  68.6234990  89.4279997
  57.4559992  68.5954990  88.6129997  57.9629992  67.7184990  89.7379997
  57.8891690  68.4972234  89.3582770  75.9049992  72.0704990  91.9939997
  75.8559992  71.1144990  91.9569997  75.0789992  72.3374990  92.3959997
  75.7865767  71.9758841  92.0433133  66.8839992  71.6444990  90.8699997
  66.9709992  72.4704990  91.3449997  66.0199992  71.3144990  91.1189997
  66.7791944  71.7129871  90.9686558  61.9764322  73.8574990  83.3359997
  61.1039992  73.8574990  83.3359997  62.1815782  74.7054700  83.3359997
  61.8778592  73.9827630  83.3359997  73.0569992  63.5634990  92.4739997
  72.6499992  64.0434990  91.7539997  73.0979992  62.6574990  92.1669997
  73.0067178  63.5068609  92.3337441  60.2059992  69.9474990  90.4709997
  60.4219992  69.5854990  91.3309997  59.3509992  69.5724990  90.2609997
  60.1199349  69.8472914  90.5602134  62.8249992  58.4174990  86.4669997
  61.9629992  58.3304990  86.0589997  62.8029992  59.2734990  86.8939997
  62.7040953  58.5213558  86.4689262  67.4879992  58.1394990  89.8409997
  67.9079992  57.7244990  90.5939997  66.5549992  57.9604990  89.9579997
  67.4193736  58.0584921  89.9598950  70.8139992  61.8944990  90.6949997
  70.2999992  61.7694990  91.4919997  70.6589992  62.8074990  90.4499997
  70.7226643  62.0007068  90.7710624  71.5769992  66.7554990  76.4559997
  71.6189992  66.5334990  75.5259997  72.4259992  67.1544990  76.6459997
  71.6975253  66.7790510  76.3543804  62.9159992  63.3824990  87.5619997
  62.2739992  63.3424990  88.2709997  62.9529992  64.3094990  87.3239997
  62.8331659  63.5022540  87.6268463  67.5509992  64.1954990  92.7789997
  66.9879992  63.4904990  93.0989997  68.3769992  64.0744990  93.2459997
  67.5856423  64.0825614  92.8860168  70.3206070  63.1720188  83.6699997
  71.0062145  62.6324990  83.6699997  69.6349992  62.6324990  83.6699997
  70.3206070  63.0126209  83.6699997  60.6659992  63.7034990  89.4289997
  60.6279992  64.1034990  90.2969997  60.1749992  62.8864990  89.5189997
  60.5944246  63.6478842  89.5601171  68.7169992  65.1034990  88.7759997
  69.0409992  64.4724990  88.1329997  68.2769992  64.5694990  89.4369997
  68.7018707  64.9448261  88.7773195  65.4949992  61.0314990  83.5599997
  64.5839992  61.0884990  83.8489997  65.9999992  60.9714990  84.3709997
  65.4386873  61.0311838  83.7091190  69.8999992  60.2664990  86.8239997
  69.2229992  60.3974990  87.4879997  69.4139992  60.1114990  86.0139997
  69.7417265  60.2634665  86.8053380  73.1869992  75.9374990  93.1009997
  73.3869992  76.3614990  92.2659997  73.8429992  76.2814990  93.7079997
  73.3029916  76.0419784  93.0687890  60.7849992  68.4114990  92.7089997
  61.5169992  68.6664990  93.2699997  60.0049992  68.6164990  93.2239997
  60.7797684  68.4741457  92.8554774  66.8149992  63.8184990  85.4469997
  66.7485357  64.5954352  85.8013220  66.6669992  63.2974990  86.2359997
  66.7871825  63.8699096  85.5952929  65.4409992  62.2074990  87.8609997
  64.6059992  62.6614990  87.9709997  65.9649992  62.4834990  88.6129997
  65.3975070  62.3069677  87.9777134  73.1349992  67.5534990  88.3319997
  73.7769992  68.0094990  87.7889997  72.3049992  67.6664990  87.8699997
  73.1107352  67.6313223  88.1950234  67.5049992  68.6044990  90.7829997
  67.1589992  68.2224990  91.5889997  67.3049992  69.5374990  90.8539997
  67.4305399  68.6783489  90.9030401  72.3654322  62.9634990  79.7249997
  71.4929992  62.9634990  79.7249997  72.5705782  63.8114700  79.7249997
  72.2668592  63.0887630  79.7249997  58.1179992  66.1754990  90.6299997
  58.3409992  65.7574990  91.4619997  57.5159992  65.5634990  90.2079997
  58.0670802  66.0355216  90.6867561  65.1349992  65.6924990  92.8429997
  64.8389992  65.5274990  91.9479997  66.0659992  65.4724990  92.8329997
  65.2203909  65.6401274  92.7190110  69.7549992  71.0664990  90.7329997
  68.8539992  71.2494990  90.4649997  69.7889992  71.3254990  91.6539997
  69.6363021  71.1265505  90.8208206  75.4859992  63.3104990  79.0999997
  74.9319992  62.9144990  78.4279997  75.5869992  64.2214990  78.8229997
  75.4237084  63.3793565  78.9704381  75.4489992  69.1114990  91.9369997
  74.5979992  69.3494990  91.5699997  76.0399992  69.0944990  91.1839997
  75.4122468  69.1418251  91.7848902  70.9419992  66.9044990  86.5869997
  70.0139992  66.6734990  86.5599997  71.3929992  66.1274990  86.2569997
  70.8758165  66.7677785  86.5386772  65.4269992  73.0454990  88.6109997
  65.7899992  73.8994990  88.3779997  65.9589992  72.7534990  89.3519997
  65.5485141  73.1228907  88.6792079  63.5949992  73.9174990  81.8409997
  62.6459992  74.0234990  81.8929997  63.9469992  74.7384990  82.1859997
  63.5126214  74.0429361  81.8947317  68.9709992  69.1444990  88.3119997
  68.5449992  68.9164990  89.1379997  69.5519992  68.4054990  88.1289997
  68.9911587  69.0134084  88.4004111  71.6299992  73.6964990  90.7809997
  71.0279992  73.1404990  90.2859997  71.9109992  74.3634990  90.1549997
  71.5855757  73.7105755  90.6285657  59.7519992  60.9294990  90.1879997
  58.8589992  61.2674990  90.1209997  59.6529992  60.0734990  90.6059997
  59.6165241  60.8600941  90.2352982  73.6526070  69.4040188  79.8179997
  74.3382145  68.8644990  79.8179997  72.9669992  68.8644990  79.8179997
  73.6526070  69.2446209  79.8179997  59.4029992  72.7334990  88.6229997
  59.6199992  71.8014990  88.5919997  59.6499992  73.0084990  89.5069997
  59.4660543  72.6430877  88.7381412  68.4859992  60.6704990  89.0779997
  69.1849992  60.7444990  89.7279997  68.1059992  59.8054990  89.2329997
  68.5302095  60.5637402  89.1877982  69.2709992  60.3224990  80.1749997
  69.4909992  60.7934990  79.3719997  69.8289992  60.7164990  80.8459997
  69.3765851  60.4403272  80.1556134  67.0069992  63.0364990  90.1949997
  67.1259992  63.6104990  90.9519997  67.6619992  62.3484990  90.3099997
  67.1118684  63.0220205  90.3141656  67.3549992  59.1314990  81.9479997
  67.0079992  59.7484990  82.5929997  68.0129992  59.6324990  81.4669997
  67.3965290  59.2836384  81.9711635  73.2109992  60.9434990  91.0299997
  72.2949992  61.2054990  90.9419997  73.5469992  60.9404990  90.1329997
  73.1309789  60.9789637  90.8967829  71.8129992  64.6934990  85.1259997
  71.0159992  64.2784990  84.7969997  72.2579992  64.0034990  85.6169997
  71.7640317  64.5433197  85.1473556  72.8999992  73.9494990  86.7479997
  72.7439992  74.6284990  86.0909997  73.8319992  74.0214990  86.9509997
  73.0047328  74.0521586  86.6855529  58.6139992  74.6204990  92.9759997
  59.1539992  74.4044990  93.7349997  58.1319992  73.8154990  92.7859997
  58.6229101  74.4820216  93.0544364  63.2109992  73.5404990  94.5959997
  63.9789992  73.0814990  94.9369997  63.1899992  73.3144990  93.6659997
  63.3132135  73.4471680  94.5169473  69.7879992  71.9204990  93.3249997
  69.4369992  71.0634990  93.5679997  70.5139992  72.0624990  93.9319997
  69.8381590  71.8225189  93.4402889  58.5209992  68.4314990  93.9299997
  58.6649992  67.5294990  93.6439997  57.7479992  68.7174990  93.4419997
  58.4362854  68.3466876  93.8249363  65.1759992  68.4004990  93.3629997
  64.8479992  68.6714990  92.5049997  65.3279992  67.4594990  93.2749997
  65.1516970  68.3103694  93.2337953  70.9109992  68.3164990  90.7459997
  71.6559992  68.9054990  90.6259997  70.1529992  68.8984990  90.8089997
  70.9105185  68.4757000  90.7380940  59.3529992  65.6314990  93.3499997
  59.7609992  64.7744990  93.2289997  59.0929992  65.6454990  94.2709997
  59.3737082  65.5160596  93.4579469  63.2999992  64.6404990  90.7239997
  62.6819992  65.3144990  91.0049997  63.6439992  64.9614990  89.8909997
  63.2618181  64.7763233  90.6498266  68.3199992  67.1114990  94.0019997
  69.2729992  67.1954990  93.9739997  68.1599992  66.3994990  94.6209997
  68.4288161  67.0267198  94.0818689  74.4719992  67.3444990  76.0759997
  74.1989992  66.9204990  75.2629997  74.5119992  68.2764990  75.8589997
  74.4400201  67.4123523  75.9353548  63.6399992  61.9954990  91.8069997
  63.7899992  61.2664990  91.2039997  63.6419992  62.7724990  91.2479997
  63.6607664  62.0008971  91.6490525  64.0519992  60.3644990  89.2989997
  64.5879992  60.8164990  88.6469997  63.1999992  60.2564990  88.8769997
  64.0101648  60.4117883  89.1526395  65.6339992  65.8044990  89.5389997
  66.3849992  65.6484990  88.9659997  65.2949992  66.6564990  89.2629997
  65.6909052  65.8982745  89.4233469  70.0499992  63.6194990  94.5669997
  70.2419992  62.6884990  94.4559997  70.9069992  64.0444990  94.5569997
  70.1922320  63.5494743  94.5504433  71.3659992  66.4084990  92.6449997
  71.0849992  67.1174990  92.0669997  72.3089992  66.3354990  92.4939997
  71.4549272  66.4956704  92.5454976  62.1179992  63.1934990  93.7179997
  61.3509992  62.6604990  93.5079997  62.7969992  62.8834990  93.1189997
  62.1048292  63.0786360  93.6082693  64.8579992  57.8214990  89.7309997
  64.7599992  58.7674990  89.6249997  64.1149992  57.4484990  89.2549997
  64.7442363  57.9005987  89.6522029  66.1219992  62.1424990  93.2939997
  65.8859992  61.9234990  94.1959997  65.3389992  61.9354990  92.7849997
  65.9838444  62.0845688  93.3484518  68.8379992  61.2704990  92.3699997
  67.8899992  61.3024990  92.5019997  69.1499992  60.6444990  93.0239997
  68.7505293  61.1902934  92.4764130  70.4719992  59.9044990  94.3749997
  70.3749992  58.9524990  94.3689997  70.1499992  60.1724990  95.2359997
  70.4152229  59.8104706  94.4905108  60.2989992  61.1134990  93.4229997
  60.5099992  60.4074990  92.8119997  60.1869992  60.6764990  94.2669997
  60.3127674  60.9576376  93.4534199  65.0799992  57.1154990  92.4019997
  65.7909992  56.4754990  92.3879997  64.9789992  57.3814990  91.4879997
  65.1636732  57.0638451  92.2765475  65.4329992  58.7974990  94.4559997
  65.3019992  58.3224990  93.6349997  64.8339992  59.5424990  94.3999997
  65.3341524  58.8331968  94.3361553  75.6159992  74.6004990  86.9769997
  75.5939992  74.7854990  87.9159997  76.3059992  75.1684990  86.6359997
  75.7063439  74.7026898  87.0594774  75.1789992  74.1674990  89.8989997
  74.6919992  73.4314990  89.5279997  75.7279992  73.7734990  90.5769997
  75.1866101  74.0136267  89.9399034  73.6299992  69.9574990  94.5369997
  72.7639992  69.8524990  94.9309997  74.0059992  70.7154990  94.9839997
  73.5623768  70.0456151  94.6513258  74.9309992  68.2134990  80.0509997
  75.7809992  68.6344990  80.1789997  74.9359992  67.4734990  80.6589997
  75.0479745  68.1711347  80.1506479  75.3249992  66.2674990  81.8749997
  74.5989992  65.7874990  82.2729997  75.9059992  66.4724990  82.6069997
  75.3042504  66.2295592  82.0284199  75.0839992  69.0524990  86.8229997
  75.9179992  68.6744990  86.5419997  75.1959992  69.9954990  86.7039997
  75.2131917  69.1282954  86.7684844  73.5699992  71.9304990  89.1299997
  72.9229992  72.2554990  89.7549997  73.0529992  71.4894990  88.4549997
  73.4114068  71.9154726  89.1244918  75.5929992  66.1684990  78.2659997
  75.0719992  66.5244990  77.5469997  75.5599992  66.8434990  78.9439997
  75.5171525  66.3085273  78.2591408  73.9419992  63.4074990  76.8169997
  74.0389992  64.0744990  76.1369997  73.8019992  62.5924990  76.3349997
  73.9363428  63.3885667  76.6588311  73.1119992  64.7884990  82.4379997
  72.9619992  63.8434990  82.4179997  72.7579992  65.0694990  83.2819997
  73.0436351  64.6971656  82.5493202  73.9679992  66.7584990  92.0769997
  74.5509992  66.0234990  92.2679997  74.5319992  67.5304990  92.1229997
  74.1240326  66.7622746  92.1093579  75.4649992  64.6614990  92.7609997
  74.6009992  64.2824990  92.5959997  76.0689992  63.9224990  92.6869997
  75.4284912  64.5097937  92.7284360  72.8219992  62.3704990  80.8999997
  73.1019992  61.4634990  81.0249997  73.5809992  62.8044990  80.5109997
  72.9629471  62.3050654  80.8645052  73.4339992  62.9524990  86.3359997
  74.3669992  63.1644990  86.3019997  73.1989992  63.0534990  87.2589997
  73.5298357  62.9951303  86.4560232  73.4629992  63.6894990  89.1119997
  72.6199992  63.9574990  89.4779997  73.9059992  64.5114990  88.9009997
  73.4074358  63.8373294  89.1335999  57.7439992  62.1364990  92.5889997
  58.6639992  62.0144990  92.8249997  57.2949992  61.3864990  92.9779997
  57.8091561  62.0183720  92.6739015  75.7459992  57.6694990  94.4659997
  76.0959992  57.0154990  93.8599997  75.8929992  58.5064990  94.0259997
  75.8137192  57.6932545  94.3236712  73.4359992  59.6334990  80.9489997
  73.6179992  59.1844990  81.7739997  72.8359992  59.0494990  80.4849997
  73.3798187  59.4930563  80.9992721  60.1176070  61.7050188  85.9109997
  60.8032145  61.1654990  85.9109997  59.4319992  61.1654990  85.9109997
  60.1176070  61.5456209  85.9109997  75.2659992  59.7784990  92.8149997
  74.3489992  60.0494990  92.7789997  75.3889992  59.2434990  92.0309997
  75.1570828  59.7432711  92.7040767  57.5469992  58.4444990  88.9479997
  56.8819992  58.1984990  89.5909997  57.1039992  59.0664990  88.3709997
  57.3961168  58.4949225  88.9579830  59.7389992  71.6194990  93.0919997
  58.9179992  71.7944990  92.6319997  59.4869992  71.5464990  94.0129997
  59.5926173  71.6335806  93.1534954  62.6929992  72.5934990  89.3509997
  62.2679992  73.4034990  89.0679997  63.5969992  72.6794990  89.0489997
  62.7571002  72.7158728  89.2714798  67.0039992  73.9924990  92.3099997
  67.1889992  73.6594990  93.1879997  67.8509992  74.3024990  91.9879997
  67.1437291  73.9888214  92.3866140  69.3489992  75.2784990  91.5539997
  70.0259992  74.6454990  91.3139997  69.6709992  75.6794990  92.3619997
  69.4851280  75.2460638  91.6303190  74.2669992  57.8684990  90.6339997
  73.4539992  58.1934990  90.2459997  74.4999992  57.1074990  90.1009997
  74.1872566  57.8101570  90.5089196  60.0949992  75.8504990  89.3979997
  59.3739992  76.2904990  88.9469997  59.7289992  75.5994990  90.2469997
  59.9469785  75.8767691  89.4509849  62.5619992  75.4504990  88.4279997
  61.6969992  75.5224990  88.8319997  62.5069992  75.9974990  87.6439997
  62.4362066  75.5342678  88.3773371  67.2729992  75.3384990  87.6039997
  66.8159992  75.8674990  86.9499997  67.4349992  75.9414990  88.3289997
  67.2323919  75.4923990  87.6125740  69.5999992  74.2164990  88.5489997
  68.6959992  74.3814990  88.2829997  70.0289992  75.0694990  88.4829997
  69.5342017  74.3544184  88.5036495  72.2039992  75.7864990  88.8439997
  72.0229992  76.7024990  88.6329997  72.3809992  75.3754990  87.9969997
  72.2031377  75.8563365  88.7007178  59.5099992  74.4734990  86.3089997
  59.4909992  74.0474990  87.1659997  60.3139992  74.1544990  85.8999997
  59.6161393  74.3720297  86.3710155  61.6509992  73.1834990  84.9639997
  61.4391328  74.0046962  84.8441820  62.4749992  73.3234990  85.4299997
  61.7199265  73.3218364  85.0029804  64.1879992  73.6534990  85.8119997
  64.4009992  72.7654990  85.5249997  64.2529992  73.6184990  86.7669997
  64.2259075  73.5273318  85.9017355  67.6969992  59.3174990  84.9569997
  67.0219992  58.6874990  85.2119997  68.2609992  58.8334990  84.3539997
  67.6809558  59.1659283  84.9103451  72.8389992  57.4244990  85.0689997
  73.4429992  57.9724990  84.5679997  71.9699992  57.7434990  84.8289997
  72.8041126  57.5427070  84.9679180  74.5659992  58.5634990  83.4029997
  75.1779992  58.0494990  82.8759997  74.9489992  59.4404990  83.4259997
  74.7013867  58.6117613  83.3340888  64.6029992  57.8774990  82.5919997
  65.4769992  58.2664990  82.5619997  64.4669992  57.6624990  83.5149997
  64.7043125  57.9017120  82.7126523  70.1589992  57.9074990  84.2409997
  70.2359992  58.0034990  83.2919997  69.8839992  57.0004990  84.3699997
  70.1323407  57.7979188  84.1283532  71.5129992  57.9334990  79.9339997
  70.8099992  58.5484990  79.7239997  71.0679992  57.0964990  80.0649997
  71.3566550  57.9044679  79.9229819  59.9809992  58.4654990  92.2959997
  59.6149992  57.6994990  92.7389997  60.8939992  58.4944990  92.5829997
  60.0543225  58.3646917  92.3953441  61.9539992  57.8154990  93.8319997
  62.8529992  57.5414990  93.6469997  61.5679992  57.0734990  94.2959997
  62.0247237  57.6776520  93.8694693  70.3749992  57.1484990  94.0139997
  70.4519992  56.7224990  94.8679997  71.2689992  57.1614990  93.6719997
  70.5063315  57.0920320  94.0845052  73.5519992  73.2204990  92.7069997
  72.7699992  73.0344990  92.1869997  73.4799992  74.1504990  92.9239997
  73.4352975  73.3206973  92.6651823  87.9579992  67.1074990  82.7369997
  88.0469992  68.0514990  82.6049997  87.3189992  66.8324990  82.0789997
  87.8838319  67.1994984  82.6300276  86.8909992  66.3624990  86.1559997
  86.8519992  65.7164990  86.8609997  86.5679992  65.8954990  85.3849997
  86.8420199  66.2110089  86.1482865  79.2589992  65.9764990  87.7489997
  79.2999992  65.3514990  88.4729997  79.9619992  66.6004990  87.9309997
  79.3596054  65.9753262  87.8726311  90.5969992  69.3014990  84.4579997
  90.1559992  68.5814990  84.9079997  90.5839992  70.0224990  85.0879997
  90.5348398  69.3003187  84.6047734  80.1829992  70.4264990  86.2839997
  79.8129992  69.6244990  85.9149997  81.1239992  70.2584990  86.3309997
  80.2595630  70.2938680  86.2397873  76.7929992  64.0864990  81.6769997
  76.3449992  64.9324990  81.6589997  76.2319992  63.5074990  81.1619997
  76.6558546  64.1239004  81.6048874  77.5029992  66.2484990  83.8029997
  77.7169992  65.4784990  84.3299997  78.2409992  66.3384990  83.1999997
  77.6320073  66.1553546  83.7935786  87.7079992  74.4054990  84.6699997
  88.3279992  73.7294990  84.3969997  87.4999992  74.1874990  85.5779997
  87.7647360  74.2834792  84.7554387  85.2799992  68.7944990  86.5619997
  85.5839992  68.1084990  85.9679997  86.0019992  68.9134990  87.1799997
  85.4191152  68.7167201  86.5642106  93.9429992  60.3964990  87.4229997
  93.9919992  61.0064990  88.1589997  94.3689992  60.8574990  86.6999997
  94.0072851  60.5423266  87.4260532  88.4209992  63.1884990  86.8899997
  88.5629992  62.2424990  86.9099997  88.3149992  63.3954990  85.9609997
  88.4261158  63.0869722  86.7672241  81.5759992  61.2904990  84.1619997
  81.6189992  62.1504990  83.7439997  81.1179992  60.7374990  83.5289997
  81.5199613  61.3335689  84.0191276  89.2979992  61.4214990  82.5629997
  89.9439992  61.0924990  83.1879997  89.8079992  61.9384990  81.9399997
  89.4554392  61.4463710  82.5643248  78.1959992  63.6874990  84.9239997
  78.8499992  63.1374990  85.3559997  78.2199992  63.4134990  84.0079997
  78.2887022  63.5752005  84.8591698  83.3519992  65.2374990  84.1399997
  83.9679992  64.7104990  84.6489997  82.7659992  64.5974990  83.7359997
  83.3570652  65.0788919  84.1550277  94.3349992  61.8744990  89.6589997
  93.6459992  62.5324990  89.5639997  94.3499992  61.6764990  90.5959997
  94.2427756  61.9377614  89.7725795  80.3859992  60.2084990  88.2359997
  80.1669992  60.7384990  87.4699997  79.7179992  60.4344990  88.8839997
  80.2657271  60.3116508  88.2186206  87.7549992  69.7084990  81.7799997
  87.4589992  69.3854990  80.9289997  87.4309992  70.6084990  81.8219997
  87.6706501  69.7859058  81.6690893  82.9549992  67.8834990  88.5239997
  82.2149992  68.4824990  88.6269997  83.6689992  68.4374990  88.2079997
  82.9503288  68.0402368  88.4953787  91.0619992  60.7124990  84.5439997
  90.8469992  59.9464990  85.0759997  91.7179992  61.1844990  85.0569997
  91.1212451  60.6714472  84.6861699  79.9799992  62.1004990  86.1889997
  80.5929992  62.7334990  86.5619997  80.4919992  61.6284990  85.5319997
  80.1331680  62.1234006  86.1512830  81.3619992  69.8484990  89.3109997
  81.3569992  70.7274990  88.9329997  80.5089992  69.7644990  89.7359997
  81.2459199  69.9575901  89.3166942  77.4839992  69.5194990  80.0929997
  77.2119992  69.7484990  79.2039997  77.5289992  70.3564990  80.5529997
  77.4528709  69.6641069  80.0336089  91.1089992  71.1404990  86.8059997
  90.1669992  71.1994990  86.9669997  91.3849992  72.0464990  86.6689997
  91.0175771  71.2710270  86.8094827  91.4089992  59.4274990  88.2229997
  90.6729992  60.0374990  88.1849997  92.0929992  59.8424990  87.6969997
  91.4005885  59.5671924  88.1466931  84.4119992  57.5134990  85.6889997
  84.2949992  56.5654990  85.6349997  83.5569992  57.8464990  85.9619997
  84.2803691  57.4285842  85.7185072  89.3609992  72.9214990  83.4309997
  89.7859992  72.2144990  82.9459997  89.6779992  73.7234990  83.0139997
  89.4620266  72.9330201  83.3082461  90.5199992  70.8224990  81.9399997
  90.2629992  70.1324990  81.3279997  90.5909992  70.3794990  82.7849997
  90.4944322  70.6681568  81.9705372  92.2059992  69.3894990  90.4169997
  92.3459992  68.7974990  89.6779997  92.3739992  70.2624990  90.0609997
  92.2478734  69.4264041  90.2676937  86.6789992  66.3514990  80.1889997
  85.9669992  66.8864990  79.8379997  87.3699992  66.4064990  79.5289997
  86.6748696  66.4322591  80.0516372  94.0479992  65.7294990  88.4829997
  93.3959992  66.4234990  88.5719997  94.5129992  65.9394990  87.6729997
  94.0215357  65.8529544  88.3857056  90.0849992  66.5604990  81.1409997
  89.3529992  66.7894990  81.7139997  90.5319992  65.8474990  81.5959997
  90.0452753  66.4953984  81.2809698  89.9819992  64.7354990  90.2089997
  90.0619992  65.4984990  90.7809997  89.3809992  65.0144990  89.5179997
  89.9117115  64.8777707  90.1939631  81.7299992  67.1914990  83.0239997
  81.3999992  66.8204990  82.2049997  82.3179992  66.5204990  83.3699997
  81.7644056  67.0501257  82.9589035  83.0969992  70.6194990  85.7049997
  83.0019992  70.0404990  84.9479997  83.8259992  70.2484990  86.2009997
  83.1826161  70.4900902  85.6685192  82.0969992  65.9594990  86.6569997
  82.6619992  66.0814990  85.8939997  82.4149992  66.5974990  87.2959997
  82.2173430  66.0624448  86.6389094  88.4059992  71.4634990  87.3909997
  88.1649992  72.1254990  88.0389997  88.2079992  70.6284990  87.8159997
  88.3462662  71.4412704  87.5371008  82.9769992  70.3594990  91.3739997
  82.6649992  71.1414990  91.8299997  82.3269992  70.2064990  90.6879997
  82.8464643  70.4458019  91.3436657  88.9559992  65.7234990  78.8259997
  89.5349992  65.8734990  79.5729997  89.3699992  66.1934990  78.1029997
  89.0913122  65.8076288  78.8305024  79.8969992  66.5574990  90.6029997
  79.9669992  67.2084990  91.3009997  79.0059992  66.6604990  90.2679997
  79.7861802  66.6604769  90.6532231  81.2159992  72.4304990  92.1379997
  81.2239992  72.2944990  91.1899997  80.2999992  72.3134990  92.3899997
  81.0932512  72.3960663  92.0423179  92.6539992  57.4734990  78.6389997
  91.7539992  57.6114990  78.9339997  92.9059992  58.3044990  78.2369997
  92.5647355  57.6048200  78.6250539  80.7199992  66.2604990  80.6129997
  80.4279992  67.0284990  80.1219997  80.0459992  65.6014990  80.4499997
  80.5888843  66.2764537  80.5237695  76.8129992  68.6234990  89.4279997
  76.3119992  68.5954990  88.6129997  76.8189992  67.7184990  89.7379997
  76.7451690  68.4972234  89.3582770  76.5639992  71.4044990  86.3119997
  77.5099992  71.2594990  86.2929997  76.4509992  72.1884990  86.8489997
  76.6783578  71.4906708  86.3820300  94.7609992  72.0704990  91.9939997
  94.7119992  71.1144990  91.9569997  93.9349992  72.3374990  92.3959997
  94.6425767  71.9758841  92.0433133  85.7399992  71.6444990  90.8699997
  85.8269992  72.4704990  91.3449997  84.8759992  71.3144990  91.1189997
  85.6351944  71.7129871  90.9686558  91.9129992  63.5634990  92.4739997
  91.5059992  64.0434990  91.7539997  91.9539992  62.6574990  92.1669997
  91.8627178  63.5068609  92.3337441  79.0619992  69.9474990  90.4709997
  79.2779992  69.5854990  91.3309997  78.2069992  69.5724990  90.2609997
  78.9759349  69.8472914  90.5602134  81.6809992  58.4174990  86.4669997
  80.8189992  58.3304990  86.0589997  81.6589992  59.2734990  86.8939997
  81.5600953  58.5213558  86.4689262  86.3439992  58.1394990  89.8409997
  86.7639992  57.7244990  90.5939997  85.4109992  57.9604990  89.9579997
  86.2753736  58.0584921  89.9598950  89.6699992  61.8944990  90.6949997
  89.1559992  61.7694990  91.4919997  89.5149992  62.8074990  90.4499997
  89.5786643  62.0007068  90.7710624  81.7719992  63.3824990  87.5619997
  81.1299992  63.3424990  88.2709997  81.8089992  64.3094990  87.3239997
  81.6891659  63.5022540  87.6268463  81.7689992  63.6034990  82.4739997
  80.8759992  63.2634990  82.4149997  82.2199992  63.2264990  81.7179997
  81.7077185  63.5060220  82.3637698  87.3049992  64.0194990  81.2909997
  86.8959992  64.8344990  80.9989997  88.0249992  63.8794990  80.6759997
  87.3463946  64.1119963  81.1679616  86.4069992  64.1954990  92.7789997
  85.8439992  63.4904990  93.0989997  87.2329992  64.0744990  93.2459997
  86.4416423  64.0825614  92.8860168  88.3089992  63.4654990  84.1049997
  88.1139992  64.0714990  83.3899997  88.4909992  62.6324990  83.6699997
  88.3069272  63.4357955  83.9484075  79.5219992  63.7034990  89.4289997
  79.4839992  64.1034990  90.2969997  79.0309992  62.8864990  89.5189997
  79.4504246  63.6478842  89.5601171  82.8879992  61.0774990  76.2269997
  82.4569992  60.6324990  76.9569997  82.1699992  61.4484990  75.7149997
  82.7319363  61.0667979  76.2576194  76.1299992  60.8194990  83.2789997
  76.7609992  60.7904990  83.9989997  76.5799992  60.3944990  82.5489997
  76.2770905  60.7580839  83.2787479  87.5729992  65.1034990  88.7759997
  87.8969992  64.4724990  88.1329997  87.1329992  64.5694990  89.4369997
  87.5578707  64.9448261  88.7773195  84.3509992  61.0314990  83.5599997
  83.4399992  61.0884990  83.8489997  84.8559992  60.9714990  84.3709997
  84.2946873  61.0311838  83.7091190  79.1789992  62.6604990  82.3869997
  78.2899992  62.7594990  82.0469997  79.4749992  61.8184990  82.0409997
  79.0974001  62.5602473  82.2937318  82.8319992  62.6604990  80.0429997
  83.7639992  62.7894990  80.2209997  82.6169992  63.3294990  79.3939997
  82.9304245  62.7686452  79.9795602  88.7559992  60.2664990  86.8239997
  88.0789992  60.3974990  87.4879997  88.2699992  60.1114990  86.0139997
  88.5977265  60.2634665  86.8053380  92.0429992  75.9374990  93.1009997
  92.2429992  76.3614990  92.2659997  92.6989992  76.2814990  93.7079997
  92.1589916  76.0419784  93.0687890  79.6409992  68.4114990  92.7089997
  80.3729992  68.6664990  93.2699997  78.8609992  68.6164990  93.2239997
  79.6357684  68.4741457  92.8554774  85.6709992  63.8184990  85.4469997
  86.2349992  63.2724990  84.8999997  85.5229992  63.2974990  86.2359997
  85.7283037  63.6731798  85.4787212  80.6729992  59.9554990  81.8649997
  80.3549992  59.0524990  81.8299997  81.4539992  59.9574990  81.3129997
  80.7351560  59.8321148  81.7854975  84.2969992  62.2074990  87.8609997
  83.4619992  62.6614990  87.9709997  84.8209992  62.4834990  88.6129997
  84.2535070  62.3069677  87.9777134  91.9909992  67.5534990  88.3319997
  92.6329992  68.0094990  87.7889997  91.1609992  67.6664990  87.8699997
  91.9667352  67.6313223  88.1950234  86.3609992  68.6044990  90.7829997
  86.0149992  68.2224990  91.5889997  86.1609992  69.5374990  90.8539997
  86.2865400  68.6783489  90.9030401  89.4569992  63.1014990  79.4059997
  90.3489992  62.9634990  79.7249997  89.5139992  63.8924990  78.8689997
  89.5867380  63.1894777  79.3770981  79.9659992  67.7154990  85.3149997
  80.7109992  67.7124990  84.7139997  80.0439992  66.8914990  85.7969997
  80.0784158  67.6037928  85.2979136  76.9739992  66.1754990  90.6299997
  77.1969992  65.7574990  91.4619997  76.3719992  65.5634990  90.2079997
  76.9230802  66.0355216  90.6867561  83.9909992  65.6924990  92.8429997
  83.6949992  65.5274990  91.9479997  84.9219992  65.4724990  92.8329997
  84.0763909  65.6401274  92.7190110  88.6109992  71.0664990  90.7329997
  87.7099992  71.2494990  90.4649997  88.6449992  71.3254990  91.6539997
  88.4923021  71.1265505  90.8208206  94.3419992  63.3104990  79.0999997
  93.7879992  62.9144990  78.4279997  94.4429992  64.2214990  78.8229997
  94.2797084  63.3793565  78.9704381  94.3049992  69.1114990  91.9369997
  93.4539992  69.3494990  91.5699997  94.8959992  69.0944990  91.1839997
  94.2682468  69.1418251  91.7848902  89.7979992  66.9044990  86.5869997
  88.8699992  66.6734990  86.5599997  90.2489992  66.1274990  86.2569997
  89.7318165  66.7677785  86.5386772  82.3409992  71.2334990  82.7199997
  82.8679992  72.0064990  82.5189997  81.4609992  71.4574990  82.4179997
  82.2941793  71.3696652  82.6516304  78.0959992  66.0954990  77.3069997
  78.7119992  66.7224990  77.6859997  77.2339992  66.4114990  77.5779997
  78.0638195  66.2240810  77.3955369  83.7679992  68.8964990  82.2959997
  83.5269992  69.8214990  82.3379997  83.0279992  68.4374990  82.6919997
  83.6348934  68.9610881  82.3553191  84.2829992  73.0454990  88.6109997
  84.6459992  73.8994990  88.3779997  84.8149992  72.7534990  89.3519997
  84.4045141  73.1228907  88.6792079  87.8269992  69.1444990  88.3119997
  87.4009992  68.9164990  89.1379997  88.4079992  68.4054990  88.1289997
  87.8471587  69.0134084  88.4004111  90.4859992  73.6964990  90.7809997
  89.8839992  73.1404990  90.2859997  90.7669992  74.3634990  90.1549997
  90.4415757  73.7105755  90.6285657  78.6079992  60.9294990  90.1879997
  77.7149992  61.2674990  90.1209997  78.5089992  60.0734990  90.6059997
  78.4725241  60.8600941  90.2352982  90.8959992  68.7454990  79.6119997
  90.6189992  68.0174990  80.1679997  91.8229992  68.8644990  79.8179997
  90.9834181  68.6620068  79.7158972  78.2589992  72.7334990  88.6229997
  78.4759992  71.8014990  88.5919997  78.5059992  73.0084990  89.5069997
  78.3220543  72.6430877  88.7381412  79.5109992  68.0074990  78.7989997
  78.8249992  68.3604990  79.3659997  80.0339992  68.7704990  78.5529997
  79.4879033  68.1588757  78.8432644  87.3419992  60.6704990  89.0779997
  88.0409992  60.7444990  89.7279997  86.9619992  59.8054990  89.2329997
  87.3862095  60.5637402  89.1877982  88.1269992  60.3224990  80.1749997
  88.3469992  60.7934990  79.3719997  88.6849992  60.7164990  80.8459997
  88.2325851  60.4403272  80.1556134  85.3269992  62.0504990  81.0099997
  86.1389992  62.5544990  81.0559997  85.0819992  61.9054990  81.9239997
  85.4051091  62.0999366  81.1398552  85.8629992  63.0364990  90.1949997
  85.9819992  63.6104990  90.9519997  86.5179992  62.3484990  90.3099997
  85.9678684  63.0220205  90.3141656  86.2109992  59.1314990  81.9479997
  85.8639992  59.7484990  82.5929997  86.8689992  59.6324990  81.4669997
  86.2525290  59.2836384  81.9711635  81.8679992  60.1944990  78.6359997
  81.7849992  61.0824990  78.9819997  82.7579992  59.9294990  78.8669997
  81.9769751  60.2802482  78.7146066  92.0669992  60.9434990  91.0299997
  91.1509992  61.2054990  90.9419997  92.4029992  60.9404990  90.1329997
  91.9869789  60.9789637  90.8967829  90.6689992  64.6934990  85.1259997
  89.8719992  64.2784990  84.7969997  91.1139992  64.0034990  85.6169997
  90.6200317  64.5433197  85.1473557  91.7559992  73.9494990  86.7479997
  91.5999992  74.6284990  86.0909997  92.6879992  74.0214990  86.9509997
  91.8607328  74.0521586  86.6855529  79.2509992  58.0674990  85.4849997
  79.0219992  58.1264990  84.5579997  78.8079992  57.2764990  85.7919997
  79.1597387  57.9686412  85.3995223  77.4699992  74.6204990  92.9759997
  78.0099992  74.4044990  93.7349997  76.9879992  73.8154990  92.7859997
  77.4789101  74.4820216  93.0544364  82.0669992  73.5404990  94.5959997
  82.8349992  73.0814990  94.9369997  82.0459992  73.3144990  93.6659997
  82.1692135  73.4471680  94.5169473  88.6439992  71.9204990  93.3249997
  88.2929992  71.0634990  93.5679997  89.3699992  72.0624990  93.9319997
  88.6941590  71.8225189  93.4402889  77.3769992  68.4314990  93.9299997
  77.5209992  67.5294990  93.6439997  76.6039992  68.7174990  93.4419997
  77.2922854  68.3466876  93.8249363  84.0319992  68.4004990  93.3629997
  83.7039992  68.6714990  92.5049997  84.1839992  67.4594990  93.2749997
  84.0076970  68.3103694  93.2337953  89.7669992  68.3164990  90.7459997
  90.5119992  68.9054990  90.6259997  89.0089992  68.8984990  90.8089997
  89.7665185  68.4757000  90.7380940  78.2089992  65.6314990  93.3499997
  78.6169992  64.7744990  93.2289997  77.9489992  65.6454990  94.2709997
  78.2297082  65.5160596  93.4579469  82.1559992  64.6404990  90.7239997
  81.5379992  65.3144990  91.0049997  82.4999992  64.9614990  89.8909997
  82.1178181  64.7763233  90.6498266  87.1759992  67.1114990  94.0019997
  88.1289992  67.1954990  93.9739997  87.0159992  66.3994990  94.6209997
  87.2848161  67.0267198  94.0818689  82.4959992  61.9954990  91.8069997
  82.6459992  61.2664990  91.2039997  82.4979992  62.7724990  91.2479997
  82.5167664  62.0008971  91.6490525  82.9079992  60.3644990  89.2989997
  83.4439992  60.8164990  88.6469997  82.0559992  60.2564990  88.8769997
  82.8661648  60.4117883  89.1526395  84.4899992  65.8044990  89.5389997
  85.2409992  65.6484990  88.9659997  84.1509992  66.6564990  89.2629997
  84.5469052  65.8982745  89.4233469  88.9059992  63.6194990  94.5669997
  89.0979992  62.6884990  94.4559997  89.7629992  64.0444990  94.5569997
  89.0482320  63.5494743  94.5504433  90.2219992  66.4084990  92.6449997
  89.9409992  67.1174990  92.0669997  91.1649992  66.3354990  92.4939997
  90.3109272  66.4956704  92.5454976  80.9739992  63.1934990  93.7179997
  80.2069992  62.6604990  93.5079997  81.6529992  62.8834990  93.1189997
  80.9608292  63.0786360  93.6082693  83.7139992  57.8214990  89.7309997
  83.6159992  58.7674990  89.6249997  82.9709992  57.4484990  89.2549997
  83.6002363  57.9005987  89.6522029  84.9779992  62.1424990  93.2939997
  84.7419992  61.9234990  94.1959997  84.1949992  61.9354990  92.7849997
  84.8398444  62.0845688  93.3484518  87.6939992  61.2704990  92.3699997
  86.7459992  61.3024990  92.5019997  88.0059992  60.6444990  93.0239997
  87.6065293  61.1902934  92.4764130  89.3279992  59.9044990  94.3749997
  89.2309992  58.9524990  94.3689997  89.0059992  60.1724990  95.2359997
  89.2712229  59.8104706  94.4905108  79.1549992  61.1134990  93.4229997
  79.3659992  60.4074990  92.8119997  79.0429992  60.6764990  94.2669997
  79.1687674  60.9576376  93.4534199  83.9359992  57.1154990  92.4019997
  84.6469992  56.4754990  92.3879997  83.8349992  57.3814990  91.4879997
  84.0196732  57.0638451  92.2765475  84.2889992  58.7974990  94.4559997
  84.1579992  58.3224990  93.6349997  83.6899992  59.5424990  94.3999997
  84.1901524  58.8331968  94.3361553  94.4719992  74.6004990  86.9769997
  94.4499992  74.7854990  87.9159997  95.1619992  75.1684990  86.6359997
  94.5623439  74.7026898  87.0594774  94.0349992  74.1674990  89.8989997
  93.5479992  73.4314990  89.5279997  94.5839992  73.7734990  90.5769997
  94.0426101  74.0136267  89.9399034  92.4859992  69.9574990  94.5369997
  91.6199992  69.8524990  94.9309997  92.8619992  70.7154990  94.9839997
  92.4183768  70.0456151  94.6513258  93.7869992  68.2134990  80.0509997
  94.6369992  68.6344990  80.1789997  93.7919992  67.4734990  80.6589997
  93.9039745  68.1711347  80.1506479  94.1809992  66.2674990  81.8749997
  93.4549992  65.7874990  82.2729997  94.7619992  66.4724990  82.6069997
  94.1602504  66.2295592  82.0284199  93.9399992  69.0524990  86.8229997
  94.7739992  68.6744990  86.5419997  94.0519992  69.9954990  86.7039997
  94.0691917  69.1282954  86.7684844  92.4259992  71.9304990  89.1299997
  91.7789992  72.2554990  89.7549997  91.9089992  71.4894990  88.4549997
  92.2674068  71.9154726  89.1244918  91.9679992  64.7884990  82.4379997
  91.8179992  63.8434990  82.4179997  91.6139992  65.0694990  83.2819997
  91.8996351  64.6971656  82.5493202  77.0029992  66.8664990  86.4479997
  77.1869992  66.7844990  85.5129997  77.8519992  66.7424990  86.8719997
  77.1430259  66.8384915  86.3771771  92.8239992  66.7584990  92.0769997
  93.4069992  66.0234990  92.2679997  93.3879992  67.5304990  92.1229997
  92.9800326  66.7622746  92.1093579  94.3209992  64.6614990  92.7609997
  93.4569992  64.2824990  92.5959997  94.9249992  63.9224990  92.6869997
  94.2844912  64.5097937  92.7284360  91.6779992  62.3704990  80.8999997
  91.9579992  61.4634990  81.0249997  92.4369992  62.8044990  80.5109997
  91.8189471  62.3050654  80.8645052  92.2899992  62.9524990  86.3359997
  93.2229992  63.1644990  86.3019997  92.0549992  63.0534990  87.2589997
  92.3858357  62.9951303  86.4560232  92.3189992  63.6894990  89.1119997
  91.4759992  63.9574990  89.4779997  92.7619992  64.5114990  88.9009997
  92.2634358  63.8373294  89.1335999  76.5999992  62.1364990  92.5889997
  77.5199992  62.0144990  92.8249997  76.1509992  61.3864990  92.9779997
  76.6651561  62.0183720  92.6739015  94.6019992  57.6694990  94.4659997
  94.9519992  57.0154990  93.8599997  94.7489992  58.5064990  94.0259997
  94.6697192  57.6932545  94.3236712  92.2919992  59.6334990  80.9489997
  92.4739992  59.1844990  81.7739997  91.6919992  59.0494990  80.4849997
  92.2358187  59.4930563  80.9992721  77.8219992  60.4494990  85.4799997
  78.2669992  59.6574990  85.7819997  78.2879992  61.1654990  85.9109997
  77.9459059  60.4379485  85.5796061  76.1259992  63.4484990  86.5489997
  76.6179992  63.2274990  85.7589997  76.4879992  64.2884990  86.8299997
  76.2423429  63.5318220  86.4787918  94.1219992  59.7784990  92.8149997
  93.2049992  60.0494990  92.7789997  94.2449992  59.2434990  92.0309997
  94.0130828  59.7432711  92.7040767  76.4389992  59.7064990  80.6039997
  75.5139992  59.9144990  80.4739997  76.8929992  60.1904990  79.9139997
  76.3737401  59.8003895  80.4929433  91.2099992  74.6904990  82.5489997
  91.8619992  74.3424990  81.9409997  91.7209992  75.1784990  83.1949997
  91.3682872  74.7088248  82.5530964  76.4029992  58.4444990  88.9479997
  75.7379992  58.1984990  89.5909997  75.9599992  59.0664990  88.3709997
  76.2521168  58.4949225  88.9579830  78.5949992  71.6194990  93.0919997
  77.7739992  71.7944990  92.6319997  78.3429992  71.5464990  94.0129997
  78.4486173  71.6335806  93.1534954  81.5489992  72.5934990  89.3509997
  81.1239992  73.4034990  89.0679997  82.4529992  72.6794990  89.0489997
  81.6131002  72.7158728  89.2714798  85.8599992  73.9924990  92.3099997
  86.0449992  73.6594990  93.1879997  86.7069992  74.3024990  91.9879997
  85.9997291  73.9888214  92.3866140  88.2049992  75.2784990  91.5539997
  88.8819992  74.6454990  91.3139997  88.5269992  75.6794990  92.3619997
  88.3411280  75.2460638  91.6303190  93.1229992  57.8684990  90.6339997
  92.3099992  58.1934990  90.2459997  93.3559992  57.1074990  90.1009997
  93.0432566  57.8101570  90.5089196  78.9509992  75.8504990  89.3979997
  78.2299992  76.2904990  88.9469997  78.5849992  75.5994990  90.2469997
  78.8029785  75.8767691  89.4509849  81.4179992  75.4504990  88.4279997
  80.5529992  75.5224990  88.8319997  81.3629992  75.9974990  87.6439997
  81.2922066  75.5342678  88.3773371  86.1289992  75.3384990  87.6039997
  85.6719992  75.8674990  86.9499997  86.2909992  75.9414990  88.3289997
  86.0883919  75.4923990  87.6125740  88.4559992  74.2164990  88.5489997
  87.5519992  74.3814990  88.2829997  88.8849992  75.0694990  88.4829997
  88.3902017  74.3544184  88.5036495  91.0599992  75.7864990  88.8439997
  90.8789992  76.7024990  88.6329997  91.2369992  75.3754990  87.9969997
  91.0591377  75.8563365  88.7007178  78.3659992  74.4734990  86.3089997
  78.3469992  74.0474990  87.1659997  79.1699992  74.1544990  85.8999997
  78.4721393  74.3720297  86.3710155  80.5069992  73.1834990  84.9639997
  80.2879992  72.2664990  85.1329997  81.3309992  73.3234990  85.4299997
  80.5884637  73.0769586  85.0501414  83.0439992  73.6534990  85.8119997
  83.2569992  72.7654990  85.5249997  83.1089992  73.6184990  86.7669997
  83.0819075  73.5273318  85.9017355  86.5529992  59.3174990  84.9569997
  85.8779992  58.6874990  85.2119997  87.1169992  58.8334990  84.3539997
  86.5369558  59.1659283  84.9103451  91.6949992  57.4244990  85.0689997
  92.2989992  57.9724990  84.5679997  90.8259992  57.7434990  84.8289997
  91.6601126  57.5427070  84.9679180  93.4219992  58.5634990  83.4029997
  94.0339992  58.0494990  82.8759997  93.8049992  59.4404990  83.4259997
  93.5573867  58.6117613  83.3340888  78.8789992  57.9514990  82.7789997
  78.1019992  57.7164990  82.2709997  79.4099992  57.1544990  82.7879997
  78.8444443  57.8116721  82.7107200  77.7159992  57.7494990  78.5819997
  78.1549992  58.3604990  77.9909997  77.0819992  58.2874990  79.0559997
  77.6904103  57.9059233  78.5651376  83.4589992  57.8774990  82.5919997
  84.3329992  58.2664990  82.5619997  83.3229992  57.6624990  83.5149997
  83.5603125  57.9017120  82.7126523  89.0149992  57.9074990  84.2409997
  89.0919992  58.0034990  83.2919997  88.7399992  57.0004990  84.3699997
  88.9883407  57.7979188  84.1283532  90.3689992  57.9334990  79.9339997
  89.6659992  58.5484990  79.7239997  89.9239992  57.0964990  80.0649997
  90.2126550  57.9044679  79.9229819  79.5769992  59.6654990  77.0249997
  80.0679992  59.0354990  76.4969997  80.1999992  59.9614990  77.6879997
  79.7285459  59.6192419  77.0423667  84.6029992  59.9584990  79.4819997
  84.7809992  59.3114990  80.1649997  84.5489992  60.7924990  79.9489997
  84.6200678  59.9826615  79.6386283  78.8369992  58.4654990  92.2959997
  78.4709992  57.6994990  92.7389997  79.7499992  58.4944990  92.5829997
  78.9103225  58.3646917  92.3953441  80.8099992  57.8154990  93.8319997
  81.7089992  57.5414990  93.6469997  80.4239992  57.0734990  94.2959997
  80.8807237  57.6776520  93.8694693  89.2309992  57.1484990  94.0139997
  89.3079992  56.7224990  94.8679997  90.1249992  57.1614990  93.6719997
  89.3623315  57.0920320  94.0845052  92.4079992  73.2204990  92.7069997
  91.6259992  73.0344990  92.1869997  92.3359992  74.1504990  92.9239997
  92.2912975  73.3206973  92.6651822 106.8139992  67.1074990  82.7369997
 106.9029992  68.0514990  82.6049997 106.1749992  66.8324990  82.0789997
 106.7398319  67.1994984  82.6300276 105.7469992  66.3624990  86.1559997
 105.7079992  65.7164990  86.8609997 105.4239992  65.8954990  85.3849997
 105.6980199  66.2110089  86.1482865  98.1149992  65.9764990  87.7489997
  98.1559992  65.3514990  88.4729997  98.8179992  66.6004990  87.9309997
  98.2156054  65.9753262  87.8726311 109.4529992  69.3014990  84.4579997
 109.0119992  68.5814990  84.9079997 109.4399992  70.0224990  85.0879997
 109.3908398  69.3003187  84.6047734  99.0389992  70.4264990  86.2839997
  98.6689992  69.6244990  85.9149997  99.9799992  70.2584990  86.3309997
  99.1155630  70.2938680  86.2397873  95.6489992  64.0864990  81.6769997
  95.2009992  64.9324990  81.6589997  95.0879992  63.5074990  81.1619997
  95.5118546  64.1239004  81.6048874  96.3589992  66.2484990  83.8029997
  96.5729992  65.4784990  84.3299997  97.0969992  66.3384990  83.1999997
  96.4880073  66.1553546  83.7935786 106.5639992  74.4054990  84.6699997
 107.1839992  73.7294990  84.3969997 106.3559992  74.1874990  85.5779997
 106.6207360  74.2834792  84.7554387 104.1359992  68.7944990  86.5619997
 104.4399992  68.1084990  85.9679997 104.8579992  68.9134990  87.1799997
 104.2751152  68.7167201  86.5642106 112.7989992  60.3964990  87.4229997
 112.8479992  61.0064990  88.1589997 113.2249992  60.8574990  86.6999997
 112.8632851  60.5423266  87.4260532 107.2769992  63.1884990  86.8899997
 107.4189992  62.2424990  86.9099997 107.1709992  63.3954990  85.9609997
 107.2821158  63.0869722  86.7672241 100.4319992  61.2904990  84.1619997
 100.4749992  62.1504990  83.7439997  99.9739992  60.7374990  83.5289997
 100.3759613  61.3335689  84.0191276 108.1539992  61.4214990  82.5629997
 108.7999992  61.0924990  83.1879997 108.6639992  61.9384990  81.9399997
 108.3114392  61.4463710  82.5643248  97.0519992  63.6874990  84.9239997
  97.7059992  63.1374990  85.3559997  97.0759992  63.4134990  84.0079997
  97.1447022  63.5752005  84.8591698 102.2079992  65.2374990  84.1399997
 102.8239992  64.7104990  84.6489997 101.6219992  64.5974990  83.7359997
 102.2130652  65.0788919  84.1550277 113.1909992  61.8744990  89.6589997
 112.5019992  62.5324990  89.5639997 113.2059992  61.6764990  90.5959997
 113.0987756  61.9377614  89.7725795  99.2419992  60.2084990  88.2359997
  99.0229992  60.7384990  87.4699997  98.5739992  60.4344990  88.8839997
  99.1217271  60.3116508  88.2186206 106.6109992  69.7084990  81.7799997
 106.3149992  69.3854990  80.9289997 106.2869992  70.6084990  81.8219997
 106.5266501  69.7859058  81.6690893 101.8109992  67.8834990  88.5239997
 101.0709992  68.4824990  88.6269997 102.5249992  68.4374990  88.2079997
 101.8063288  68.0402368  88.4953787 109.9179992  60.7124990  84.5439997
 109.7029992  59.9464990  85.0759997 110.5739992  61.1844990  85.0569997
 109.9772451  60.6714472  84.6861699  98.8359992  62.1004990  86.1889997
  99.4489992  62.7334990  86.5619997  99.3479992  61.6284990  85.5319997
  98.9891680  62.1234006  86.1512830 100.2179992  69.8484990  89.3109997
 100.2129992  70.7274990  88.9329997  99.3649992  69.7644990  89.7359997
 100.1019199  69.9575901  89.3166942  96.3399992  69.5194990  80.0929997
  96.0679992  69.7484990  79.2039997  96.3849992  70.3564990  80.5529997
  96.3088709  69.6641069  80.0336089 109.9649992  71.1404990  86.8059997
 109.0229992  71.1994990  86.9669997 110.2409992  72.0464990  86.6689997
 109.8735771  71.2710270  86.8094827 110.2649992  59.4274990  88.2229997
 109.5289992  60.0374990  88.1849997 110.9489992  59.8424990  87.6969997
 110.2565885  59.5671924  88.1466931 103.2679992  57.5134990  85.6889997
 103.1509992  56.5654990  85.6349997 102.4129992  57.8464990  85.9619997
 103.1363691  57.4285842  85.7185072 108.2169992  72.9214990  83.4309997
 108.6419992  72.2144990  82.9459997 108.5339992  73.7234990  83.0139997
 108.3180266  72.9330201  83.3082461 109.3759992  70.8224990  81.9399997
 109.1189992  70.1324990  81.3279997 109.4469992  70.3794990  82.7849997
 109.3504322  70.6681568  81.9705372 111.0619992  69.3894990  90.4169997
 111.2019992  68.7974990  89.6779997 111.2299992  70.2624990  90.0609997
 111.1038734  69.4264041  90.2676937 105.5349992  66.3514990  80.1889997
 104.8229992  66.8864990  79.8379997 106.2259992  66.4064990  79.5289997
 105.5308696  66.4322591  80.0516372 112.9039992  65.7294990  88.4829997
 112.2519992  66.4234990  88.5719997 113.3689992  65.9394990  87.6729997
 112.8775357  65.8529544  88.3857056 108.9409992  66.5604990  81.1409997
 108.2089992  66.7894990  81.7139997 109.3879992  65.8474990  81.5959997
 108.9012753  66.4953984  81.2809698 108.8379992  64.7354990  90.2089997
 108.9179992  65.4984990  90.7809997 108.2369992  65.0144990  89.5179997
 108.7677115  64.8777707  90.1939631 100.5859992  67.1914990  83.0239997
 100.2559992  66.8204990  82.2049997 101.1739992  66.5204990  83.3699997
 100.6204056  67.0501257  82.9589035 101.9529992  70.6194990  85.7049997
 101.8579992  70.0404990  84.9479997 102.6819992  70.2484990  86.2009997
 102.0386161  70.4900902  85.6685192 100.9529992  65.9594990  86.6569997
 101.5179992  66.0814990  85.8939997 101.2709992  66.5974990  87.2959997
 101.0733430  66.0624448  86.6389094 107.2619992  71.4634990  87.3909997
 107.0209992  72.1254990  88.0389997 107.0639992  70.6284990  87.8159997
 107.2022662  71.4412704  87.5371008 101.8329992  70.3594990  91.3739997
 101.5209992  71.1414990  91.8299997 101.1829992  70.2064990  90.6879997
 101.7024643  70.4458019  91.3436657 107.8119992  65.7234990  78.8259997
 108.3909992  65.8734990  79.5729997 108.2259992  66.1934990  78.1029997
 107.9473122  65.8076288  78.8305024  98.7529992  66.5574990  90.6029997
  98.8229992  67.2084990  91.3009997  97.8619992  66.6604990  90.2679997
  98.6421802  66.6604769  90.6532231 105.5379992  72.4594990  82.2619997
 106.0119992  72.7554990  83.0389997 104.9749992  73.1984990  82.0279997
 105.5268460  72.5998336  82.3367626 100.0719992  72.4304990  92.1379997
 100.0799992  72.2944990  91.1899997  99.1559992  72.3134990  92.3899997
  99.9492512  72.3960663  92.0423179  99.5759992  66.2604990  80.6129997
  99.2839992  67.0284990  80.1219997  98.9019992  65.6014990  80.4499997
  99.4448843  66.2764537  80.5237695  95.6689992  68.6234990  89.4279997
  95.1679992  68.5954990  88.6129997  95.6749992  67.7184990  89.7379997
  95.6011690  68.4972234  89.3582770  95.4199992  71.4044990  86.3119997
  96.3659992  71.2594990  86.2929997  95.3069992  72.1884990  86.8489997
  95.5343578  71.4906708  86.3820300 113.6169992  72.0704990  91.9939997
 113.5679992  71.1144990  91.9569997 112.7909992  72.3374990  92.3959997
 113.4985767  71.9758841  92.0433133 104.5959992  71.6444990  90.8699997
 104.6829992  72.4704990  91.3449997 103.7319992  71.3144990  91.1189997
 104.4911944  71.7129871  90.9686558 105.0099992  75.4164990  80.6759997
 104.9349992  75.2954990  79.7299997 105.0429992  76.3654990  80.7949997
 105.0041862  75.5282492  80.5624840  98.6639992  74.2054990  82.4569997
  98.8159992  73.8574990  83.3359997  97.8129992  73.8484990  82.2019997
  98.5697899  74.1096749  82.5427322 108.1119992  74.5704990  77.6789997
 108.4869992  73.8264990  77.2079997 108.1159992  74.3004990  78.5969997
 108.1638969  74.4320920  77.7386475 107.7809992  74.4964990  80.4279997
 106.8459992  74.5964990  80.6069997 108.0609992  73.7864990  81.0059997
 107.6909270  74.4142300  80.5305984 110.7689992  63.5634990  92.4739997
 110.3619992  64.0434990  91.7539997 110.8099992  62.6574990  92.1669997
 110.7187178  63.5068609  92.3337441  97.9179992  69.9474990  90.4709997
  98.1339992  69.5854990  91.3309997  97.0629992  69.5724990  90.2609997
  97.8319349  69.8472914  90.5602134 100.5369992  58.4174990  86.4669997
  99.6749992  58.3304990  86.0589997 100.5149992  59.2734990  86.8939997
 100.4160953  58.5213558  86.4689262 105.1999992  58.1394990  89.8409997
 105.6199992  57.7244990  90.5939997 104.2669992  57.9604990  89.9579997
 105.1313736  58.0584921  89.9598950 108.5259992  61.8944990  90.6949997
 108.0119992  61.7694990  91.4919997 108.3709992  62.8074990  90.4499997
 108.4346643  62.0007068  90.7710624 100.6279992  63.3824990  87.5619997
  99.9859992  63.3424990  88.2709997 100.6649992  64.3094990  87.3239997
 100.5451659  63.5022540  87.6268463 100.6249992  63.6034990  82.4739997
  99.7319992  63.2634990  82.4149997 101.0759992  63.2264990  81.7179997
 100.5637185  63.5060220  82.3637698 106.1609992  64.0194990  81.2909997
 105.7519992  64.8344990  80.9989997 106.8809992  63.8794990  80.6759997
 106.2023946  64.1119963  81.1679616 105.2629992  64.1954990  92.7789997
 104.6999992  63.4904990  93.0989997 106.0889992  64.0744990  93.2459997
 105.2976423  64.0825614  92.8860168 107.1649992  63.4654990  84.1049997
 106.9699992  64.0714990  83.3899997 107.3469992  62.6324990  83.6699997
 107.1629272  63.4357955  83.9484075  98.3779992  63.7034990  89.4289997
  98.3399992  64.1034990  90.2969997  97.8869992  62.8864990  89.5189997
  98.3064246  63.6478842  89.5601171  94.9859992  60.8194990  83.2789997
  95.6169992  60.7904990  83.9989997  95.4359992  60.3944990  82.5489997
  95.1330905  60.7580839  83.2787479  96.2599992  61.5654990  78.7029997
  96.7349992  62.1564990  78.1179997  95.5429992  62.0954990  79.0499997
  96.2280406  61.7181011  78.6698495 106.4289992  65.1034990  88.7759997
 106.7529992  64.4724990  88.1329997 105.9889992  64.5694990  89.4369997
 106.4138707  64.9448261  88.7773195 103.2069992  61.0314990  83.5599997
 102.2959992  61.0884990  83.8489997 103.7119992  60.9714990  84.3709997
 103.1506873  61.0311838  83.7091190  98.0349992  62.6604990  82.3869997
  97.1459992  62.7594990  82.0469997  98.3309992  61.8184990  82.0409997
  97.9534001  62.5602473  82.2937318 101.6879992  62.6604990  80.0429997
 102.6199992  62.7894990  80.2209997 101.4729992  63.3294990  79.3939997
 101.7864245  62.7686452  79.9795602 107.6119992  60.2664990  86.8239997
 106.9349992  60.3974990  87.4879997 107.1259992  60.1114990  86.0139997
 107.4537265  60.2634665  86.8053380 110.8989992  75.9374990  93.1009997
 111.0989992  76.3614990  92.2659997 111.5549992  76.2814990  93.7079997
 111.0149916  76.0419784  93.0687890  98.4969992  68.4114990  92.7089997
  99.2289992  68.6664990  93.2699997  97.7169992  68.6164990  93.2239997
  98.4917684  68.4741457  92.8554774 104.5269992  63.8184990  85.4469997
 105.0909992  63.2724990  84.8999997 104.3789992  63.2974990  86.2359997
 104.5843037  63.6731798  85.4787212  99.5289992  59.9554990  81.8649997
  99.2109992  59.0524990  81.8299997 100.3099992  59.9574990  81.3129997
  99.5911560  59.8321148  81.7854975 103.1529992  62.2074990  87.8609997
 102.3179992  62.6614990  87.9709997 103.6769992  62.4834990  88.6129997
 103.1095070  62.3069677  87.9777134 110.8469992  67.5534990  88.3319997
 111.4889992  68.0094990  87.7889997 110.0169992  67.6664990  87.8699997
 110.8227352  67.6313223  88.1950234 107.5949992  61.2344990  77.7449997
 106.6559992  61.3454990  77.5939997 107.8919992  62.0904990  78.0509997
 107.5066371  61.3655327  77.7657362 105.2169992  68.6044990  90.7829997
 104.8709992  68.2224990  91.5889997 105.0169992  69.5374990  90.8539997
 105.1425399  68.6783489  90.9030401 108.3129992  63.1014990  79.4059997
 109.2049992  62.9634990  79.7249997 108.3699992  63.8924990  78.8689997
 108.4427380  63.1894777  79.3770981  98.8219992  67.7154990  85.3149997
  99.5669992  67.7124990  84.7139997  98.8999992  66.8914990  85.7969997
  98.9344158  67.6037928  85.2979136  95.8299992  66.1754990  90.6299997
  96.0529992  65.7574990  91.4619997  95.2279992  65.5634990  90.2079997
  95.7790802  66.0355216  90.6867561 102.8469992  65.6924990  92.8429997
 102.5509992  65.5274990  91.9479997 103.7779992  65.4724990  92.8329997
 102.9323909  65.6401274  92.7190110 107.4669992  71.0664990  90.7329997
 106.5659992  71.2494990  90.4649997 107.5009992  71.3254990  91.6539997
 107.3483021  71.1265505  90.8208206 113.1979992  63.3104990  79.0999997
 112.6439992  62.9144990  78.4279997 113.2989992  64.2214990  78.8229997
 113.1357084  63.3793565  78.9704381 113.1609992  69.1114990  91.9369997
 112.3099992  69.3494990  91.5699997 113.7519992  69.0944990  91.1839997
 113.1242468  69.1418251  91.7848902 111.4929992  72.0964990  79.5649997
 111.1209992  71.2714990  79.8749997 111.7709992  71.9134990  78.6679997
 111.4795997  71.9586160  79.4861551 108.6539992  66.9044990  86.5869997
 107.7259992  66.6734990  86.5599997 109.1049992  66.1274990  86.2569997
 108.5878165  66.7677785  86.5386772 101.1969992  71.2334990  82.7199997
 101.7239992  72.0064990  82.5189997 100.3169992  71.4574990  82.4179997
 101.1501793  71.3696652  82.6516304 102.6239992  68.8964990  82.2959997
 102.3829992  69.8214990  82.3379997 101.8839992  68.4374990  82.6919997
 102.4908934  68.9610881  82.3553191 103.1389992  73.0454990  88.6109997
 103.5019992  73.8994990  88.3779997 103.6709992  72.7534990  89.3519997
 103.2605141  73.1228907  88.6792079 101.3069992  73.9174990  81.8409997
 100.3579992  74.0234990  81.8929997 101.6589992  74.7384990  82.1859997
 101.2246214  74.0429361  81.8947317 106.6829992  69.1444990  88.3119997
 106.2569992  68.9164990  89.1379997 107.2639992  68.4054990  88.1289997
 106.7031587  69.0134084  88.4004111 109.3419992  73.6964990  90.7809997
 108.7399992  73.1404990  90.2859997 109.6229992  74.3634990  90.1549997
 109.2975757  73.7105755  90.6285657  97.4639992  60.9294990  90.1879997
  96.5709992  61.2674990  90.1209997  97.3649992  60.0734990  90.6059997
  97.3285241  60.8600941  90.2352982  97.1149992  72.7334990  88.6229997
  97.3319992  71.8014990  88.5919997  97.3619992  73.0084990  89.5069997
  97.1780543  72.6430877  88.7381412 106.1979992  60.6704990  89.0779997
 106.8969992  60.7444990  89.7279997 105.8179992  59.8054990  89.2329997
 106.2422095  60.5637402  89.1877982 106.9829992  60.3224990  80.1749997
 107.2029992  60.7934990  79.3719997 107.5409992  60.7164990  80.8459997
 107.0885851  60.4403272  80.1556134 104.1829992  62.0504990  81.0099997
 104.9949992  62.5544990  81.0559997 103.9379992  61.9054990  81.9239997
 104.2611091  62.0999366  81.1398552 104.7189992  63.0364990  90.1949997
 104.8379992  63.6104990  90.9519997 105.3739992  62.3484990  90.3099997
 104.8238684  63.0220205  90.3141656 105.0669992  59.1314990  81.9479997
 104.7199992  59.7484990  82.5929997 105.7249992  59.6324990  81.4669997
 105.1085290  59.2836384  81.9711635 101.9899992  73.4964990  79.0199997
 102.1509992  74.2964990  78.5189997 101.7929992  73.8034990  79.9049997
 101.9853919  73.6474140  79.0710988 110.9229992  60.9434990  91.0299997
 110.0069992  61.2054990  90.9419997 111.2589992  60.9404990  90.1329997
 110.8429789  60.9789637  90.8967829 109.5249992  64.6934990  85.1259997
 108.7279992  64.2784990  84.7969997 109.9699992  64.0034990  85.6169997
 109.4760317  64.5433197  85.1473556 110.6119992  73.9494990  86.7479997
 110.4559992  74.6284990  86.0909997 111.5439992  74.0214990  86.9509997
 110.7167328  74.0521586  86.6855529  98.1069992  58.0674990  85.4849997
  97.8779992  58.1264990  84.5579997  97.6639992  57.2764990  85.7919997
  98.0157387  57.9686412  85.3995223  97.0369992  72.0084990  81.6459997
  96.2049992  72.4804990  81.6729997  97.5829992  72.5184990  81.0469997
  96.9968710  72.1420317  81.5687570  96.3259992  74.6204990  92.9759997
  96.8659992  74.4044990  93.7349997  95.8439992  73.8154990  92.7859997
  96.3349101  74.4820216  93.0544364 100.9229992  73.5404990  94.5959997
 101.6909992  73.0814990  94.9369997 100.9019992  73.3144990  93.6659997
 101.0252135  73.4471680  94.5169473 107.4999992  71.9204990  93.3249997
 107.1489992  71.0634990  93.5679997 108.2259992  72.0624990  93.9319997
 107.5501590  71.8225189  93.4402889  96.2329992  68.4314990  93.9299997
  96.3769992  67.5294990  93.6439997  95.4599992  68.7174990  93.4419997
  96.1482854  68.3466876  93.8249363 102.8879992  68.4004990  93.3629997
 102.5599992  68.6714990  92.5049997 103.0399992  67.4594990  93.2749997
 102.8636970  68.3103694  93.2337953 108.6229992  68.3164990  90.7459997
 109.3679992  68.9054990  90.6259997 107.8649992  68.8984990  90.8089997
 108.6225185  68.4757000  90.7380940  97.0649992  65.6314990  93.3499997
  97.4729992  64.7744990  93.2289997  96.8049992  65.6454990  94.2709997
  97.0857082  65.5160596  93.4579469 101.7229992  66.7474990  78.3679997
 101.2639992  66.2634990  79.0539997 101.9779992  66.0784990  77.7319997
 101.6946178  66.5908511  78.3759785 101.0119992  64.6404990  90.7239997
 100.3939992  65.3144990  91.0049997 101.3559992  64.9614990  89.8909997
 100.9738181  64.7763233  90.6498266 106.0319992  67.1114990  94.0019997
 106.9849992  67.1954990  93.9739997 105.8719992  66.3994990  94.6209997
 106.1408161  67.0267198  94.0818689 101.3519992  61.9954990  91.8069997
 101.5019992  61.2664990  91.2039997 101.3539992  62.7724990  91.2479997
 101.3727664  62.0008971  91.6490525 101.7639992  60.3644990  89.2989997
 102.2999992  60.8164990  88.6469997 100.9119992  60.2564990  88.8769997
 101.7221648  60.4117883  89.1526395 103.3459992  65.8044990  89.5389997
 104.0969992  65.6484990  88.9659997 103.0069992  66.6564990  89.2629997
 103.4029052  65.8982745  89.4233469 107.7619992  63.6194990  94.5669997
 107.9539992  62.6884990  94.4559997 108.6189992  64.0444990  94.5569997
 107.9042320  63.5494743  94.5504433 109.0779992  66.4084990  92.6449997
 108.7969992  67.1174990  92.0669997 110.0209992  66.3354990  92.4939997
 109.1669272  66.4956704  92.5454976  99.8299992  63.1934990  93.7179997
  99.0629992  62.6604990  93.5079997 100.5089992  62.8834990  93.1189997
  99.8168292  63.0786360  93.6082693 102.5699992  57.8214990  89.7309997
 102.4719992  58.7674990  89.6249997 101.8269992  57.4484990  89.2549997
 102.4562363  57.9005987  89.6522029 103.8339992  62.1424990  93.2939997
 103.5979992  61.9234990  94.1959997 103.0509992  61.9354990  92.7849997
 103.6958444  62.0845688  93.3484518 106.5499992  61.2704990  92.3699997
 105.6019992  61.3024990  92.5019997 106.8619992  60.6444990  93.0239997
 106.4625293  61.1902934  92.4764130 108.1839992  59.9044990  94.3749997
 108.0869992  58.9524990  94.3689997 107.8619992  60.1724990  95.2359997
 108.1272229  59.8104706  94.4905108  98.0109992  61.1134990  93.4229997
  98.2219992  60.4074990  92.8119997  97.8989992  60.6764990  94.2669997
  98.0247674  60.9576376  93.4534199 102.7919992  57.1154990  92.4019997
 103.5029992  56.4754990  92.3879997 102.6909992  57.3814990  91.4879997
 102.8756732  57.0638451  92.2765475 103.1449992  58.7974990  94.4559997
 103.0139992  58.3224990  93.6349997 102.5459992  59.5424990  94.3999997
 103.0461524  58.8331968  94.3361553  94.9089992  75.7104990  82.1919997
  94.2619992  75.2484990  81.6589997  95.2639992  75.0384990  82.7749997
  94.8683861  75.5564707  82.1977939  95.7789992  73.7904990  83.9969997
  95.4449992  72.9104990  84.1689997  96.0009992  74.1364990  84.8609997
  95.7632677  73.7167366  84.1374252 113.3279992  74.6004990  86.9769997
 113.3059992  74.7854990  87.9159997 114.0179992  75.1684990  86.6359997
 113.4183439  74.7026898  87.0594774 112.8909992  74.1674990  89.8989997
 112.4039992  73.4314990  89.5279997 113.4399992  73.7734990  90.5769997
 112.8986101  74.0136267  89.9399034 111.3419992  69.9574990  94.5369997
 110.4759992  69.8524990  94.9309997 111.7179992  70.7154990  94.9839997
 111.2743768  70.0456151  94.6513258 112.6429992  68.2134990  80.0509997
 113.4929992  68.6344990  80.1789997 112.6479992  67.4734990  80.6589997
 112.7599745  68.1711347  80.1506479 113.0369992  66.2674990  81.8749997
 112.3109992  65.7874990  82.2729997 113.6179992  66.4724990  82.6069997
 113.0162504  66.2295592  82.0284199 112.7959992  69.0524990  86.8229997
 113.6299992  68.6744990  86.5419997 112.9079992  69.9954990  86.7039997
 112.9251917  69.1282954  86.7684844 111.2819992  71.9304990  89.1299997
 110.6349992  72.2554990  89.7549997 110.7649992  71.4894990  88.4549997
 111.1234068  71.9154726  89.1244918 113.3049992  66.1684990  78.2659997
 112.7839992  66.5244990  77.5469997 113.2719992  66.8434990  78.9439997
 113.2291525  66.3085273  78.2591408 111.6539992  63.4074990  76.8169997
 111.7509992  64.0744990  76.1369997 111.5139992  62.5924990  76.3349997
 111.6483428  63.3885667  76.6588311 110.8239992  64.7884990  82.4379997
 110.6739992  63.8434990  82.4179997 110.4699992  65.0694990  83.2819997
 110.7556351  64.6971656  82.5493202  95.8589992  66.8664990  86.4479997
  96.0429992  66.7844990  85.5129997  96.7079992  66.7424990  86.8719997
  95.9990259  66.8384915  86.3771771 111.6799992  66.7584990  92.0769997
 112.2629992  66.0234990  92.2679997 112.2439992  67.5304990  92.1229997
 111.8360326  66.7622746  92.1093579 113.1769992  64.6614990  92.7609997
 112.3129992  64.2824990  92.5959997 113.7809992  63.9224990  92.6869997
 113.1404912  64.5097937  92.7284360 110.9019992  60.8154990  75.9339997
 111.5119992  60.4444990  76.5709997 110.0649992  60.3944990  76.1299997
 110.8723704  60.7077942  76.0477077 110.5339992  62.3704990  80.8999997
 110.8139992  61.4634990  81.0249997 111.2929992  62.8044990  80.5109997
 110.6749471  62.3050654  80.8645052 111.1459992  62.9524990  86.3359997
 112.0789992  63.1644990  86.3019997 110.9109992  63.0534990  87.2589997
 111.2418357  62.9951303  86.4560232 111.1749992  63.6894990  89.1119997
 110.3319992  63.9574990  89.4779997 111.6179992  64.5114990  88.9009997
 111.1194358  63.8373294  89.1335999  95.4559992  62.1364990  92.5889997
  96.3759992  62.0144990  92.8249997  95.0069992  61.3864990  92.9779997
  95.5211561  62.0183720  92.6739015 113.4579992  57.6694990  94.4659997
 113.8079992  57.0154990  93.8599997 113.6049992  58.5064990  94.0259997
 113.5257192  57.6932545  94.3236712 111.1479992  59.6334990  80.9489997
 111.3299992  59.1844990  81.7739997 110.5479992  59.0494990  80.4849997
 111.0918187  59.4930563  80.9992721  96.6779992  60.4494990  85.4799997
  97.1229992  59.6574990  85.7819997  97.1439992  61.1654990  85.9109997
  96.8019059  60.4379485  85.5796061  94.9819992  63.4484990  86.5489997
  95.4739992  63.2274990  85.7589997  95.3439992  64.2884990  86.8299997
  95.0983428  63.5318220  86.4787918 112.9779992  59.7784990  92.8149997
 112.0609992  60.0494990  92.7789997 113.1009992  59.2434990  92.0309997
 112.8690828  59.7432711  92.7040767  95.2949992  59.7064990  80.6039997
  94.3699992  59.9144990  80.4739997  95.7489992  60.1904990  79.9139997
  95.2297401  59.8003895  80.4929433 110.0659992  74.6904990  82.5489997
 110.7179992  74.3424990  81.9409997 110.5769992  75.1784990  83.1949997
 110.2242872  74.7088248  82.5530964  95.2589992  58.4444990  88.9479997
  94.5939992  58.1984990  89.5909997  94.8159992  59.0664990  88.3709997
  95.1081168  58.4949225  88.9579830  97.4509992  71.6194990  93.0919997
  96.6299992  71.7944990  92.6319997  97.1989992  71.5464990  94.0129997
  97.3046173  71.6335806  93.1534954 100.4049992  72.5934990  89.3509997
  99.9799992  73.4034990  89.0679997 101.3089992  72.6794990  89.0489997
 100.4691002  72.7158728  89.2714798 104.7159992  73.9924990  92.3099997
 104.9009992  73.6594990  93.1879997 105.5629992  74.3024990  91.9879997
 104.8557291  73.9888214  92.3866140 107.0609992  75.2784990  91.5539997
 107.7379992  74.6454990  91.3139997 107.3829992  75.6794990  92.3619997
 107.1971280  75.2460638  91.6303190 111.9789992  57.8684990  90.6339997
 111.1659992  58.1934990  90.2459997 112.2119992  57.1074990  90.1009997
 111.8992566  57.8101570  90.5089196  97.8069992  75.8504990  89.3979997
  97.0859992  76.2904990  88.9469997  97.4409992  75.5994990  90.2469997
  97.6589785  75.8767691  89.4509849 100.2739992  75.4504990  88.4279997
  99.4089992  75.5224990  88.8319997 100.2189992  75.9974990  87.6439997
 100.1482066  75.5342678  88.3773371 104.9849992  75.3384990  87.6039997
 104.5279992  75.8674990  86.9499997 105.1469992  75.9414990  88.3289997
 104.9443919  75.4923990  87.6125740 107.3119992  74.2164990  88.5489997
 106.4079992  74.3814990  88.2829997 107.7409992  75.0694990  88.4829997
 107.2462017  74.3544184  88.5036495 109.9159992  75.7864990  88.8439997
 109.7349992  76.7024990  88.6329997 110.0929992  75.3754990  87.9969997
 109.9151377  75.8563365  88.7007178  97.2219992  74.4734990  86.3089997
  97.2029992  74.0474990  87.1659997  98.0259992  74.1544990  85.8999997
  97.3281393  74.3720297  86.3710155  99.3629992  73.1834990  84.9639997
  99.1439992  72.2664990  85.1329997 100.1869992  73.3234990  85.4299997
  99.4444637  73.0769586  85.0501414 101.8999992  73.6534990  85.8119997
 102.1129992  72.7654990  85.5249997 101.9649992  73.6184990  86.7669997
 101.9379075  73.5273318  85.9017355 105.4089992  59.3174990  84.9569997
 104.7339992  58.6874990  85.2119997 105.9729992  58.8334990  84.3539997
 105.3929558  59.1659283  84.9103451 110.5509992  57.4244990  85.0689997
 111.1549992  57.9724990  84.5679997 109.6819992  57.7434990  84.8289997
 110.5161126  57.5427070  84.9679180 112.2779992  58.5634990  83.4029997
 112.8899992  58.0494990  82.8759997 112.6609992  59.4404990  83.4259997
 112.4133867  58.6117613  83.3340888  97.7349992  57.9514990  82.7789997
  96.9579992  57.7164990  82.2709997  98.2659992  57.1544990  82.7879997
  97.7004443  57.8116721  82.7107200 102.3149992  57.8774990  82.5919997
 103.1889992  58.2664990  82.5619997 102.1789992  57.6624990  83.5149997
 102.4163125  57.9017120  82.7126523 107.8709992  57.9074990  84.2409997
 107.9479992  58.0034990  83.2919997 107.5959992  57.0004990  84.3699997
 107.8443407  57.7979188  84.1283532 109.2249992  57.9334990  79.9339997
 108.5219992  58.5484990  79.7239997 108.7799992  57.0964990  80.0649997
 109.0686550  57.9044679  79.9229819 103.4589992  59.9584990  79.4819997
 103.6369992  59.3114990  80.1649997 103.4049992  60.7924990  79.9489997
 103.4760678  59.9826615  79.6386283 105.3369992  74.9064990  77.8769997
 106.2029992  75.2734990  77.6989997 105.0899992  74.4674990  77.0639997
 105.4222041  74.8973648  77.7425958 112.0459992  74.4694990  80.5569997
 111.8519992  73.7214990  79.9919997 112.0069992  75.2274990  79.9729997
 112.0141907  74.4695770  80.4008077  97.6929992  58.4654990  92.2959997
  97.3269992  57.6994990  92.7389997  98.6059992  58.4944990  92.5829997
  97.7663225  58.3646917  92.3953441  99.6659992  57.8154990  93.8319997
 100.5649992  57.5414990  93.6469997  99.2799992  57.0734990  94.2959997
  99.7367237  57.6776520  93.8694693 108.0869992  57.1484990  94.0139997
 108.1639992  56.7224990  94.8679997 108.9809992  57.1614990  93.6719997
 108.2183315  57.0920320  94.0845052 111.2639992  73.2204990  92.7069997
 110.4819992  73.0344990  92.1869997 111.1919992  74.1504990  92.9239997
 111.1472975  73.3206973  92.6651822 125.6699992  67.1074990  82.7369997
 125.7589992  68.0514990  82.6049997 125.0309992  66.8324990  82.0789997
 125.5958319  67.1994984  82.6300276 124.6029992  66.3624990  86.1559997
 124.5639992  65.7164990  86.8609997 124.2799992  65.8954990  85.3849997
 124.5540199  66.2110089  86.1482865 116.9709992  65.9764990  87.7489997
 117.0119992  65.3514990  88.4729997 117.6739992  66.6004990  87.9309997
 117.0716054  65.9753262  87.8726311 128.3089992  69.3014990  84.4579997
 127.8679992  68.5814990  84.9079997 128.2959992  70.0224990  85.0879997
 128.2468398  69.3003187  84.6047734 117.8949992  70.4264990  86.2839997
 117.5249992  69.6244990  85.9149997 118.8359992  70.2584990  86.3309997
 117.9715630  70.2938680  86.2397873 114.5049992  64.0864990  81.6769997
 114.0569992  64.9324990  81.6589997 113.9439992  63.5074990  81.1619997
 114.3678546  64.1239004  81.6048874 115.2149992  66.2484990  83.8029997
 115.4289992  65.4784990  84.3299997 115.9529992  66.3384990  83.1999997
 115.3440073  66.1553546  83.7935786 125.4199992  74.4054990  84.6699997
 126.0399992  73.7294990  84.3969997 125.2119992  74.1874990  85.5779997
 125.4767360  74.2834792  84.7554387 122.9919992  68.7944990  86.5619997
 123.2959992  68.1084990  85.9679997 123.7139992  68.9134990  87.1799997
 123.1311152  68.7167201  86.5642106 131.6549992  60.3964990  87.4229997
 131.7039992  61.0064990  88.1589997 132.0809992  60.8574990  86.6999997
 131.7192851  60.5423266  87.4260532 126.1329992  63.1884990  86.8899997
 126.2749992  62.2424990  86.9099997 126.0269992  63.3954990  85.9609997
 126.1381158  63.0869722  86.7672241 119.2879992  61.2904990  84.1619997
 119.3309992  62.1504990  83.7439997 118.8299992  60.7374990  83.5289997
 119.2319613  61.3335689  84.0191276 127.0099992  61.4214990  82.5629997
 127.6559992  61.0924990  83.1879997 127.5199992  61.9384990  81.9399997
 127.1674392  61.4463710  82.5643248 115.9079992  63.6874990  84.9239997
 116.5619992  63.1374990  85.3559997 115.9319992  63.4134990  84.0079997
 116.0007022  63.5752005  84.8591698 121.0639992  65.2374990  84.1399997
 121.6799992  64.7104990  84.6489997 120.4779992  64.5974990  83.7359997
 121.0690652  65.0788919  84.1550277 132.0469992  61.8744990  89.6589997
 131.3579992  62.5324990  89.5639997 132.0619992  61.6764990  90.5959997
 131.9547756  61.9377614  89.7725795 118.0979992  60.2084990  88.2359997
 117.8789992  60.7384990  87.4699997 117.4299992  60.4344990  88.8839997
 117.9777271  60.3116508  88.2186206 125.4669992  69.7084990  81.7799997
 125.1709992  69.3854990  80.9289997 125.1429992  70.6084990  81.8219997
 125.3826501  69.7859058  81.6690893 120.6669992  67.8834990  88.5239997
 119.9269992  68.4824990  88.6269997 121.3809992  68.4374990  88.2079997
 120.6623288  68.0402368  88.4953787 128.7739992  60.7124990  84.5439997
 128.5589992  59.9464990  85.0759997 129.4299992  61.1844990  85.0569997
 128.8332451  60.6714472  84.6861699 117.6919992  62.1004990  86.1889997
 118.3049992  62.7334990  86.5619997 118.2039992  61.6284990  85.5319997
 117.8451680  62.1234006  86.1512830 119.0739992  69.8484990  89.3109997
 119.0689992  70.7274990  88.9329997 118.2209992  69.7644990  89.7359997
 118.9579199  69.9575901  89.3166942 115.1959992  69.5194990  80.0929997
 114.9239992  69.7484990  79.2039997 115.2409992  70.3564990  80.5529997
 115.1648709  69.6641069  80.0336089 128.8209992  71.1404990  86.8059997
 127.8789992  71.1994990  86.9669997 129.0969992  72.0464990  86.6689997
 128.7295771  71.2710270  86.8094827 129.1209992  59.4274990  88.2229997
 128.3849992  60.0374990  88.1849997 129.8049992  59.8424990  87.6969997
 129.1125885  59.5671924  88.1466931 122.1239992  57.5134990  85.6889997
 122.0069992  56.5654990  85.6349997 121.2689992  57.8464990  85.9619997
 121.9923691  57.4285842  85.7185072 127.0729992  72.9214990  83.4309997
 127.4979992  72.2144990  82.9459997 127.3899992  73.7234990  83.0139997
 127.1740266  72.9330201  83.3082461 128.2319992  70.8224990  81.9399997
 127.9749992  70.1324990  81.3279997 128.3029992  70.3794990  82.7849997
 128.2064322  70.6681568  81.9705372 129.9179992  69.3894990  90.4169997
 130.0579992  68.7974990  89.6779997 130.0859992  70.2624990  90.0609997
 129.9598734  69.4264041  90.2676937 124.3909992  66.3514990  80.1889997
 123.6789992  66.8864990  79.8379997 125.0819992  66.4064990  79.5289997
 124.3868696  66.4322591  80.0516372 131.7599992  65.7294990  88.4829997
 131.1079992  66.4234990  88.5719997 132.2249992  65.9394990  87.6729997
 131.7335357  65.8529544  88.3857056 127.7969992  66.5604990  81.1409997
 127.0649992  66.7894990  81.7139997 128.2439992  65.8474990  81.5959997
 127.7572753  66.4953984  81.2809698 127.6939992  64.7354990  90.2089997
 127.7739992  65.4984990  90.7809997 127.0929992  65.0144990  89.5179997
 127.6237115  64.8777707  90.1939631 119.4419992  67.1914990  83.0239997
 119.1119992  66.8204990  82.2049997 120.0299992  66.5204990  83.3699997
 119.4764056  67.0501257  82.9589035 120.8089992  70.6194990  85.7049997
 120.7139992  70.0404990  84.9479997 121.5379992  70.2484990  86.2009997
 120.8946161  70.4900902  85.6685192 119.8089992  65.9594990  86.6569997
 120.3739992  66.0814990  85.8939997 120.1269992  66.5974990  87.2959997
 119.9293430  66.0624448  86.6389094 126.1179992  71.4634990  87.3909997
 125.8769992  72.1254990  88.0389997 125.9199992  70.6284990  87.8159997
 126.0582662  71.4412704  87.5371008 120.6889992  70.3594990  91.3739997
 120.3769992  71.1414990  91.8299997 120.0389992  70.2064990  90.6879997
 120.5584643  70.4458019  91.3436657 117.6089992  66.5574990  90.6029997
 117.6789992  67.2084990  91.3009997 116.7179992  66.6604990  90.2679997
 117.4981802  66.6604769  90.6532231 124.3939992  72.4594990  82.2619997
 124.8679992  72.7554990  83.0389997 123.8309992  73.1984990  82.0279997
 124.3828460  72.5998336  82.3367626 118.9279992  72.4304990  92.1379997
 118.9359992  72.2944990  91.1899997 118.0119992  72.3134990  92.3899997
 118.8052512  72.3960663  92.0423179 130.3659992  57.4734990  78.6389997
 129.4659992  57.6114990  78.9339997 130.6179992  58.3044990  78.2369997
 130.2767355  57.6048200  78.6250539 118.4319992  66.2604990  80.6129997
 118.1399992  67.0284990  80.1219997 117.7579992  65.6014990  80.4499997
 118.3008843  66.2764537  80.5237695 114.5249992  68.6234990  89.4279997
 114.0239992  68.5954990  88.6129997 114.5309992  67.7184990  89.7379997
 114.4571690  68.4972234  89.3582770 114.2759992  71.4044990  86.3119997
 115.2219992  71.2594990  86.2929997 114.1629992  72.1884990  86.8489997
 114.3903578  71.4906708  86.3820300 132.4729992  72.0704990  91.9939997
 132.4239992  71.1144990  91.9569997 131.6469992  72.3374990  92.3959997
 132.3545767  71.9758841  92.0433133 123.4519992  71.6444990  90.8699997
 123.5389992  72.4704990  91.3449997 122.5879992  71.3144990  91.1189997
 123.3471944  71.7129871  90.9686558 123.8659992  75.4164990  80.6759997
 123.7909992  75.2954990  79.7299997 123.8989992  76.3654990  80.7949997
 123.8601862  75.5282492  80.5624840 117.5199992  74.2054990  82.4569997
 117.6719992  73.8574990  83.3359997 116.6689992  73.8484990  82.2019997
 117.4257899  74.1096749  82.5427322 129.6249992  63.5634990  92.4739997
 129.2179992  64.0434990  91.7539997 129.6659992  62.6574990  92.1669997
 129.5747178  63.5068609  92.3337441 116.7739992  69.9474990  90.4709997
 116.9899992  69.5854990  91.3309997 115.9189992  69.5724990  90.2609997
 116.6879349  69.8472914  90.5602134 119.3929992  58.4174990  86.4669997
 118.5309992  58.3304990  86.0589997 119.3709992  59.2734990  86.8939997
 119.2720953  58.5213558  86.4689262 124.0559992  58.1394990  89.8409997
 124.4759992  57.7244990  90.5939997 123.1229992  57.9604990  89.9579997
 123.9873736  58.0584921  89.9598950 127.3819992  61.8944990  90.6949997
 126.8679992  61.7694990  91.4919997 127.2269992  62.8074990  90.4499997
 127.2906643  62.0007068  90.7710624 119.4839992  63.3824990  87.5619997
 118.8419992  63.3424990  88.2709997 119.5209992  64.3094990  87.3239997
 119.4011659  63.5022540  87.6268463 119.4809992  63.6034990  82.4739997
 118.5879992  63.2634990  82.4149997 119.9319992  63.2264990  81.7179997
 119.4197185  63.5060220  82.3637698 125.0169992  64.0194990  81.2909997
 124.6079992  64.8344990  80.9989997 125.7369992  63.8794990  80.6759997
 125.0583946  64.1119963  81.1679616 124.1189992  64.1954990  92.7789997
 123.5559992  63.4904990  93.0989997 124.9449992  64.0744990  93.2459997
 124.1536423  64.0825614  92.8860168 126.0209992  63.4654990  84.1049997
 125.8259992  64.0714990  83.3899997 126.2029992  62.6324990  83.6699997
 126.0189272  63.4357955  83.9484075 117.2339992  63.7034990  89.4289997
 117.1959992  64.1034990  90.2969997 116.7429992  62.8864990  89.5189997
 117.1624246  63.6478842  89.5601171 113.8419992  60.8194990  83.2789997
 114.4729992  60.7904990  83.9989997 114.2919992  60.3944990  82.5489997
 113.9890905  60.7580839  83.2787479 125.2849992  65.1034990  88.7759997
 125.6089992  64.4724990  88.1329997 124.8449992  64.5694990  89.4369997
 125.2698707  64.9448261  88.7773195 122.0629992  61.0314990  83.5599997
 121.1519992  61.0884990  83.8489997 122.5679992  60.9714990  84.3709997
 122.0066873  61.0311838  83.7091190 116.8909992  62.6604990  82.3869997
 116.0019992  62.7594990  82.0469997 117.1869992  61.8184990  82.0409997
 116.8094001  62.5602473  82.2937318 120.5439992  62.6604990  80.0429997
 121.4759992  62.7894990  80.2209997 120.3289992  63.3294990  79.3939997
 120.6424245  62.7686452  79.9795602 126.4679992  60.2664990  86.8239997
 125.7909992  60.3974990  87.4879997 125.9819992  60.1114990  86.0139997
 126.3097265  60.2634665  86.8053380 129.7549992  75.9374990  93.1009997
 129.9549992  76.3614990  92.2659997 130.4109992  76.2814990  93.7079997
 129.8709916  76.0419784  93.0687890 117.3529992  68.4114990  92.7089997
 118.0849992  68.6664990  93.2699997 116.5729992  68.6164990  93.2239997
 117.3477684  68.4741457  92.8554774 123.3829992  63.8184990  85.4469997
 123.9469992  63.2724990  84.8999997 123.2349992  63.2974990  86.2359997
 123.4403037  63.6731798  85.4787212 118.3849992  59.9554990  81.8649997
 118.0669992  59.0524990  81.8299997 119.1659992  59.9574990  81.3129997
 118.4471560  59.8321148  81.7854975 122.0089992  62.2074990  87.8609997
 121.1739992  62.6614990  87.9709997 122.5329992  62.4834990  88.6129997
 121.9655070  62.3069677  87.9777134 122.5529992  68.4204990  79.5459997
 121.8079992  67.9124990  79.2229997 122.4189992  68.4694990  80.4919997
 122.4328633  68.3575714  79.6297563 129.7029992  67.5534990  88.3319997
 130.3449992  68.0094990  87.7889997 128.8729992  67.6664990  87.8699997
 129.6787352  67.6313223  88.1950234 124.0729992  68.6044990  90.7829997
 123.7269992  68.2224990  91.5889997 123.8729992  69.5374990  90.8539997
 123.9985399  68.6783489  90.9030401 127.1689992  63.1014990  79.4059997
 128.0609992  62.9634990  79.7249997 127.2259992  63.8924990  78.8689997
 127.2987380  63.1894777  79.3770981 117.6779992  67.7154990  85.3149997
 118.4229992  67.7124990  84.7139997 117.7559992  66.8914990  85.7969997
 117.7904158  67.6037928  85.2979136 114.6859992  66.1754990  90.6299997
 114.9089992  65.7574990  91.4619997 114.0839992  65.5634990  90.2079997
 114.6350802  66.0355216  90.6867561 121.7029992  65.6924990  92.8429997
 121.4069992  65.5274990  91.9479997 122.6339992  65.4724990  92.8329997
 121.7883909  65.6401274  92.7190110 126.3229992  71.0664990  90.7329997
 125.4219992  71.2494990  90.4649997 126.3569992  71.3254990  91.6539997
 126.2043021  71.1265505  90.8208206 132.0169992  69.1114990  91.9369997
 131.1659992  69.3494990  91.5699997 132.6079992  69.0944990  91.1839997
 131.9802468  69.1418251  91.7848902 127.5099992  66.9044990  86.5869997
 126.5819992  66.6734990  86.5599997 127.9609992  66.1274990  86.2569997
 127.4438165  66.7677785  86.5386772 120.0529992  71.2334990  82.7199997
 120.5799992  72.0064990  82.5189997 119.1729992  71.4574990  82.4179997
 120.0061793  71.3696652  82.6516304 121.4799992  68.8964990  82.2959997
 121.2389992  69.8214990  82.3379997 120.7399992  68.4374990  82.6919997
 121.3468934  68.9610881  82.3553191 121.9949992  73.0454990  88.6109997
 122.3579992  73.8994990  88.3779997 122.5269992  72.7534990  89.3519997
 122.1165141  73.1228907  88.6792079 120.1629992  73.9174990  81.8409997
 119.2139992  74.0234990  81.8929997 120.5149992  74.7384990  82.1859997
 120.0806214  74.0429361  81.8947317 125.5389992  69.1444990  88.3119997
 125.1129992  68.9164990  89.1379997 126.1199992  68.4054990  88.1289997
 125.5591587  69.0134084  88.4004111 127.7419992  70.0734990  77.3859997
 128.0949992  69.6934990  78.1899997 126.7929992  69.9794990  77.4719997
 127.6620985  70.0087330  77.5077738 128.1979992  73.6964990  90.7809997
 127.5959992  73.1404990  90.2859997 128.4789992  74.3634990  90.1549997
 128.1535757  73.7105755  90.6285657 132.2449992  74.5524990  77.5869997
 132.9889992  75.1384990  77.4469997 131.5509992  75.1214990  77.9199997
 132.2529809  74.7095830  77.6128572 116.3199992  60.9294990  90.1879997
 115.4269992  61.2674990  90.1209997 116.2209992  60.0734990  90.6059997
 116.1845241  60.8600941  90.2352982 128.6079992  68.7454990  79.6119997
 128.3309992  68.0174990  80.1679997 129.5349992  68.8644990  79.8179997
 128.6954181  68.6620068  79.7158972 115.9709992  72.7334990  88.6229997
 116.1879992  71.8014990  88.5919997 116.2179992  73.0084990  89.5069997
 116.0340543  72.6430877  88.7381412 121.8329992  71.1854990  75.8329997
 122.0719992  70.4364990  75.2849997 121.5639992  70.7974990  76.6649997
 121.8292804  71.0306524  75.8706352 120.7699992  70.7554990  78.2889997
 120.9169992  70.2354990  79.0789997 120.7669992  71.6624990  78.5949997
 120.7897300  70.8068975  78.4385877 117.2229992  68.0074990  78.7989997
 116.5369992  68.3604990  79.3659997 117.7459992  68.7704990  78.5529997
 117.1999033  68.1588757  78.8432644 125.0539992  60.6704990  89.0779997
 125.7529992  60.7444990  89.7279997 124.6739992  59.8054990  89.2329997
 125.0982095  60.5637402  89.1877982 125.8389992  60.3224990  80.1749997
 126.0589992  60.7934990  79.3719997 126.3969992  60.7164990  80.8459997
 125.9445851  60.4403272  80.1556134 123.0389992  62.0504990  81.0099997
 123.8509992  62.5544990  81.0559997 122.7939992  61.9054990  81.9239997
 123.1171091  62.0999366  81.1398552 123.5749992  63.0364990  90.1949997
 123.6939992  63.6104990  90.9519997 124.2299992  62.3484990  90.3099997
 123.6798684  63.0220205  90.3141656 123.9229992  59.1314990  81.9479997
 123.5759992  59.7484990  82.5929997 124.5809992  59.6324990  81.4669997
 123.9645290  59.2836384  81.9711635 120.8459992  73.4964990  79.0199997
 121.0069992  74.2964990  78.5189997 120.6489992  73.8034990  79.9049997
 120.8413919  73.6474140  79.0710988 119.5799992  60.1944990  78.6359997
 119.4969992  61.0824990  78.9819997 120.4699992  59.9294990  78.8669997
 119.6889751  60.2802482  78.7146066 129.7789992  60.9434990  91.0299997
 128.8629992  61.2054990  90.9419997 130.1149992  60.9404990  90.1329997
 129.6989789  60.9789637  90.8967829 128.3809992  64.6934990  85.1259997
 127.5839992  64.2784990  84.7969997 128.8259992  64.0034990  85.6169997
 128.3320317  64.5433197  85.1473556 129.4679992  73.9494990  86.7479997
 129.3119992  74.6284990  86.0909997 130.3999992  74.0214990  86.9509997
 129.5727328  74.0521586  86.6855529 116.9629992  58.0674990  85.4849997
 116.7339992  58.1264990  84.5579997 116.5199992  57.2764990  85.7919997
 116.8717387  57.9686412  85.3995223 115.8929992  72.0084990  81.6459997
 115.0609992  72.4804990  81.6729997 116.4389992  72.5184990  81.0469997
 115.8528710  72.1420317  81.5687570 115.1819992  74.6204990  92.9759997
 115.7219992  74.4044990  93.7349997 114.6999992  73.8154990  92.7859997
 115.1909101  74.4820216  93.0544364 119.7789992  73.5404990  94.5959997
 120.5469992  73.0814990  94.9369997 119.7579992  73.3144990  93.6659997
 119.8812135  73.4471680  94.5169473 126.3559992  71.9204990  93.3249997
 126.0049992  71.0634990  93.5679997 127.0819992  72.0624990  93.9319997
 126.4061590  71.8225189  93.4402889 115.0889992  68.4314990  93.9299997
 115.2329992  67.5294990  93.6439997 114.3159992  68.7174990  93.4419997
 115.0042854  68.3466876  93.8249363 121.7439992  68.4004990  93.3629997
 121.4159992  68.6714990  92.5049997 121.8959992  67.4594990  93.2749997
 121.7196970  68.3103694  93.2337953 127.4789992  68.3164990  90.7459997
 128.2239992  68.9054990  90.6259997 126.7209992  68.8984990  90.8089997
 127.4785185  68.4757000  90.7380940 115.9209992  65.6314990  93.3499997
 116.3289992  64.7744990  93.2289997 115.6609992  65.6454990  94.2709997
 115.9417082  65.5160596  93.4579469 120.5789992  66.7474990  78.3679997
 120.1199992  66.2634990  79.0539997 120.8339992  66.0784990  77.7319997
 120.5506178  66.5908511  78.3759785 119.8679992  64.6404990  90.7239997
 119.2499992  65.3144990  91.0049997 120.2119992  64.9614990  89.8909997
 119.8298181  64.7763233  90.6498266 121.6499992  64.9904990  76.6309997
 121.4699992  64.8354990  75.7029997 122.5999992  65.0984990  76.6749997
 121.7538016  64.9839264  76.5102123 124.8879992  67.1114990  94.0019997
 125.8409992  67.1954990  93.9739997 124.7279992  66.3994990  94.6209997
 124.9968161  67.0267198  94.0818689 131.0399992  67.3444990  76.0759997
 130.7669992  66.9204990  75.2629997 131.0799992  68.2764990  75.8589997
 131.0080201  67.4123523  75.9353548 120.2079992  61.9954990  91.8069997
 120.3579992  61.2664990  91.2039997 120.2099992  62.7724990  91.2479997
 120.2287664  62.0008971  91.6490525 120.6199992  60.3644990  89.2989997
 121.1559992  60.8164990  88.6469997 119.7679992  60.2564990  88.8769997
 120.5781648  60.4117883  89.1526395 122.2019992  65.8044990  89.5389997
 122.9529992  65.6484990  88.9659997 121.8629992  66.6564990  89.2629997
 122.2589052  65.8982745  89.4233469 126.6179992  63.6194990  94.5669997
 126.8099992  62.6884990  94.4559997 127.4749992  64.0444990  94.5569997
 126.7602320  63.5494743  94.5504433 127.9339992  66.4084990  92.6449997
 127.6529992  67.1174990  92.0669997 128.8769992  66.3354990  92.4939997
 128.0229272  66.4956704  92.5454976 118.6859992  63.1934990  93.7179997
 117.9189992  62.6604990  93.5079997 119.3649992  62.8834990  93.1189997
 118.6728292  63.0786360  93.6082693 121.4259992  57.8214990  89.7309997
 121.3279992  58.7674990  89.6249997 120.6829992  57.4484990  89.2549997
 121.3122363  57.9005987  89.6522029 122.6899992  62.1424990  93.2939997
 122.4539992  61.9234990  94.1959997 121.9069992  61.9354990  92.7849997
 122.5518444  62.0845688  93.3484518 125.4059992  61.2704990  92.3699997
 124.4579992  61.3024990  92.5019997 125.7179992  60.6444990  93.0239997
 125.3185293  61.1902934  92.4764130 127.0399992  59.9044990  94.3749997
 126.9429992  58.9524990  94.3689997 126.7179992  60.1724990  95.2359997
 126.9832229  59.8104706  94.4905108 116.8669992  61.1134990  93.4229997
 117.0779992  60.4074990  92.8119997 116.7549992  60.6764990  94.2669997
 116.8807674  60.9576376  93.4534199 121.6479992  57.1154990  92.4019997
 122.3589992  56.4754990  92.3879997 121.5469992  57.3814990  91.4879997
 121.7316732  57.0638452  92.2765475 122.0009992  58.7974990  94.4559997
 121.8699992  58.3224990  93.6349997 121.4019992  59.5424990  94.3999997
 121.9021524  58.8331968  94.3361553 121.5479992  75.6804990  77.6319997
 122.4809992  75.8384990  77.7759997 121.2829992  76.3564990  77.0069997
 121.6399846  75.7934567  77.5672930 115.1159992  70.3174990  77.1149997
 116.0299992  70.3964990  77.3879997 115.1229992  69.6304990  76.4479997
 115.2420769  70.2354735  77.0622366 113.7649992  75.7104990  82.1919997
 113.1179992  75.2484990  81.6589997 114.1199992  75.0384990  82.7749997
 113.7243861  75.5564707  82.1977939 114.6349992  73.7904990  83.9969997
 114.3009992  72.9104990  84.1689997 114.8569992  74.1364990  84.8609997
 114.6192677  73.7167366  84.1374252 132.1839992  74.6004990  86.9769997
 132.1619992  74.7854990  87.9159997 132.8739992  75.1684990  86.6359997
 132.2743439  74.7026898  87.0594774 131.7469992  74.1674990  89.8989997
 131.2599992  73.4314990  89.5279997 132.2959992  73.7734990  90.5769997
 131.7546101  74.0136267  89.9399034 130.1979992  69.9574990  94.5369997
 129.3319992  69.8524990  94.9309997 130.5739992  70.7154990  94.9839997
 130.1303768  70.0456151  94.6513258 131.4989992  68.2134990  80.0509997
 132.3489992  68.6344990  80.1789997 131.5039992  67.4734990  80.6589997
 131.6159745  68.1711347  80.1506479 131.8929992  66.2674990  81.8749997
 131.1669992  65.7874990  82.2729997 132.4739992  66.4724990  82.6069997
 131.8722504  66.2295592  82.0284199 131.6519992  69.0524990  86.8229997
 132.4859992  68.6744990  86.5419997 131.7639992  69.9954990  86.7039997
 131.7811917  69.1282954  86.7684844 130.1379992  71.9304990  89.1299997
 129.4909992  72.2554990  89.7549997 129.6209992  71.4894990  88.4549997
 129.9794068  71.9154726  89.1244918 129.6799992  64.7884990  82.4379997
 129.5299992  63.8434990  82.4179997 129.3259992  65.0694990  83.2819997
 129.6116351  64.6971656  82.5493202 114.7149992  66.8664990  86.4479997
 114.8989992  66.7844990  85.5129997 115.5639992  66.7424990  86.8719997
 114.8550259  66.8384915  86.3771771 130.5359992  66.7584990  92.0769997
 131.1189992  66.0234990  92.2679997 131.0999992  67.5304990  92.1229997
 130.6920326  66.7622746  92.1093579 132.0329992  64.6614990  92.7609997
 131.1689992  64.2824990  92.5959997 132.6369992  63.9224990  92.6869997
 131.9964912  64.5097937  92.7284360 129.3899992  62.3704990  80.8999997
 129.6699992  61.4634990  81.0249997 130.1489992  62.8044990  80.5109997
 129.5309471  62.3050654  80.8645051 130.0019992  62.9524990  86.3359997
 130.9349992  63.1644990  86.3019997 129.7669992  63.0534990  87.2589997
 130.0978357  62.9951303  86.4560232 130.0309992  63.6894990  89.1119997
 129.1879992  63.9574990  89.4779997 130.4739992  64.5114990  88.9009997
 129.9754358  63.8373294  89.1335999 114.3119992  62.1364990  92.5889997
 115.2319992  62.0144990  92.8249997 113.8629992  61.3864990  92.9779997
 114.3771561  62.0183720  92.6739015 132.3139992  57.6694990  94.4659997
 132.6639992  57.0154990  93.8599997 132.4609992  58.5064990  94.0259997
 132.3817192  57.6932545  94.3236712 130.0039992  59.6334990  80.9489997
 130.1859992  59.1844990  81.7739997 129.4039992  59.0494990  80.4849997
 129.9478187  59.4930563  80.9992721 115.5339992  60.4494990  85.4799997
 115.9789992  59.6574990  85.7819997 115.9999992  61.1654990  85.9109997
 115.6579059  60.4379485  85.5796061 113.8379992  63.4484990  86.5489997
 114.3299992  63.2274990  85.7589997 114.1999992  64.2884990  86.8299997
 113.9543429  63.5318220  86.4787918 131.8339992  59.7784990  92.8149997
 130.9169992  60.0494990  92.7789997 131.9569992  59.2434990  92.0309997
 131.7250828  59.7432711  92.7040767 114.1509992  59.7064990  80.6039997
 113.2259992  59.9144990  80.4739997 114.6049992  60.1904990  79.9139997
 114.0857401  59.8003895  80.4929433 128.9219992  74.6904990  82.5489997
 129.5739992  74.3424990  81.9409997 129.4329992  75.1784990  83.1949997
 129.0802872  74.7088248  82.5530964 114.1149992  58.4444990  88.9479997
 113.4499992  58.1984990  89.5909997 113.6719992  59.0664990  88.3709997
 113.9641168  58.4949225  88.9579830 116.3069992  71.6194990  93.0919997
 115.4859992  71.7944990  92.6319997 116.0549992  71.5464990  94.0129997
 116.1606173  71.6335806  93.1534954 119.2609992  72.5934990  89.3509997
 118.8359992  73.4034990  89.0679997 120.1649992  72.6794990  89.0489997
 119.3251002  72.7158728  89.2714798 123.5719992  73.9924990  92.3099997
 123.7569992  73.6594990  93.1879997 124.4189992  74.3024990  91.9879997
 123.7117291  73.9888214  92.3866140 125.9169992  75.2784990  91.5539997
 126.5939992  74.6454990  91.3139997 126.2389992  75.6794990  92.3619997
 126.0531280  75.2460638  91.6303190 130.8349992  57.8684990  90.6339997
 130.0219992  58.1934990  90.2459997 131.0679992  57.1074990  90.1009997
 130.7552566  57.8101570  90.5089196 116.6629992  75.8504990  89.3979997
 115.9419992  76.2904990  88.9469997 116.2969992  75.5994990  90.2469997
 116.5149785  75.8767691  89.4509849 119.1299992  75.4504990  88.4279997
 118.2649992  75.5224990  88.8319997 119.0749992  75.9974990  87.6439997
 119.0042066  75.5342678  88.3773371 123.8409992  75.3384990  87.6039997
 123.3839992  75.8674990  86.9499997 124.0029992  75.9414990  88.3289997
 123.8003919  75.4923990  87.6125740 126.1679992  74.2164990  88.5489997
 125.2639992  74.3814990  88.2829997 126.5969992  75.0694990  88.4829997
 126.1022017  74.3544184  88.5036495 128.7719992  75.7864990  88.8439997
 128.5909992  76.7024990  88.6329997 128.9489992  75.3754990  87.9969997
 128.7711377  75.8563365  88.7007178 116.0779992  74.4734990  86.3089997
 116.0589992  74.0474990  87.1659997 116.8819992  74.1544990  85.8999997
 116.1841393  74.3720297  86.3710155 118.2189992  73.1834990  84.9639997
 117.9999992  72.2664990  85.1329997 119.0429992  73.3234990  85.4299997
 118.3004637  73.0769586  85.0501414 120.7559992  73.6534990  85.8119997
 120.9689992  72.7654990  85.5249997 120.8209992  73.6184990  86.7669997
 120.7939075  73.5273318  85.9017355 124.2649992  59.3174990  84.9569997
 123.5899992  58.6874990  85.2119997 124.8289992  58.8334990  84.3539997
 124.2489558  59.1659283  84.9103451 129.4069992  57.4244990  85.0689997
 130.0109992  57.9724990  84.5679997 128.5379992  57.7434990  84.8289997
 129.3721126  57.5427070  84.9679180 131.1339992  58.5634990  83.4029997
 131.7459992  58.0494990  82.8759997 131.5169992  59.4404990  83.4259997
 131.2693867  58.6117613  83.3340888 116.5909992  57.9514990  82.7789997
 115.8139992  57.7164990  82.2709997 117.1219992  57.1544990  82.7879997
 116.5564443  57.8116721  82.7107200 115.4279992  57.7494990  78.5819997
 115.8669992  58.3604990  77.9909997 114.7939992  58.2874990  79.0559997
 115.4024103  57.9059233  78.5651376 121.1709992  57.8774990  82.5919997
 122.0449992  58.2664990  82.5619997 121.0349992  57.6624990  83.5149997
 121.2723125  57.9017120  82.7126523 126.7269992  57.9074990  84.2409997
 126.8039992  58.0034990  83.2919997 126.4519992  57.0004990  84.3699997
 126.7003407  57.7979188  84.1283532 128.0809992  57.9334990  79.9339997
 127.3779992  58.5484990  79.7239997 127.6359992  57.0964990  80.0649997
 127.9246550  57.9044679  79.9229819 115.3289992  73.6974990  79.4799997
 114.6439992  73.6594990  78.8119997 115.3319992  74.6094990  79.7679997
 115.2357358  73.8156744  79.4276145 122.3149992  59.9584990  79.4819997
 122.4929992  59.3114990  80.1649997 122.2609992  60.7924990  79.9489997
 122.3320678  59.9826615  79.6386283 130.9019992  74.4694990  80.5569997
 130.7079992  73.7214990  79.9919997 130.8629992  75.2274990  79.9729997
 130.8701907  74.4695770  80.4008077 116.5489992  58.4654990  92.2959997
 116.1829992  57.6994990  92.7389997 117.4619992  58.4944990  92.5829997
 116.6223225  58.3646917  92.3953441 118.5219992  57.8154990  93.8319997
 119.4209992  57.5414990  93.6469997 118.1359992  57.0734990  94.2959997
 118.5927237  57.6776520  93.8694693 126.9429992  57.1484990  94.0139997
 127.0199992  56.7224990  94.8679997 127.8369992  57.1614990  93.6719997
 127.0743315  57.0920320  94.0845052 130.1199992  73.2204990  92.7069997
 129.3379992  73.0344990  92.1869997 130.0479992  74.1504990  92.9239997
 130.0032975  73.3206973  92.6651822 135.8269992  65.9764990  87.7489997
 135.8679992  65.3514990  88.4729997 136.5299992  66.6004990  87.9309997
 135.9276054  65.9753262  87.8726311 136.7509992  70.4264990  86.2839997
 136.3809992  69.6244990  85.9149997 137.6919992  70.2584990  86.3309997
 136.8275630  70.2938680  86.2397873 133.3609992  64.0864990  81.6769997
 132.9129992  64.9324990  81.6589997 132.7999992  63.5074990  81.1619997
 133.2238546  64.1239004  81.6048874 134.0709992  66.2484990  83.8029997
 134.2849992  65.4784990  84.3299997 134.8089992  66.3384990  83.1999997
 134.2000073  66.1553546  83.7935786 138.1439992  61.2904990  84.1619997
 138.1869992  62.1504990  83.7439997 137.6859992  60.7374990  83.5289997
 138.0879613  61.3335689  84.0191276 134.7639992  63.6874990  84.9239997
 135.4179992  63.1374990  85.3559997 134.7879992  63.4134990  84.0079997
 134.8567022  63.5752005  84.8591698 136.9539992  60.2084990  88.2359997
 136.7349992  60.7384990  87.4699997 136.2859992  60.4344990  88.8839997
 136.8337271  60.3116508  88.2186206 139.5229992  67.8834990  88.5239997
 138.7829992  68.4824990  88.6269997 140.2369992  68.4374990  88.2079997
 139.5183288  68.0402368  88.4953787 136.5479992  62.1004990  86.1889997
 137.1609992  62.7334990  86.5619997 137.0599992  61.6284990  85.5319997
 136.7011680  62.1234006  86.1512830 137.9299992  69.8484990  89.3109997
 137.9249992  70.7274990  88.9329997 137.0769992  69.7644990  89.7359997
 137.8139199  69.9575901  89.3166942 134.0519992  69.5194990  80.0929997
 133.7799992  69.7484990  79.2039997 134.0969992  70.3564990  80.5529997
 134.0208709  69.6641069  80.0336089 138.2979992  67.1914990  83.0239997
 137.9679992  66.8204990  82.2049997 138.8859992  66.5204990  83.3699997
 138.3324056  67.0501257  82.9589035 138.6649992  65.9594990  86.6569997
 139.2299992  66.0814990  85.8939997 138.9829992  66.5974990  87.2959997
 138.7853430  66.0624448  86.6389094 139.5449992  70.3594990  91.3739997
 139.2329992  71.1414990  91.8299997 138.8949992  70.2064990  90.6879997
 139.4144643  70.4458019  91.3436657 136.4649992  66.5574990  90.6029997
 136.5349992  67.2084990  91.3009997 135.5739992  66.6604990  90.2679997
 136.3541802  66.6604769  90.6532231 137.7839992  72.4304990  92.1379997
 137.7919992  72.2944990  91.1899997 136.8679992  72.3134990  92.3899997
 137.6612512  72.3960663  92.0423179 137.2879992  66.2604990  80.6129997
 136.9959992  67.0284990  80.1219997 136.6139992  65.6014990  80.4499997
 137.1568843  66.2764537  80.5237695 133.3809992  68.6234990  89.4279997
 132.8799992  68.5954990  88.6129997 133.3869992  67.7184990  89.7379997
 133.3131690  68.4972234  89.3582770 133.1319992  71.4044990  86.3119997
 134.0779992  71.2594990  86.2929997 133.0189992  72.1884990  86.8489997
 133.2463578  71.4906708  86.3820300 136.3759992  74.2054990  82.4569997
 136.5279992  73.8574990  83.3359997 135.5249992  73.8484990  82.2019997
 136.2817899  74.1096749  82.5427322 135.6299992  69.9474990  90.4709997
 135.8459992  69.5854990  91.3309997 134.7749992  69.5724990  90.2609997
 135.5439349  69.8472914  90.5602134 138.2489992  58.4174990  86.4669997
 137.3869992  58.3304990  86.0589997 138.2269992  59.2734990  86.8939997
 138.1280953  58.5213558  86.4689262 138.3399992  63.3824990  87.5619997
 137.6979992  63.3424990  88.2709997 138.3769992  64.3094990  87.3239997
 138.2571659  63.5022540  87.6268463 138.3369992  63.6034990  82.4739997
 137.4439992  63.2634990  82.4149997 138.7879992  63.2264990  81.7179997
 138.2757185  63.5060220  82.3637698 136.0899992  63.7034990  89.4289997
 136.0519992  64.1034990  90.2969997 135.5989992  62.8864990  89.5189997
 136.0184246  63.6478842  89.5601171 132.6979992  60.8194990  83.2789997
 133.3289992  60.7904990  83.9989997 133.1479992  60.3944990  82.5489997
 132.8450905  60.7580839  83.2787479 135.7469992  62.6604990  82.3869997
 134.8579992  62.7594990  82.0469997 136.0429992  61.8184990  82.0409997
 135.6654001  62.5602473  82.2937318 139.3999992  62.6604990  80.0429997
 140.3319992  62.7894990  80.2209997 139.1849992  63.3294990  79.3939997
 139.4984245  62.7686452  79.9795602 136.2089992  68.4114990  92.7089997
 136.9409992  68.6664990  93.2699997 135.4289992  68.6164990  93.2239997
 136.2037684  68.4741457  92.8554774 137.2409992  59.9554990  81.8649997
 136.9229992  59.0524990  81.8299997 138.0219992  59.9574990  81.3129997
 137.3031560  59.8321148  81.7854975 136.5339992  67.7154990  85.3149997
 137.2789992  67.7124990  84.7139997 136.6119992  66.8914990  85.7969997
 136.6464159  67.6037928  85.2979136 133.5419992  66.1754990  90.6299997
 133.7649992  65.7574990  91.4619997 132.9399992  65.5634990  90.2079997
 133.4910802  66.0355216  90.6867561 138.9089992  71.2334990  82.7199997
 139.4359992  72.0064990  82.5189997 138.0289992  71.4574990  82.4179997
 138.8621793  71.3696652  82.6516304 139.0189992  73.9174990  81.8409997
 138.0699992  74.0234990  81.8929997 139.3709992  74.7384990  82.1859997
 138.9366214  74.0429361  81.8947317 135.1759992  60.9294990  90.1879997
 134.2829992  61.2674990  90.1209997 135.0769992  60.0734990  90.6059997
 135.0405241  60.8600941  90.2352982 134.8269992  72.7334990  88.6229997
 135.0439992  71.8014990  88.5919997 135.0739992  73.0084990  89.5069997
 134.8900543  72.6430877  88.7381412 136.0789992  68.0074990  78.7989997
 135.3929992  68.3604990  79.3659997 136.6019992  68.7704990  78.5529997
 136.0559033  68.1588757  78.8432644 138.4359992  60.1944990  78.6359997
 138.3529992  61.0824990  78.9819997 139.3259992  59.9294990  78.8669997
 138.5449751  60.2802482  78.7146066 136.6949992  70.6214990  77.6959997
 137.2869992  71.3214990  77.9719997 137.1539992  70.1884990  76.9769997
 136.8381172  70.6587371  77.6365163 135.8189992  58.0674990  85.4849997
 135.5899992  58.1264990  84.5579997 135.3759992  57.2764990  85.7919997
 135.7277387  57.9686412  85.3995223 134.7489992  72.0084990  81.6459997
 133.9169992  72.4804990  81.6729997 135.2949992  72.5184990  81.0469997
 134.7088710  72.1420317  81.5687570 134.0379992  74.6204990  92.9759997
 134.5779992  74.4044990  93.7349997 133.5559992  73.8154990  92.7859997
 134.0469101  74.4820216  93.0544364 138.6349992  73.5404990  94.5959997
 139.4029992  73.0814990  94.9369997 138.6139992  73.3144990  93.6659997
 138.7372135  73.4471680  94.5169473 133.9449992  68.4314990  93.9299997
 134.0889992  67.5294990  93.6439997 133.1719992  68.7174990  93.4419997
 133.8602854  68.3466876  93.8249363 134.7769992  65.6314990  93.3499997
 135.1849992  64.7744990  93.2289997 134.5169992  65.6454990  94.2709997
 134.7977082  65.5160596  93.4579469 139.4349992  66.7474990  78.3679997
 138.9759992  66.2634990  79.0539997 139.6899992  66.0784990  77.7319997
 139.4066178  66.5908511  78.3759785 138.7239992  64.6404990  90.7239997
 138.1059992  65.3144990  91.0049997 139.0679992  64.9614990  89.8909997
 138.6858181  64.7763233  90.6498266 139.0639992  61.9954990  91.8069997
 139.2139992  61.2664990  91.2039997 139.0659992  62.7724990  91.2479997
 139.0847664  62.0008971  91.6490525 139.4759992  60.3644990  89.2989997
 140.0119992  60.8164990  88.6469997 138.6239992  60.2564990  88.8769997
 139.4341648  60.4117883  89.1526395 137.5419992  63.1934990  93.7179997
 136.7749992  62.6604990  93.5079997 138.2209992  62.8834990  93.1189997
 137.5288292  63.0786360  93.6082693 135.7229992  61.1134990  93.4229997
 135.9339992  60.4074990  92.8119997 135.6109992  60.6764990  94.2669997
 135.7367674  60.9576376  93.4534199 132.6209992  75.7104990  82.1919997
 131.9739992  75.2484990  81.6589997 132.9759992  75.0384990  82.7749997
 132.5803861  75.5564707  82.1977939 133.4909992  73.7904990  83.9969997
 133.1569992  72.9104990  84.1689997 133.7129992  74.1364990  84.8609997
 133.4752677  73.7167366  84.1374252 133.5709992  66.8664990  86.4479997
 133.7549992  66.7844990  85.5129997 134.4199992  66.7424990  86.8719997
 133.7110259  66.8384915  86.3771771 133.1679992  62.1364990  92.5889997
 134.0879992  62.0144990  92.8249997 132.7189992  61.3864990  92.9779997
 133.2331561  62.0183720  92.6739015 134.3899992  60.4494990  85.4799997
 134.8349992  59.6574990  85.7819997 134.8559992  61.1654990  85.9109997
 134.5139059  60.4379485  85.5796061 132.6939992  63.4484990  86.5489997
 133.1859992  63.2274990  85.7589997 133.0559992  64.2884990  86.8299997
 132.8103429  63.5318220  86.4787918 133.0069992  59.7064990  80.6039997
 132.0819992  59.9144990  80.4739997 133.4609992  60.1904990  79.9139997
 132.9417401  59.8003895  80.4929433 132.9709992  58.4444990  88.9479997
 132.3059992  58.1984990  89.5909997 132.5279992  59.0664990  88.3709997
 132.8201168  58.4949225  88.9579830 135.1629992  71.6194990  93.0919997
 134.3419992  71.7944990  92.6319997 134.9109992  71.5464990  94.0129997
 135.0166173  71.6335806  93.1534954 138.1169992  72.5934990  89.3509997
 137.6919992  73.4034990  89.0679997 139.0209992  72.6794990  89.0489997
 138.1811002  72.7158728  89.2714797 135.5189992  75.8504990  89.3979997
 134.7979992  76.2904990  88.9469997 135.1529992  75.5994990  90.2469997
 135.3709785  75.8767691  89.4509849 137.9859992  75.4504990  88.4279997
 137.1209992  75.5224990  88.8319997 137.9309992  75.9974990  87.6439997
 137.8602066  75.5342678  88.3773371 134.9339992  74.4734990  86.3089997
 134.9149992  74.0474990  87.1659997 135.7379992  74.1544990  85.8999997
 135.0401393  74.3720297  86.3710155 137.0749992  73.1834990  84.9639997
 136.8559992  72.2664990  85.1329997 137.8989992  73.3234990  85.4299997
 137.1564637  73.0769586  85.0501414 135.4469992  57.9514990  82.7789997
 134.6699992  57.7164990  82.2709997 135.9779992  57.1544990  82.7879997
 135.4124443  57.8116721  82.7107200 134.2839992  57.7494990  78.5819997
 134.7229992  58.3604990  77.9909997 133.6499992  58.2874990  79.0559997
 134.2584103  57.9059233  78.5651376 134.1849992  73.6974990  79.4799997
 133.4999992  73.6594990  78.8119997 134.1879992  74.6094990  79.7679997
 134.0917358  73.8156744  79.4276145 136.1449992  59.6654990  77.0249997
 136.6359992  59.0354990  76.4969997 136.7679992  59.9614990  77.6879997
 136.2965459  59.6192419  77.0423667 135.4049992  58.4654990  92.2959997
 135.0389992  57.6994990  92.7389997 136.3179992  58.4944990  92.5829997
 135.4783225  58.3646917  92.3953441 137.3779992  57.8154990  93.8319997
 138.2769992  57.5414990  93.6469997 136.9919992  57.0734990  94.2959997
 137.4487237  57.6776520  93.8694693 136.0029992  74.6174990  76.5049997
 135.7349992  74.9034990  77.3779997 136.7739992  74.0714990  76.6569997
 136.0705600  74.5828341  76.6451482  12.5339992  85.9634990  82.7369997
  12.6229992  86.9074990  82.6049997  11.8949992  85.6884990  82.0789997
  12.4598319  86.0554984  82.6300276  11.4669992  85.2184990  86.1559997
  11.4279992  84.5724990  86.8609997  11.1439992  84.7514990  85.3849997
  11.4180199  85.0670089  86.1482865   3.8349992  84.8324990  87.7489997
   3.8759992  84.2074990  88.4729997   4.5379992  85.4564990  87.9309997
   3.9356054  84.8313262  87.8726311  15.1729992  88.1574990  84.4579997
  14.7319992  87.4374990  84.9079997  15.1599992  88.8784990  85.0879997
  15.1108398  88.1563187  84.6047734   4.7589992  89.2824990  86.2839997
   4.3889992  88.4804990  85.9149997   5.6999992  89.1144990  86.3309997
   4.8355630  89.1498680  86.2397873   1.3689992  82.9424990  81.6769997
   0.9209992  83.7884990  81.6589997   0.8079992  82.3634990  81.1619997
   1.2318546  82.9799004  81.6048874   2.0789992  85.1044990  83.8029997
   2.2929992  84.3344990  84.3299997   2.8169992  85.1944990  83.1999997
   2.2080073  85.0113546  83.7935786  12.2839992  93.2614990  84.6699997
  12.9039992  92.5854990  84.3969997  12.0759992  93.0434990  85.5779997
  12.3407360  93.1394792  84.7554387   9.8559992  87.6504990  86.5619997
  10.1599992  86.9644990  85.9679997  10.5779992  87.7694990  87.1799997
   9.9951152  87.5727201  86.5642106  18.5189992  79.2524990  87.4229997
  18.5679992  79.8624990  88.1589997  18.9449992  79.7134990  86.6999997
  18.5832851  79.3983266  87.4260532  12.9969992  82.0444990  86.8899997
  13.1389992  81.0984990  86.9099997  12.8909992  82.2514990  85.9609997
  13.0021158  81.9429722  86.7672241   6.1519992  80.1464990  84.1619997
   6.1949992  81.0064990  83.7439997   5.6939992  79.5934990  83.5289997
   6.0959613  80.1895689  84.0191276  13.8739992  80.2774990  82.5629997
  14.5199992  79.9484990  83.1879997  14.3839992  80.7944990  81.9399997
  14.0314392  80.3023710  82.5643248   2.7719992  82.5434990  84.9239997
   3.4259992  81.9934990  85.3559997   2.7959992  82.2694990  84.0079997
   2.8647022  82.4312005  84.8591698   7.9279992  84.0934990  84.1399997
   8.5439992  83.5664990  84.6489997   7.3419992  83.4534990  83.7359997
   7.9330652  83.9348919  84.1550277  18.9109992  80.7304990  89.6589997
  18.2219992  81.3884990  89.5639997  18.9259992  80.5324990  90.5959997
  18.8187756  80.7937614  89.7725795   4.9619992  79.0644990  88.2359997
   4.7429992  79.5944990  87.4699997   4.2939992  79.2904990  88.8839997
   4.8417271  79.1676508  88.2186206  12.3309992  88.5644990  81.7799997
  12.0349992  88.2414990  80.9289997  12.0069992  89.4644990  81.8219997
  12.2466501  88.6419058  81.6690893   7.5309992  86.7394990  88.5239997
   6.7909992  87.3384990  88.6269997   8.2449992  87.2934990  88.2079997
   7.5263288  86.8962368  88.4953787  15.6379992  79.5684990  84.5439997
  15.4229992  78.8024990  85.0759997  16.2939992  80.0404990  85.0569997
  15.6972451  79.5274472  84.6861699   4.5559992  80.9564990  86.1889997
   5.1689992  81.5894990  86.5619997   5.0679992  80.4844990  85.5319997
   4.7091680  80.9794006  86.1512830   5.9379992  88.7044990  89.3109997
   5.9329992  89.5834990  88.9329997   5.0849992  88.6204990  89.7359997
   5.8219199  88.8135901  89.3166942   2.0599992  88.3754990  80.0929997
   1.7879992  88.6044990  79.2039997   2.1049992  89.2124990  80.5529997
   2.0288709  88.5201069  80.0336089  15.6849992  89.9964990  86.8059997
  14.7429992  90.0554990  86.9669997  15.9609992  90.9024990  86.6689997
  15.5935771  90.1270270  86.8094827  15.9849992  78.2834990  88.2229997
  15.2489992  78.8934990  88.1849997  16.6689992  78.6984990  87.6969997
  15.9765885  78.4231924  88.1466931   8.9879992  76.3694990  85.6889997
   8.8709992  75.4214990  85.6349997   8.1329992  76.7024990  85.9619997
   8.8563691  76.2845842  85.7185072  13.9369992  91.7774990  83.4309997
  14.3619992  91.0704990  82.9459997  14.2539992  92.5794990  83.0139997
  14.0380266  91.7890201  83.3082461  15.0959992  89.6784990  81.9399997
  14.8389992  88.9884990  81.3279997  15.1669992  89.2354990  82.7849997
  15.0704322  89.5241568  81.9705372  16.7819992  88.2454990  90.4169997
  16.9219992  87.6534990  89.6779997  16.9499992  89.1184990  90.0609997
  16.8238734  88.2824041  90.2676937  11.2549992  85.2074990  80.1889997
  10.5429992  85.7424990  79.8379997  11.9459992  85.2624990  79.5289997
  11.2508696  85.2882591  80.0516372  11.3089992  83.6644990  77.2279997
  12.0099992  83.6874990  77.8789997  11.6109992  83.0364990  76.5719997
  11.4458282  83.5827350  77.2284478  18.6239992  84.5854990  88.4829997
  17.9719992  85.2794990  88.5719997  19.0889992  84.7954990  87.6729997
  18.5975357  84.7089544  88.3857056  14.6609992  85.4164990  81.1409997
  13.9289992  85.6454990  81.7139997  15.1079992  84.7034990  81.5959997
  14.6212753  85.3513984  81.2809698  14.5579992  83.5914990  90.2089997
  14.6379992  84.3544990  90.7809997  13.9569992  83.8704990  89.5179997
  14.4877115  83.7337707  90.1939631   6.3059992  86.0474990  83.0239997
   5.9759992  85.6764990  82.2049997   6.8939992  85.3764990  83.3699997
   6.3404056  85.9061257  82.9589035   7.6729992  89.4754990  85.7049997
   7.5779992  88.8964990  84.9479997   8.4019992  89.1044990  86.2009997
   7.7586161  89.3460902  85.6685191   6.6729992  84.8154990  86.6569997
   7.2379992  84.9374990  85.8939997   6.9909992  85.4534990  87.2959997
   6.7933430  84.9184448  86.6389094  12.9819992  90.3194990  87.3909997
  12.7409992  90.9814990  88.0389997  12.7839992  89.4844990  87.8159997
  12.9222662  90.2972704  87.5371008   7.5529992  89.2154990  91.3739997
   7.2409992  89.9974990  91.8299997   6.9029992  89.0624990  90.6879997
   7.4224643  89.3018019  91.3436657   4.4729992  85.4134990  90.6029997
   4.5429992  86.0644990  91.3009997   3.5819992  85.5164990  90.2679997
   4.3621802  85.5164769  90.6532231  11.2579992  91.3154990  82.2619997
  11.7319992  91.6114990  83.0389997  10.6949992  92.0544990  82.0279997
  11.2468460  91.4558336  82.3367626   5.7919992  91.2864990  92.1379997
   5.7999992  91.1504990  91.1899997   4.8759992  91.1694990  92.3899997
   5.6692512  91.2520663  92.0423179   5.2959992  85.1164990  80.6129997
   5.0039992  85.8844990  80.1219997   4.6219992  84.4574990  80.4499997
   5.1648843  85.1324537  80.5237695   1.3889992  87.4794990  89.4279997
   0.8879992  87.4514990  88.6129997   1.3949992  86.5744990  89.7379997
   1.3211690  87.3532234  89.3582770   1.1399992  90.2604990  86.3119997
   2.0859992  90.1154990  86.2929997   1.0269992  91.0444990  86.8489997
   1.2543578  90.3466708  86.3820300  19.3369992  90.9264990  91.9939997
  19.2879992  89.9704990  91.9569997  18.5109992  91.1934990  92.3959997
  19.2185767  90.8318841  92.0433133  10.3159992  90.5004990  90.8699997
  10.4029992  91.3264990  91.3449997   9.4519992  90.1704990  91.1189997
  10.2111944  90.5689871  90.9686558  10.7299992  94.2724990  80.6759997
  10.6549992  94.1514990  79.7299997  10.7629992  95.2214990  80.7949997
  10.7241862  94.3842492  80.5624840   4.3839992  93.0614990  82.4569997
   4.5359992  92.7134990  83.3359997   3.5329992  92.7044990  82.2019997
   4.2897899  92.9656749  82.5427322  13.8319992  93.4264990  77.6789997
  14.2069992  92.6824990  77.2079997  13.8359992  93.1564990  78.5969997
  13.8838969  93.2880920  77.7386475  13.5009992  93.3524990  80.4279997
  12.5659992  93.4524990  80.6069997  13.7809992  92.6424990  81.0059997
  13.4109270  93.2702300  80.5305984  16.4889992  82.4194990  92.4739997
  16.0819992  82.8994990  91.7539997  16.5299992  81.5134990  92.1669997
  16.4387178  82.3628609  92.3337441   3.6379992  88.8034990  90.4709997
   3.8539992  88.4414990  91.3309997   2.7829992  88.4284990  90.2609997
   3.5519349  88.7032914  90.5602134   6.2569992  77.2734990  86.4669997
   5.3949992  77.1864990  86.0589997   6.2349992  78.1294990  86.8939997
   6.1360953  77.3773558  86.4689262  10.9199992  76.9954990  89.8409997
  11.3399992  76.5804990  90.5939997   9.9869992  76.8164990  89.9579997
  10.8513736  76.9144921  89.9598950  14.2459992  80.7504990  90.6949997
  13.7319992  80.6254990  91.4919997  14.0909992  81.6634990  90.4499997
  14.1546643  80.8567068  90.7710624   6.3479992  82.2384990  87.5619997
   5.7059992  82.1984990  88.2709997   6.3849992  83.1654990  87.3239997
   6.2651659  82.3582540  87.6268463   6.3449992  82.4594990  82.4739997
   5.4519992  82.1194990  82.4149997   6.7959992  82.0824990  81.7179997
   6.2837185  82.3620220  82.3637698  11.8809992  82.8754990  81.2909997
  11.4719992  83.6904990  80.9989997  12.6009992  82.7354990  80.6759997
  11.9223946  82.9679963  81.1679616  10.9829992  83.0514990  92.7789997
  10.4199992  82.3464990  93.0989997  11.8089992  82.9304990  93.2459997
  11.0176423  82.9385614  92.8860168  12.8849992  82.3214990  84.1049997
  12.6899992  82.9274990  83.3899997  13.0669992  81.4884990  83.6699997
  12.8829272  82.2917955  83.9484075   4.0979992  82.5594990  89.4289997
   4.0599992  82.9594990  90.2969997   3.6069992  81.7424990  89.5189997
   4.0264246  82.5038842  89.5601171   0.7059992  79.6754990  83.2789997
   1.3369992  79.6464990  83.9989997   1.1559992  79.2504990  82.5489997
   0.8530905  79.6140839  83.2787479   1.9799992  80.4214990  78.7029997
   2.4549992  81.0124990  78.1179997   1.2629992  80.9514990  79.0499997
   1.9480406  80.5741011  78.6698495  12.1489992  83.9594990  88.7759997
  12.4729992  83.3284990  88.1329997  11.7089992  83.4254990  89.4369997
  12.1338707  83.8008261  88.7773195   8.9269992  79.8874990  83.5599997
   8.0159992  79.9444990  83.8489997   9.4319992  79.8274990  84.3709997
   8.8706873  79.8871838  83.7091190   3.7549992  81.5164990  82.3869997
   2.8659992  81.6154990  82.0469997   4.0509992  80.6744990  82.0409997
   3.6734001  81.4162473  82.2937318   7.4079992  81.5164990  80.0429997
   8.3399992  81.6454990  80.2209997   7.1929992  82.1854990  79.3939997
   7.5064245  81.6246452  79.9795602  13.3319992  79.1224990  86.8239997
  12.6549992  79.2534990  87.4879997  12.8459992  78.9674990  86.0139997
  13.1737265  79.1194665  86.8053380  16.6189992  94.7934990  93.1009997
  16.8189992  95.2174990  92.2659997  17.2749992  95.1374990  93.7079997
  16.7349916  94.8979784  93.0687890   4.2169992  87.2674990  92.7089997
   4.9489992  87.5224990  93.2699997   3.4369992  87.4724990  93.2239997
   4.2117684  87.3301457  92.8554774  10.2469992  82.6744990  85.4469997
  10.8109992  82.1284990  84.8999997  10.0989992  82.1534990  86.2359997
  10.3043037  82.5291798  85.4787212   5.2489992  78.8114990  81.8649997
   4.9309992  77.9084990  81.8299997   6.0299992  78.8134990  81.3129997
   5.3111560  78.6881148  81.7854975   8.8729992  81.0634990  87.8609997
   8.0379992  81.5174990  87.9709997   9.3969992  81.3394990  88.6129997
   8.8295070  81.1629677  87.9777134   9.4169992  87.2764990  79.5459997
   8.6719992  86.7684990  79.2229997   9.2829992  87.3254990  80.4919997
   9.2968633  87.2135714  79.6297563  16.5669992  86.4094990  88.3319997
  17.2089992  86.8654990  87.7889997  15.7369992  86.5224990  87.8699997
  16.5427352  86.4873223  88.1950234  13.3149992  80.0904990  77.7449997
  12.3759992  80.2014990  77.5939997  13.6119992  80.9464990  78.0509997
  13.2266371  80.2215327  77.7657362  10.9369992  87.4604990  90.7829997
  10.5909992  87.0784990  91.5889997  10.7369992  88.3934990  90.8539997
  10.8625399  87.5343489  90.9030401  14.0329992  81.9574990  79.4059997
  14.9249992  81.8194990  79.7249997  14.0899992  82.7484990  78.8689997
  14.1627380  82.0454777  79.3770981   4.5419992  86.5714990  85.3149997
   5.2869992  86.5684990  84.7139997   4.6199992  85.7474990  85.7969997
   4.6544159  86.4597928  85.2979136  11.5429992  88.7344990  78.5709997
  11.2479992  89.5614990  78.9529997  10.8399992  88.1154990  78.7669997
  11.4075855  88.7639458  78.6497634   1.5499992  85.0314990  90.6299997
   1.7729992  84.6134990  91.4619997   0.9479992  84.4194990  90.2079997
   1.4990802  84.8915216  90.6867561   8.5669992  84.5484990  92.8429997
   8.2709992  84.3834990  91.9479997   9.4979992  84.3284990  92.8329997
   8.6523909  84.4961274  92.7190110  13.1869992  89.9224990  90.7329997
  12.2859992  90.1054990  90.4649997  13.2209992  90.1814990  91.6539997
  13.0683021  89.9825505  90.8208206  18.9179992  82.1664990  79.0999997
  18.3639992  81.7704990  78.4279997  19.0189992  83.0774990  78.8229997
  18.8557084  82.2353565  78.9704381  18.8809992  87.9674990  91.9369997
  18.0299992  88.2054990  91.5699997  19.4719992  87.9504990  91.1839997
  18.8442468  87.9978251  91.7848902  17.2129992  90.9524990  79.5649997
  16.8409992  90.1274990  79.8749997  17.4909992  90.7694990  78.6679997
  17.1995997  90.8146160  79.4861551  14.3739992  85.7604990  86.5869997
  13.4459992  85.5294990  86.5599997  14.8249992  84.9834990  86.2569997
  14.3078165  85.6237785  86.5386772   6.9169992  90.0894990  82.7199997
   7.4439992  90.8624990  82.5189997   6.0369992  90.3134990  82.4179997
   6.8701793  90.2256652  82.6516304   8.3439992  87.7524990  82.2959997
   8.1029992  88.6774990  82.3379997   7.6039992  87.2934990  82.6919997
   8.2108934  87.8170881  82.3553191   8.8589992  91.9014990  88.6109997
   9.2219992  92.7554990  88.3779997   9.3909992  91.6094990  89.3519997
   8.9805141  91.9788907  88.6792079   7.0269992  92.7734990  81.8409997
   6.0779992  92.8794990  81.8929997   7.3789992  93.5944990  82.1859997
   6.9446214  92.8989361  81.8947317  12.4029992  88.0004990  88.3119997
  11.9769992  87.7724990  89.1379997  12.9839992  87.2614990  88.1289997
  12.4231587  87.8694084  88.4004111  14.6059992  88.9294990  77.3859997
  14.9589992  88.5494990  78.1899997  13.6569992  88.8354990  77.4719997
  14.5260985  88.8647330  77.5077738  15.0619992  92.5524990  90.7809997
  14.4599992  91.9964990  90.2859997  15.3429992  93.2194990  90.1549997
  15.0175757  92.5665755  90.6285657   3.1839992  79.7854990  90.1879997
   2.2909992  80.1234990  90.1209997   3.0849992  78.9294990  90.6059997
   3.0485241  79.7160941  90.2352982  15.4719992  87.6014990  79.6119997
  15.1949992  86.8734990  80.1679997  16.3989992  87.7204990  79.8179997
  15.5594181  87.5180068  79.7158972   2.8349992  91.5894990  88.6229997
   3.0519992  90.6574990  88.5919997   3.0819992  91.8644990  89.5069997
   2.8980543  91.4990877  88.7381412   7.6339992  89.6114990  78.2889997
   7.7809992  89.0914990  79.0789997   7.6309992  90.5184990  78.5949997
   7.6537300  89.6628975  78.4385877  11.9179992  79.5264990  89.0779997
  12.6169992  79.6004990  89.7279997  11.5379992  78.6614990  89.2329997
  11.9622095  79.4197402  89.1877982  12.7029992  79.1784990  80.1749997
  12.9229992  79.6494990  79.3719997  13.2609992  79.5724990  80.8459997
  12.8085851  79.2963272  80.1556134  10.3719992  91.3084990  79.0379997
   9.5549992  91.8054990  79.0909997  10.9009992  91.7844990  78.3979997
  10.3317898  91.4408123  78.9587274   9.9029992  80.9064990  81.0099997
  10.7149992  81.4104990  81.0559997   9.6579992  80.7614990  81.9239997
   9.9811091  80.9559366  81.1398552  10.4389992  81.8924990  90.1949997
  10.5579992  82.4664990  90.9519997  11.0939992  81.2044990  90.3099997
  10.5438684  81.8780205  90.3141656  10.7869992  77.9874990  81.9479997
  10.4399992  78.6044990  82.5929997  11.4449992  78.4884990  81.4669997
  10.8285290  78.1396384  81.9711635   7.7099992  92.3524990  79.0199997
   7.8709992  93.1524990  78.5189997   7.5129992  92.6594990  79.9049997
   7.7053919  92.5034140  79.0710988  16.6429992  79.7994990  91.0299997
  15.7269992  80.0614990  90.9419997  16.9789992  79.7964990  90.1329997
  16.5629789  79.8349637  90.8967829  15.2449992  83.5494990  85.1259997
  14.4479992  83.1344990  84.7969997  15.6899992  82.8594990  85.6169997
  15.1960317  83.3993197  85.1473556   4.7029992  89.4774990  77.6959997
   5.2949992  90.1774990  77.9719997   5.1619992  89.0444990  76.9769997
   4.8461172  89.5147371  77.6365163  16.3319992  92.8054990  86.7479997
  16.1759992  93.4844990  86.0909997  17.2639992  92.8774990  86.9509997
  16.4367328  92.9081586  86.6855529   3.8269992  76.9234990  85.4849997
   3.5979992  76.9824990  84.5579997   3.3839992  76.1324990  85.7919997
   3.7357387  76.8246412  85.3995223   2.7569992  90.8644990  81.6459997
   1.9249992  91.3364990  81.6729997   3.3029992  91.3744990  81.0469997
   2.7168710  90.9980317  81.5687570   2.0459992  93.4764990  92.9759997
   2.5859992  93.2604990  93.7349997   1.5639992  92.6714990  92.7859997
   2.0549101  93.3380216  93.0544364   6.6429992  92.3964990  94.5959997
   7.4109992  91.9374990  94.9369997   6.6219992  92.1704990  93.6659997
   6.7452135  92.3031680  94.5169473  13.2199992  90.7764990  93.3249997
  12.8689992  89.9194990  93.5679997  13.9459992  90.9184990  93.9319997
  13.2701590  90.6785189  93.4402889   1.9529992  87.2874990  93.9299997
   2.0969992  86.3854990  93.6439997   1.1799992  87.5734990  93.4419997
   1.8682854  87.2026876  93.8249363   8.6079992  87.2564990  93.3629997
   8.2799992  87.5274990  92.5049997   8.7599992  86.3154990  93.2749997
   8.5836970  87.1663694  93.2337953  14.3429992  87.1724990  90.7459997
  15.0879992  87.7614990  90.6259997  13.5849992  87.7544990  90.8089997
  14.3425185  87.3317000  90.7380940   2.7849992  84.4874990  93.3499997
   3.1929992  83.6304990  93.2289997   2.5249992  84.5014990  94.2709997
   2.8057082  84.3720596  93.4579469   7.4429992  85.6034990  78.3679997
   6.9839992  85.1194990  79.0539997   7.6979992  84.9344990  77.7319997
   7.4146178  85.4468511  78.3759785   6.7319992  83.4964990  90.7239997
   6.1139992  84.1704990  91.0049997   7.0759992  83.8174990  89.8909997
   6.6938181  83.6323233  90.6498266  11.7519992  85.9674990  94.0019997
  12.7049992  86.0514990  93.9739997  11.5919992  85.2554990  94.6209997
  11.8608161  85.8827198  94.0818689   7.0719992  80.8514990  91.8069997
   7.2219992  80.1224990  91.2039997   7.0739992  81.6284990  91.2479997
   7.0927664  80.8568971  91.6490525   7.4839992  79.2204990  89.2989997
   8.0199992  79.6724990  88.6469997   6.6319992  79.1124990  88.8769997
   7.4421648  79.2677883  89.1526395   9.0659992  84.6604990  89.5389997
   9.8169992  84.5044990  88.9659997   8.7269992  85.5124990  89.2629997
   9.1229052  84.7542745  89.4233469  13.4819992  82.4754990  94.5669997
  13.6739992  81.5444990  94.4559997  14.3389992  82.9004990  94.5569997
  13.6242320  82.4054743  94.5504433  14.7979992  85.2644990  92.6449997
  14.5169992  85.9734990  92.0669997  15.7409992  85.1914990  92.4939997
  14.8869272  85.3516704  92.5454976   5.5499992  82.0494990  93.7179997
   4.7829992  81.5164990  93.5079997   6.2289992  81.7394990  93.1189997
   5.5368292  81.9346360  93.6082693   8.2899992  76.6774990  89.7309997
   8.1919992  77.6234990  89.6249997   7.5469992  76.3044990  89.2549997
   8.1762363  76.7565987  89.6522029   9.5539992  80.9984990  93.2939997
   9.3179992  80.7794990  94.1959997   8.7709992  80.7914990  92.7849997
   9.4158444  80.9405688  93.3484518  12.2699992  80.1264990  92.3699997
  11.3219992  80.1584990  92.5019997  12.5819992  79.5004990  93.0239997
  12.1825293  80.0462934  92.4764130  13.9039992  78.7604990  94.3749997
  13.8069992  77.8084990  94.3689997  13.5819992  79.0284990  95.2359997
  13.8472229  78.6664706  94.4905108   3.7309992  79.9694990  93.4229997
   3.9419992  79.2634990  92.8119997   3.6189992  79.5324990  94.2669997
   3.7447674  79.8136376  93.4534199   8.5119992  75.9714990  92.4019997
   9.2229992  75.3314990  92.3879997   8.4109992  76.2374990  91.4879997
   8.5956732  75.9198451  92.2765475   8.8649992  77.6534990  94.4559997
   8.7339992  77.1784990  93.6349997   8.2659992  78.3984990  94.3999997
   8.7661524  77.6891968  94.3361553   8.4119992  94.5364990  77.6319997
   9.3449992  94.6944990  77.7759997   8.1469992  95.2124990  77.0069997
   8.5039846  94.6494567  77.5672930   0.6289992  94.5664990  82.1919997
  -0.0180008  94.1044990  81.6589997   0.9839992  93.8944990  82.7749997
   0.5883861  94.4124707  82.1977939   1.4989992  92.6464990  83.9969997
   1.1649992  91.7664990  84.1689997   1.7209992  92.9924990  84.8609997
   1.4832677  92.5727365  84.1374252  19.0479992  93.4564990  86.9769997
  19.0259992  93.6414990  87.9159997  19.7379992  94.0244990  86.6359997
  19.1383439  93.5586898  87.0594774  18.6109992  93.0234990  89.8989997
  18.1239992  92.2874990  89.5279997  19.1599992  92.6294990  90.5769997
  18.6186101  92.8696267  89.9399034  17.0619992  88.8134990  94.5369997
  16.1959992  88.7084990  94.9309997  17.4379992  89.5714990  94.9839997
  16.9943768  88.9016151  94.6513258  18.3629992  87.0694990  80.0509997
  19.2129992  87.4904990  80.1789997  18.3679992  86.3294990  80.6589997
  18.4799745  87.0271347  80.1506479  18.7569992  85.1234990  81.8749997
  18.0309992  84.6434990  82.2729997  19.3379992  85.3284990  82.6069997
  18.7362504  85.0855592  82.0284199  18.5159992  87.9084990  86.8229997
  19.3499992  87.5304990  86.5419997  18.6279992  88.8514990  86.7039997
  18.6451917  87.9842954  86.7684844  17.0019992  90.7864990  89.1299997
  16.3549992  91.1114990  89.7549997  16.4849992  90.3454990  88.4549997
  16.8434068  90.7714726  89.1244918  16.5439992  83.6444990  82.4379997
  16.3939992  82.6994990  82.4179997  16.1899992  83.9254990  83.2819997
  16.4756351  83.5531656  82.5493202   1.5789992  85.7224990  86.4479997
   1.7629992  85.6404990  85.5129997   2.4279992  85.5984990  86.8719997
   1.7190259  85.6944915  86.3771771  17.3999992  85.6144990  92.0769997
  17.9829992  84.8794990  92.2679997  17.9639992  86.3864990  92.1229997
  17.5560326  85.6182746  92.1093579  18.8969992  83.5174990  92.7609997
  18.0329992  83.1384990  92.5959997  19.5009992  82.7784990  92.6869997
  18.8604912  83.3657937  92.7284360  16.2539992  81.2264990  80.8999997
  16.5339992  80.3194990  81.0249997  17.0129992  81.6604990  80.5109997
  16.3949471  81.1610654  80.8645052  16.8659992  81.8084990  86.3359997
  17.7989992  82.0204990  86.3019997  16.6309992  81.9094990  87.2589997
  16.9618357  81.8511303  86.4560232  16.8949992  82.5454990  89.1119997
  16.0519992  82.8134990  89.4779997  17.3379992  83.3674990  88.9009997
  16.8394358  82.6933294  89.1335999   1.1759992  80.9924990  92.5889997
   2.0959992  80.8704990  92.8249997   0.7269992  80.2424990  92.9779997
   1.2411561  80.8743720  92.6739015  19.1779992  76.5254990  94.4659997
  19.5279992  75.8714990  93.8599997  19.3249992  77.3624990  94.0259997
  19.2457192  76.5492545  94.3236712  16.8679992  78.4894990  80.9489997
  17.0499992  78.0404990  81.7739997  16.2679992  77.9054990  80.4849997
  16.8118187  78.3490563  80.9992721   2.3979992  79.3054990  85.4799997
   2.8429992  78.5134990  85.7819997   2.8639992  80.0214990  85.9109997
   2.5219059  79.2939485  85.5796061   0.7019992  82.3044990  86.5489997
   1.1939992  82.0834990  85.7589997   1.0639992  83.1444990  86.8299997
   0.8183429  82.3878220  86.4787918  18.6979992  78.6344990  92.8149997
  17.7809992  78.9054990  92.7789997  18.8209992  78.0994990  92.0309997
  18.5890828  78.5992711  92.7040767   1.0149992  78.5624990  80.6039997
   0.0899992  78.7704990  80.4739997   1.4689992  79.0464990  79.9139997
   0.9497401  78.6563895  80.4929433  15.7859992  93.5464990  82.5489997
  16.4379992  93.1984990  81.9409997  16.2969992  94.0344990  83.1949997
  15.9442872  93.5648248  82.5530964   0.9789992  77.3004990  88.9479997
   0.3139992  77.0544990  89.5909997   0.5359992  77.9224990  88.3709997
   0.8281168  77.3509225  88.9579830   3.1709992  90.4754990  93.0919997
   2.3499992  90.6504990  92.6319997   2.9189992  90.4024990  94.0129997
   3.0246173  90.4895806  93.1534954   6.1249992  91.4494990  89.3509997
   5.6999992  92.2594990  89.0679997   7.0289992  91.5354990  89.0489997
   6.1891002  91.5718728  89.2714798  10.4359992  92.8484990  92.3099997
  10.6209992  92.5154990  93.1879997  11.2829992  93.1584990  91.9879997
  10.5757291  92.8448214  92.3866140  12.7809992  94.1344990  91.5539997
  13.4579992  93.5014990  91.3139997  13.1029992  94.5354990  92.3619997
  12.9171280  94.1020638  91.6303190  17.6989992  76.7244990  90.6339997
  16.8859992  77.0494990  90.2459997  17.9319992  75.9634990  90.1009997
  17.6192566  76.6661570  90.5089196   3.5269992  94.7064990  89.3979997
   2.8059992  95.1464990  88.9469997   3.1609992  94.4554990  90.2469997
   3.3789785  94.7327691  89.4509849   5.9939992  94.3064990  88.4279997
   5.1289992  94.3784990  88.8319997   5.9389992  94.8534990  87.6439997
   5.8682066  94.3902678  88.3773371  10.7049992  94.1944990  87.6039997
  10.2479992  94.7234990  86.9499997  10.8669992  94.7974990  88.3289997
  10.6643919  94.3483990  87.6125740  13.0319992  93.0724990  88.5489997
  12.1279992  93.2374990  88.2829997  13.4609992  93.9254990  88.4829997
  12.9662017  93.2104184  88.5036495  15.6359992  94.6424990  88.8439997
  15.4549992  95.5584990  88.6329997  15.8129992  94.2314990  87.9969997
  15.6351377  94.7123365  88.7007178   2.9419992  93.3294990  86.3089997
   2.9229992  92.9034990  87.1659997   3.7459992  93.0104990  85.8999997
   3.0481393  93.2280297  86.3710155   5.0829992  92.0394990  84.9639997
   4.8639992  91.1224990  85.1329997   5.9069992  92.1794990  85.4299997
   5.1644637  91.9329586  85.0501414   7.6199992  92.5094990  85.8119997
   7.8329992  91.6214990  85.5249997   7.6849992  92.4744990  86.7669997
   7.6579075  92.3833318  85.9017355  11.1289992  78.1734990  84.9569997
  10.4539992  77.5434990  85.2119997  11.6929992  77.6894990  84.3539997
  11.1129558  78.0219283  84.9103451  16.2709992  76.2804990  85.0689997
  16.8749992  76.8284990  84.5679997  15.4019992  76.5994990  84.8289997
  16.2361126  76.3987070  84.9679180  17.9979992  77.4194990  83.4029997
  18.6099992  76.9054990  82.8759997  18.3809992  78.2964990  83.4259997
  18.1333867  77.4677613  83.3340888   3.4549992  76.8074990  82.7789997
   2.6779992  76.5724990  82.2709997   3.9859992  76.0104990  82.7879997
   3.4204443  76.6676721  82.7107200   8.0349992  76.7334990  82.5919997
   8.9089992  77.1224990  82.5619997   7.8989992  76.5184990  83.5149997
   8.1363125  76.7577120  82.7126523  13.5909992  76.7634990  84.2409997
  13.6679992  76.8594990  83.2919997  13.3159992  75.8564990  84.3699997
  13.5643407  76.6539188  84.1283532  14.9449992  76.7894990  79.9339997
  14.2419992  77.4044990  79.7239997  14.4999992  75.9524990  80.0649997
  14.7886550  76.7604679  79.9229819   2.1929992  92.5534990  79.4799997
   1.5079992  92.5154990  78.8119997   2.1959992  93.4654990  79.7679997
   2.0997358  92.6716744  79.4276145  11.0569992  93.7624990  77.8769997
  11.9229992  94.1294990  77.6989997  10.8099992  93.3234990  77.0639997
  11.1422041  93.7533648  77.7425958  17.7659992  93.3254990  80.5569997
  17.5719992  92.5774990  79.9919997  17.7269992  94.0834990  79.9729997
  17.7341907  93.3255770  80.4008077   3.4129992  77.3214990  92.2959997
   3.0469992  76.5554990  92.7389997   4.3259992  77.3504990  92.5829997
   3.4863225  77.2206917  92.3953441   5.3859992  76.6714990  93.8319997
   6.2849992  76.3974990  93.6469997   4.9999992  75.9294990  94.2959997
   5.4567237  76.5336520  93.8694693  13.8069992  76.0044990  94.0139997
  13.8839992  75.5784990  94.8679997  14.7009992  76.0174990  93.6719997
  13.9383315  75.9480320  94.0845052  16.9839992  92.0764990  92.7069997
  16.2019992  91.8904990  92.1869997  16.9119992  93.0064990  92.9239997
  16.8672975  92.1766973  92.6651822  31.3899992  85.9634990  82.7369997
  31.4789992  86.9074990  82.6049997  30.7509992  85.6884990  82.0789997
  31.3158319  86.0554984  82.6300276  30.3229992  85.2184990  86.1559997
  30.2839992  84.5724990  86.8609997  29.9999992  84.7514990  85.3849997
  30.2740199  85.0670089  86.1482865  22.6909992  84.8324990  87.7489997
  22.7319992  84.2074990  88.4729997  23.3939992  85.4564990  87.9309997
  22.7916054  84.8313262  87.8726311  34.0289992  88.1574990  84.4579997
  33.5879992  87.4374990  84.9079997  34.0159992  88.8784990  85.0879997
  33.9668398  88.1563187  84.6047734  23.6149992  89.2824990  86.2839997
  23.2449992  88.4804990  85.9149997  24.5559992  89.1144990  86.3309997
  23.6915630  89.1498680  86.2397873  20.2249992  82.9424990  81.6769997
  19.7769992  83.7884990  81.6589997  19.6639992  82.3634990  81.1619997
  20.0878546  82.9799004  81.6048874  20.9349992  85.1044990  83.8029997
  21.1489992  84.3344990  84.3299997  21.6729992  85.1944990  83.1999997
  21.0640073  85.0113546  83.7935786  31.1399992  93.2614990  84.6699997
  31.7599992  92.5854990  84.3969997  30.9319992  93.0434990  85.5779997
  31.1967360  93.1394792  84.7554387  28.7119992  87.6504990  86.5619997
  29.0159992  86.9644990  85.9679997  29.4339992  87.7694990  87.1799997
  28.8511152  87.5727201  86.5642106  37.3749992  79.2524990  87.4229997
  37.4239992  79.8624990  88.1589997  37.8009992  79.7134990  86.6999997
  37.4392851  79.3983266  87.4260532  31.8529992  82.0444990  86.8899997
  31.9949992  81.0984990  86.9099997  31.7469992  82.2514990  85.9609997
  31.8581158  81.9429722  86.7672241  25.0079992  80.1464990  84.1619997
  25.0509992  81.0064990  83.7439997  24.5499992  79.5934990  83.5289997
  24.9519613  80.1895689  84.0191276  32.7299992  80.2774990  82.5629997
  33.3759992  79.9484990  83.1879997  33.2399992  80.7944990  81.9399997
  32.8874392  80.3023710  82.5643248  21.6279992  82.5434990  84.9239997
  22.2819992  81.9934990  85.3559997  21.6519992  82.2694990  84.0079997
  21.7207022  82.4312005  84.8591698  26.7839992  84.0934990  84.1399997
  27.3999992  83.5664990  84.6489997  26.1979992  83.4534990  83.7359997
  26.7890652  83.9348919  84.1550277  37.7669992  80.7304990  89.6589997
  37.0779992  81.3884990  89.5639997  37.7819992  80.5324990  90.5959997
  37.6747756  80.7937614  89.7725795  23.8179992  79.0644990  88.2359997
  23.5989992  79.5944990  87.4699997  23.1499992  79.2904990  88.8839997
  23.6977271  79.1676508  88.2186206  31.1869992  88.5644990  81.7799997
  30.8909992  88.2414990  80.9289997  30.8629992  89.4644990  81.8219997
  31.1026501  88.6419058  81.6690893  26.3869992  86.7394990  88.5239997
  25.6469992  87.3384990  88.6269997  27.1009992  87.2934990  88.2079997
  26.3823288  86.8962368  88.4953787  34.4939992  79.5684990  84.5439997
  34.2789992  78.8024990  85.0759997  35.1499992  80.0404990  85.0569997
  34.5532451  79.5274472  84.6861699  23.4119992  80.9564990  86.1889997
  24.0249992  81.5894990  86.5619997  23.9239992  80.4844990  85.5319997
  23.5651680  80.9794006  86.1512830  24.7939992  88.7044990  89.3109997
  24.7889992  89.5834990  88.9329997  23.9409992  88.6204990  89.7359997
  24.6779199  88.8135901  89.3166942  20.9159992  88.3754990  80.0929997
  20.6439992  88.6044990  79.2039997  20.9609992  89.2124990  80.5529997
  20.8848709  88.5201069  80.0336089  34.5409992  89.9964990  86.8059997
  33.5989992  90.0554990  86.9669997  34.8169992  90.9024990  86.6689997
  34.4495771  90.1270270  86.8094827  34.8409992  78.2834990  88.2229997
  34.1049992  78.8934990  88.1849997  35.5249992  78.6984990  87.6969997
  34.8325885  78.4231924  88.1466931  27.8439992  76.3694990  85.6889997
  27.7269992  75.4214990  85.6349997  26.9889992  76.7024990  85.9619997
  27.7123691  76.2845842  85.7185072  32.7929992  91.7774990  83.4309997
  33.2179992  91.0704990  82.9459997  33.1099992  92.5794990  83.0139997
  32.8940266  91.7890201  83.3082461  33.9519992  89.6784990  81.9399997
  33.6949992  88.9884990  81.3279997  34.0229992  89.2354990  82.7849997
  33.9264322  89.5241568  81.9705372  35.6379992  88.2454990  90.4169997
  35.7779992  87.6534990  89.6779997  35.8059992  89.1184990  90.0609997
  35.6798734  88.2824041  90.2676937  30.1109992  85.2074990  80.1889997
  29.3989992  85.7424990  79.8379997  30.8019992  85.2624990  79.5289997
  30.1068696  85.2882591  80.0516372  37.4799992  84.5854990  88.4829997
  36.8279992  85.2794990  88.5719997  37.9449992  84.7954990  87.6729997
  37.4535357  84.7089544  88.3857056  33.5169992  85.4164990  81.1409997
  32.7849992  85.6454990  81.7139997  33.9639992  84.7034990  81.5959997
  33.4772753  85.3513984  81.2809698  33.4139992  83.5914990  90.2089997
  33.4939992  84.3544990  90.7809997  32.8129992  83.8704990  89.5179997
  33.3437115  83.7337707  90.1939631  25.1619992  86.0474990  83.0239997
  24.8319992  85.6764990  82.2049997  25.7499992  85.3764990  83.3699997
  25.1964056  85.9061257  82.9589035  26.5289992  89.4754990  85.7049997
  26.4339992  88.8964990  84.9479997  27.2579992  89.1044990  86.2009997
  26.6146161  89.3460902  85.6685191  25.5289992  84.8154990  86.6569997
  26.0939992  84.9374990  85.8939997  25.8469992  85.4534990  87.2959997
  25.6493430  84.9184448  86.6389094  31.8379992  90.3194990  87.3909997
  31.5969992  90.9814990  88.0389997  31.6399992  89.4844990  87.8159997
  31.7782662  90.2972704  87.5371008  26.4089992  89.2154990  91.3739997
  26.0969992  89.9974990  91.8299997  25.7589992  89.0624990  90.6879997
  26.2784643  89.3018019  91.3436657  32.3879992  84.5794990  78.8259997
  32.9669992  84.7294990  79.5729997  32.8019992  85.0494990  78.1029997
  32.5233122  84.6636288  78.8305024  23.3289992  85.4134990  90.6029997
  23.3989992  86.0644990  91.3009997  22.4379992  85.5164990  90.2679997
  23.2181802  85.5164769  90.6532231  30.1139992  91.3154990  82.2619997
  30.5879992  91.6114990  83.0389997  29.5509992  92.0544990  82.0279997
  30.1028460  91.4558336  82.3367626  24.6479992  91.2864990  92.1379997
  24.6559992  91.1504990  91.1899997  23.7319992  91.1694990  92.3899997
  24.5252512  91.2520663  92.0423179  36.0859992  76.3294990  78.6389997
  35.1859992  76.4674990  78.9339997  36.3379992  77.1604990  78.2369997
  35.9967355  76.4608200  78.6250539  24.1519992  85.1164990  80.6129997
  23.8599992  85.8844990  80.1219997  23.4779992  84.4574990  80.4499997
  24.0208843  85.1324537  80.5237695  20.2449992  87.4794990  89.4279997
  19.7439992  87.4514990  88.6129997  20.2509992  86.5744990  89.7379997
  20.1771690  87.3532234  89.3582770  19.9959992  90.2604990  86.3119997
  20.9419992  90.1154990  86.2929997  19.8829992  91.0444990  86.8489997
  20.1103578  90.3466708  86.3820300  38.1929992  90.9264990  91.9939997
  38.1439992  89.9704990  91.9569997  37.3669992  91.1934990  92.3959997
  38.0745767  90.8318841  92.0433133  29.1719992  90.5004990  90.8699997
  29.2589992  91.3264990  91.3449997  28.3079992  90.1704990  91.1189997
  29.0671944  90.5689871  90.9686558  29.5859992  94.2724990  80.6759997
  29.5109992  94.1514990  79.7299997  29.6189992  95.2214990  80.7949997
  29.5801862  94.3842492  80.5624840  23.2399992  93.0614990  82.4569997
  23.3919992  92.7134990  83.3359997  22.3889992  92.7044990  82.2019997
  23.1457899  92.9656749  82.5427322  32.3569992  93.3524990  80.4279997
  31.4219992  93.4524990  80.6069997  32.6369992  92.6424990  81.0059997
  32.2669270  93.2702300  80.5305984  35.3449992  82.4194990  92.4739997
  34.9379992  82.8994990  91.7539997  35.3859992  81.5134990  92.1669997
  35.2947178  82.3628609  92.3337441  22.4939992  88.8034990  90.4709997
  22.7099992  88.4414990  91.3309997  21.6389992  88.4284990  90.2609997
  22.4079349  88.7032914  90.5602134  25.1129992  77.2734990  86.4669997
  24.2509992  77.1864990  86.0589997  25.0909992  78.1294990  86.8939997
  24.9920953  77.3773558  86.4689262  29.7759992  76.9954990  89.8409997
  30.1959992  76.5804990  90.5939997  28.8429992  76.8164990  89.9579997
  29.7073736  76.9144921  89.9598950  33.1019992  80.7504990  90.6949997
  32.5879992  80.6254990  91.4919997  32.9469992  81.6634990  90.4499997
  33.0106643  80.8567068  90.7710624  25.2039992  82.2384990  87.5619997
  24.5619992  82.1984990  88.2709997  25.2409992  83.1654990  87.3239997
  25.1211659  82.3582540  87.6268463  25.2009992  82.4594990  82.4739997
  24.3079992  82.1194990  82.4149997  25.6519992  82.0824990  81.7179997
  25.1397185  82.3620220  82.3637698  30.7369992  82.8754990  81.2909997
  30.3279992  83.6904990  80.9989997  31.4569992  82.7354990  80.6759997
  30.7783946  82.9679963  81.1679616  29.8389992  83.0514990  92.7789997
  29.2759992  82.3464990  93.0989997  30.6649992  82.9304990  93.2459997
  29.8736423  82.9385614  92.8860168  31.7409992  82.3214990  84.1049997
  31.5459992  82.9274990  83.3899997  31.9229992  81.4884990  83.6699997
  31.7389272  82.2917955  83.9484075  22.9539992  82.5594990  89.4289997
  22.9159992  82.9594990  90.2969997  22.4629992  81.7424990  89.5189997
  22.8824246  82.5038842  89.5601171  19.5619992  79.6754990  83.2789997
  20.1929992  79.6464990  83.9989997  20.0119992  79.2504990  82.5489997
  19.7090905  79.6140839  83.2787479  20.8359992  80.4214990  78.7029997
  21.3109992  81.0124990  78.1179997  20.1189992  80.9514990  79.0499997
  20.8040406  80.5741011  78.6698495  31.0049992  83.9594990  88.7759997
  31.3289992  83.3284990  88.1329997  30.5649992  83.4254990  89.4369997
  30.9898707  83.8008261  88.7773195  27.7829992  79.8874990  83.5599997
  26.8719992  79.9444990  83.8489997  28.2879992  79.8274990  84.3709997
  27.7266873  79.8871838  83.7091190  22.6109992  81.5164990  82.3869997
  21.7219992  81.6154990  82.0469997  22.9069992  80.6744990  82.0409997
  22.5294001  81.4162473  82.2937318  26.2639992  81.5164990  80.0429997
  27.1959992  81.6454990  80.2209997  26.0489992  82.1854990  79.3939997
  26.3624245  81.6246452  79.9795602  32.1879992  79.1224990  86.8239997
  31.5109992  79.2534990  87.4879997  31.7019992  78.9674990  86.0139997
  32.0297265  79.1194665  86.8053380  35.4749992  94.7934990  93.1009997
  35.6749992  95.2174990  92.2659997  36.1309992  95.1374990  93.7079997
  35.5909916  94.8979784  93.0687890  23.0729992  87.2674990  92.7089997
  23.8049992  87.5224990  93.2699997  22.2929992  87.4724990  93.2239997
  23.0677684  87.3301457  92.8554774  29.1029992  82.6744990  85.4469997
  29.6669992  82.1284990  84.8999997  28.9549992  82.1534990  86.2359997
  29.1603037  82.5291798  85.4787212  24.1049992  78.8114990  81.8649997
  23.7869992  77.9084990  81.8299997  24.8859992  78.8134990  81.3129997
  24.1671560  78.6881148  81.7854975  27.7289992  81.0634990  87.8609997
  26.8939992  81.5174990  87.9709997  28.2529992  81.3394990  88.6129997
  27.6855070  81.1629677  87.9777134  28.2729992  87.2764990  79.5459997
  27.5279992  86.7684990  79.2229997  28.1389992  87.3254990  80.4919997
  28.1528633  87.2135714  79.6297563  35.4229992  86.4094990  88.3319997
  36.0649992  86.8654990  87.7889997  34.5929992  86.5224990  87.8699997
  35.3987352  86.4873223  88.1950234  29.7929992  87.4604990  90.7829997
  29.4469992  87.0784990  91.5889997  29.5929992  88.3934990  90.8539997
  29.7185399  87.5343489  90.9030401  32.8889992  81.9574990  79.4059997
  33.7809992  81.8194990  79.7249997  32.9459992  82.7484990  78.8689997
  33.0187380  82.0454777  79.3770981  23.3979992  86.5714990  85.3149997
  24.1429992  86.5684990  84.7139997  23.4759992  85.7474990  85.7969997
  23.5104158  86.4597928  85.2979136  30.3989992  88.7344990  78.5709997
  30.1039992  89.5614990  78.9529997  29.6959992  88.1154990  78.7669997
  30.2635855  88.7639458  78.6497634  20.4059992  85.0314990  90.6299997
  20.6289992  84.6134990  91.4619997  19.8039992  84.4194990  90.2079997
  20.3550802  84.8915216  90.6867561  27.4229992  84.5484990  92.8429997
  27.1269992  84.3834990  91.9479997  28.3539992  84.3284990  92.8329997
  27.5083909  84.4961274  92.7190110  32.0429992  89.9224990  90.7329997
  31.1419992  90.1054990  90.4649997  32.0769992  90.1814990  91.6539997
  31.9243021  89.9825505  90.8208206  37.7739992  82.1664990  79.0999997
  37.2199992  81.7704990  78.4279997  37.8749992  83.0774990  78.8229997
  37.7117084  82.2353565  78.9704381  37.7369992  87.9674990  91.9369997
  36.8859992  88.2054990  91.5699997  38.3279992  87.9504990  91.1839997
  37.7002468  87.9978251  91.7848902  36.0689992  90.9524990  79.5649997
  35.6969992  90.1274990  79.8749997  36.3469992  90.7694990  78.6679997
  36.0555997  90.8146160  79.4861551  33.2299992  85.7604990  86.5869997
  32.3019992  85.5294990  86.5599997  33.6809992  84.9834990  86.2569997
  33.1638165  85.6237785  86.5386772  25.7729992  90.0894990  82.7199997
  26.2999992  90.8624990  82.5189997  24.8929992  90.3134990  82.4179997
  25.7261793  90.2256652  82.6516304  27.1999992  87.7524990  82.2959997
  26.9589992  88.6774990  82.3379997  26.4599992  87.2934990  82.6919997
  27.0668934  87.8170881  82.3553191  27.7149992  91.9014990  88.6109997
  28.0779992  92.7554990  88.3779997  28.2469992  91.6094990  89.3519997
  27.8365141  91.9788907  88.6792079  25.8829992  92.7734990  81.8409997
  24.9339992  92.8794990  81.8929997  26.2349992  93.5944990  82.1859997
  25.8006214  92.8989361  81.8947317  31.2589992  88.0004990  88.3119997
  30.8329992  87.7724990  89.1379997  31.8399992  87.2614990  88.1289997
  31.2791587  87.8694084  88.4004111  33.9179992  92.5524990  90.7809997
  33.3159992  91.9964990  90.2859997  34.1989992  93.2194990  90.1549997
  33.8735757  92.5665755  90.6285657  37.9649992  93.4084990  77.5869997
  38.7089992  93.9944990  77.4469997  37.2709992  93.9774990  77.9199997
  37.9729809  93.5655830  77.6128572  22.0399992  79.7854990  90.1879997
  21.1469992  80.1234990  90.1209997  21.9409992  78.9294990  90.6059997
  21.9045241  79.7160941  90.2352982  34.3279992  87.6014990  79.6119997
  34.0509992  86.8734990  80.1679997  35.2549992  87.7204990  79.8179997
  34.4154181  87.5180068  79.7158972  21.6909992  91.5894990  88.6229997
  21.9079992  90.6574990  88.5919997  21.9379992  91.8644990  89.5069997
  21.7540543  91.4990877  88.7381412  30.7739992  79.5264990  89.0779997
  31.4729992  79.6004990  89.7279997  30.3939992  78.6614990  89.2329997
  30.8182095  79.4197402  89.1877982  31.5589992  79.1784990  80.1749997
  31.7789992  79.6494990  79.3719997  32.1169992  79.5724990  80.8459997
  31.6645851  79.2963272  80.1556134  29.2279992  91.3084990  79.0379997
  28.4109992  91.8054990  79.0909997  29.7569992  91.7844990  78.3979997
  29.1877898  91.4408123  78.9587274  28.7589992  80.9064990  81.0099997
  29.5709992  81.4104990  81.0559997  28.5139992  80.7614990  81.9239997
  28.8371091  80.9559366  81.1398552  29.2949992  81.8924990  90.1949997
  29.4139992  82.4664990  90.9519997  29.9499992  81.2044990  90.3099997
  29.3998684  81.8780205  90.3141656  29.6429992  77.9874990  81.9479997
  29.2959992  78.6044990  82.5929997  30.3009992  78.4884990  81.4669997
  29.6845290  78.1396384  81.9711635  26.5659992  92.3524990  79.0199997
  26.7269992  93.1524990  78.5189997  26.3689992  92.6594990  79.9049997
  26.5613919  92.5034140  79.0710988  25.2999992  79.0504990  78.6359997
  25.2169992  79.9384990  78.9819997  26.1899992  78.7854990  78.8669997
  25.4089751  79.1362482  78.7146066  35.4989992  79.7994990  91.0299997
  34.5829992  80.0614990  90.9419997  35.8349992  79.7964990  90.1329997
  35.4189789  79.8349637  90.8967829  34.1009992  83.5494990  85.1259997
  33.3039992  83.1344990  84.7969997  34.5459992  82.8594990  85.6169997
  34.0520317  83.3993197  85.1473556  35.1879992  92.8054990  86.7479997
  35.0319992  93.4844990  86.0909997  36.1199992  92.8774990  86.9509997
  35.2927328  92.9081586  86.6855529  22.6829992  76.9234990  85.4849997
  22.4539992  76.9824990  84.5579997  22.2399992  76.1324990  85.7919997
  22.5917387  76.8246412  85.3995223  21.6129992  90.8644990  81.6459997
  20.7809992  91.3364990  81.6729997  22.1589992  91.3744990  81.0469997
  21.5728710  90.9980317  81.5687570  20.9019992  93.4764990  92.9759997
  21.4419992  93.2604990  93.7349997  20.4199992  92.6714990  92.7859997
  20.9109101  93.3380216  93.0544364  25.4989992  92.3964990  94.5959997
  26.2669992  91.9374990  94.9369997  25.4779992  92.1704990  93.6659997
  25.6012135  92.3031680  94.5169473  32.0759992  90.7764990  93.3249997
  31.7249992  89.9194990  93.5679997  32.8019992  90.9184990  93.9319997
  32.1261590  90.6785189  93.4402889  34.1949992  91.7214990  76.2049997
  34.4779992  90.9264990  76.6579997  34.9349992  91.9544990  75.6439997
  34.3337295  91.6442349  76.1911469  20.8089992  87.2874990  93.9299997
  20.9529992  86.3854990  93.6439997  20.0359992  87.5734990  93.4419997
  20.7242854  87.2026876  93.8249363  27.4639992  87.2564990  93.3629997
  27.1359992  87.5274990  92.5049997  27.6159992  86.3154990  93.2749997
  27.4396970  87.1663694  93.2337953  33.1989992  87.1724990  90.7459997
  33.9439992  87.7614990  90.6259997  32.4409992  87.7544990  90.8089997
  33.1985185  87.3317000  90.7380940  21.6409992  84.4874990  93.3499997
  22.0489992  83.6304990  93.2289997  21.3809992  84.5014990  94.2709997
  21.6617082  84.3720596  93.4579469  26.2989992  85.6034990  78.3679997
  25.8399992  85.1194990  79.0539997  26.5539992  84.9344990  77.7319997
  26.2706178  85.4468511  78.3759785  25.5879992  83.4964990  90.7239997
  24.9699992  84.1704990  91.0049997  25.9319992  83.8174990  89.8909997
  25.5498181  83.6323233  90.6498266  30.6079992  85.9674990  94.0019997
  31.5609992  86.0514990  93.9739997  30.4479992  85.2554990  94.6209997
  30.7168161  85.8827198  94.0818689  25.9279992  80.8514990  91.8069997
  26.0779992  80.1224990  91.2039997  25.9299992  81.6284990  91.2479997
  25.9487664  80.8568971  91.6490525  26.3399992  79.2204990  89.2989997
  26.8759992  79.6724990  88.6469997  25.4879992  79.1124990  88.8769997
  26.2981648  79.2677883  89.1526395  27.9219992  84.6604990  89.5389997
  28.6729992  84.5044990  88.9659997  27.5829992  85.5124990  89.2629997
  27.9789052  84.7542745  89.4233469  32.3379992  82.4754990  94.5669997
  32.5299992  81.5444990  94.4559997  33.1949992  82.9004990  94.5569997
  32.4802320  82.4054743  94.5504433  33.6539992  85.2644990  92.6449997
  33.3729992  85.9734990  92.0669997  34.5969992  85.1914990  92.4939997
  33.7429272  85.3516704  92.5454976  24.4059992  82.0494990  93.7179997
  23.6389992  81.5164990  93.5079997  25.0849992  81.7394990  93.1189997
  24.3928292  81.9346360  93.6082693  27.1459992  76.6774990  89.7309997
  27.0479992  77.6234990  89.6249997  26.4029992  76.3044990  89.2549997
  27.0322363  76.7565987  89.6522029  28.4099992  80.9984990  93.2939997
  28.1739992  80.7794990  94.1959997  27.6269992  80.7914990  92.7849997
  28.2718444  80.9405688  93.3484518  31.1259992  80.1264990  92.3699997
  30.1779992  80.1584990  92.5019997  31.4379992  79.5004990  93.0239997
  31.0385293  80.0462934  92.4764130  32.7599992  78.7604990  94.3749997
  32.6629992  77.8084990  94.3689997  32.4379992  79.0284990  95.2359997
  32.7032229  78.6664706  94.4905108  22.5869992  79.9694990  93.4229997
  22.7979992  79.2634990  92.8119997  22.4749992  79.5324990  94.2669997
  22.6007674  79.8136376  93.4534199  27.3679992  75.9714990  92.4019997
  28.0789992  75.3314990  92.3879997  27.2669992  76.2374990  91.4879997
  27.4516732  75.9198451  92.2765475  27.7209992  77.6534990  94.4559997
  27.5899992  77.1784990  93.6349997  27.1219992  78.3984990  94.3999997
  27.6221524  77.6891968  94.3361553  27.2679992  94.5364990  77.6319997
  28.2009992  94.6944990  77.7759997  27.0029992  95.2124990  77.0069997
  27.3599846  94.6494567  77.5672930  19.4849992  94.5664990  82.1919997
  18.8379992  94.1044990  81.6589997  19.8399992  93.8944990  82.7749997
  19.4443861  94.4124707  82.1977939  20.3549992  92.6464990  83.9969997
  20.0209992  91.7664990  84.1689997  20.5769992  92.9924990  84.8609997
  20.3392677  92.5727365  84.1374252  37.9039992  93.4564990  86.9769997
  37.8819992  93.6414990  87.9159997  38.5939992  94.0244990  86.6359997
  37.9943439  93.5586898  87.0594774  37.4669992  93.0234990  89.8989997
  36.9799992  92.2874990  89.5279997  38.0159992  92.6294990  90.5769997
  37.4746101  92.8696267  89.9399034  35.9179992  88.8134990  94.5369997
  35.0519992  88.7084990  94.9309997  36.2939992  89.5714990  94.9839997
  35.8503768  88.9016151  94.6513258  37.2189992  87.0694990  80.0509997
  38.0689992  87.4904990  80.1789997  37.2239992  86.3294990  80.6589997
  37.3359745  87.0271347  80.1506479  37.6129992  85.1234990  81.8749997
  36.8869992  84.6434990  82.2729997  38.1939992  85.3284990  82.6069997
  37.5922504  85.0855592  82.0284199  37.3719992  87.9084990  86.8229997
  38.2059992  87.5304990  86.5419997  37.4839992  88.8514990  86.7039997
  37.5011917  87.9842954  86.7684844  35.8579992  90.7864990  89.1299997
  35.2109992  91.1114990  89.7549997  35.3409992  90.3454990  88.4549997
  35.6994068  90.7714726  89.1244918  37.8809992  85.0244990  78.2659997
  37.3599992  85.3804990  77.5469997  37.8479992  85.6994990  78.9439997
  37.8051525  85.1645273  78.2591408  36.2299992  82.2634990  76.8169997
  36.3269992  82.9304990  76.1369997  36.0899992  81.4484990  76.3349997
  36.2243428  82.2445667  76.6588311  35.3999992  83.6444990  82.4379997
  35.2499992  82.6994990  82.4179997  35.0459992  83.9254990  83.2819997
  35.3316351  83.5531656  82.5493202  20.4349992  85.7224990  86.4479997
  20.6189992  85.6404990  85.5129997  21.2839992  85.5984990  86.8719997
  20.5750259  85.6944915  86.3771771  36.2559992  85.6144990  92.0769997
  36.8389992  84.8794990  92.2679997  36.8199992  86.3864990  92.1229997
  36.4120326  85.6182746  92.1093579  37.7529992  83.5174990  92.7609997
  36.8889992  83.1384990  92.5959997  38.3569992  82.7784990  92.6869997
  37.7164912  83.3657937  92.7284360  35.4779992  79.6714990  75.9339997
  36.0879992  79.3004990  76.5709997  34.6409992  79.2504990  76.1299997
  35.4483704  79.5637942  76.0477077  35.1099992  81.2264990  80.8999997
  35.3899992  80.3194990  81.0249997  35.8689992  81.6604990  80.5109997
  35.2509471  81.1610654  80.8645052  35.7219992  81.8084990  86.3359997
  36.6549992  82.0204990  86.3019997  35.4869992  81.9094990  87.2589997
  35.8178357  81.8511303  86.4560232  35.7509992  82.5454990  89.1119997
  34.9079992  82.8134990  89.4779997  36.1939992  83.3674990  88.9009997
  35.6954358  82.6933294  89.1335999  20.0319992  80.9924990  92.5889997
  20.9519992  80.8704990  92.8249997  19.5829992  80.2424990  92.9779997
  20.0971561  80.8743720  92.6739015  38.0339992  76.5254990  94.4659997
  38.3839992  75.8714990  93.8599997  38.1809992  77.3624990  94.0259997
  38.1017192  76.5492545  94.3236712  35.7239992  78.4894990  80.9489997
  35.9059992  78.0404990  81.7739997  35.1239992  77.9054990  80.4849997
  35.6678187  78.3490563  80.9992721  21.2539992  79.3054990  85.4799997
  21.6989992  78.5134990  85.7819997  21.7199992  80.0214990  85.9109997
  21.3779059  79.2939485  85.5796061  19.5579992  82.3044990  86.5489997
  20.0499992  82.0834990  85.7589997  19.9199992  83.1444990  86.8299997
  19.6743429  82.3878220  86.4787918  37.5539992  78.6344990  92.8149997
  36.6369992  78.9054990  92.7789997  37.6769992  78.0994990  92.0309997
  37.4450828  78.5992711  92.7040767  37.5899992  78.5574990  77.4769997
  38.0029992  77.8364990  77.0009997  38.2719992  79.2264990  77.5349997
  37.7385712  78.5494304  77.4198247  19.8709992  78.5624990  80.6039997
  18.9459992  78.7704990  80.4739997  20.3249992  79.0464990  79.9139997
  19.8057401  78.6563895  80.4929433  34.6419992  93.5464990  82.5489997
  35.2939992  93.1984990  81.9409997  35.1529992  94.0344990  83.1949997
  34.8002872  93.5648248  82.5530964  19.8349992  77.3004990  88.9479997
  19.1699992  77.0544990  89.5909997  19.3919992  77.9224990  88.3709997
  19.6841168  77.3509225  88.9579830  22.0269992  90.4754990  93.0919997
  21.2059992  90.6504990  92.6319997  21.7749992  90.4024990  94.0129997
  21.8806173  90.4895806  93.1534954  24.9809992  91.4494990  89.3509997
  24.5559992  92.2594990  89.0679997  25.8849992  91.5354990  89.0489997
  25.0451002  91.5718728  89.2714798  29.2919992  92.8484990  92.3099997
  29.4769992  92.5154990  93.1879997  30.1389992  93.1584990  91.9879997
  29.4317291  92.8448214  92.3866140  31.6369992  94.1344990  91.5539997
  32.3139992  93.5014990  91.3139997  31.9589992  94.5354990  92.3619997
  31.7731280  94.1020638  91.6303190  36.5549992  76.7244990  90.6339997
  35.7419992  77.0494990  90.2459997  36.7879992  75.9634990  90.1009997
  36.4752566  76.6661570  90.5089196  22.3829992  94.7064990  89.3979997
  21.6619992  95.1464990  88.9469997  22.0169992  94.4554990  90.2469997
  22.2349785  94.7327691  89.4509849  24.8499992  94.3064990  88.4279997
  23.9849992  94.3784990  88.8319997  24.7949992  94.8534990  87.6439997
  24.7242066  94.3902678  88.3773371  29.5609992  94.1944990  87.6039997
  29.1039992  94.7234990  86.9499997  29.7229992  94.7974990  88.3289997
  29.5203919  94.3483990  87.6125740  31.8879992  93.0724990  88.5489997
  30.9839992  93.2374990  88.2829997  32.3169992  93.9254990  88.4829997
  31.8222017  93.2104184  88.5036495  34.4919992  94.6424990  88.8439997
  34.3109992  95.5584990  88.6329997  34.6689992  94.2314990  87.9969997
  34.4911377  94.7123365  88.7007178  21.7979992  93.3294990  86.3089997
  21.7789992  92.9034990  87.1659997  22.6019992  93.0104990  85.8999997
  21.9041393  93.2280297  86.3710155  23.9389992  92.0394990  84.9639997
  23.7199992  91.1224990  85.1329997  24.7629992  92.1794990  85.4299997
  24.0204637  91.9329586  85.0501414  26.4759992  92.5094990  85.8119997
  26.6889992  91.6214990  85.5249997  26.5409992  92.4744990  86.7669997
  26.5139075  92.3833318  85.9017355  29.9849992  78.1734990  84.9569997
  29.3099992  77.5434990  85.2119997  30.5489992  77.6894990  84.3539997
  29.9689558  78.0219283  84.9103451  35.1269992  76.2804990  85.0689997
  35.7309992  76.8284990  84.5679997  34.2579992  76.5994990  84.8289997
  35.0921126  76.3987070  84.9679180  36.8539992  77.4194990  83.4029997
  37.4659992  76.9054990  82.8759997  37.2369992  78.2964990  83.4259997
  36.9893867  77.4677613  83.3340888  22.3109992  76.8074990  82.7789997
  21.5339992  76.5724990  82.2709997  22.8419992  76.0104990  82.7879997
  22.2764443  76.6676721  82.7107200  21.1479992  76.6054990  78.5819997
  21.5869992  77.2164990  77.9909997  20.5139992  77.1434990  79.0559997
  21.1224103  76.7619233  78.5651376  26.8909992  76.7334990  82.5919997
  27.7649992  77.1224990  82.5619997  26.7549992  76.5184990  83.5149997
  26.9923125  76.7577120  82.7126523  32.4469992  76.7634990  84.2409997
  32.5239992  76.8594990  83.2919997  32.1719992  75.8564990  84.3699997
  32.4203407  76.6539188  84.1283532  33.8009992  76.7894990  79.9339997
  33.0979992  77.4044990  79.7239997  33.3559992  75.9524990  80.0649997
  33.6446550  76.7604679  79.9229819  21.0489992  92.5534990  79.4799997
  20.3639992  92.5154990  78.8119997  21.0519992  93.4654990  79.7679997
  20.9557358  92.6716744  79.4276145  28.0349992  78.8144990  79.4819997
  28.2129992  78.1674990  80.1649997  27.9809992  79.6484990  79.9489997
  28.0520678  78.8386615  79.6386283  36.6219992  93.3254990  80.5569997
  36.4279992  92.5774990  79.9919997  36.5829992  94.0834990  79.9729997
  36.5901907  93.3255770  80.4008077  22.2689992  77.3214990  92.2959997
  21.9029992  76.5554990  92.7389997  23.1819992  77.3504990  92.5829997
  22.3423225  77.2206917  92.3953441  24.2419992  76.6714990  93.8319997
  25.1409992  76.3974990  93.6469997  23.8559992  75.9294990  94.2959997
  24.3127237  76.5336520  93.8694693  22.8669992  93.4734990  76.5049997
  22.5989992  93.7594990  77.3779997  23.6379992  92.9274990  76.6569997
  22.9345600  93.4388341  76.6451482  32.6629992  76.0044990  94.0139997
  32.7399992  75.5784990  94.8679997  33.5569992  76.0174990  93.6719997
  32.7943315  75.9480320  94.0845052  35.8399992  92.0764990  92.7069997
  35.0579992  91.8904990  92.1869997  35.7679992  93.0064990  92.9239997
  35.7232975  92.1766973  92.6651822  50.2459992  85.9634990  82.7369997
  50.3349992  86.9074990  82.6049997  49.6069992  85.6884990  82.0789997
  50.1718319  86.0554984  82.6300276  49.1789992  85.2184990  86.1559997
  49.1399992  84.5724990  86.8609997  48.8559992  84.7514990  85.3849997
  49.1300199  85.0670089  86.1482865  41.5469992  84.8324990  87.7489997
  41.5879992  84.2074990  88.4729997  42.2499992  85.4564990  87.9309997
  41.6476054  84.8313262  87.8726311  52.8849992  88.1574990  84.4579997
  52.4439992  87.4374990  84.9079997  52.8719992  88.8784990  85.0879997
  52.8228398  88.1563187  84.6047734  42.4709992  89.2824990  86.2839997
  42.1009992  88.4804990  85.9149997  43.4119992  89.1144990  86.3309997
  42.5475630  89.1498680  86.2397873  39.0809992  82.9424990  81.6769997
  38.6329992  83.7884990  81.6589997  38.5199992  82.3634990  81.1619997
  38.9438546  82.9799004  81.6048874  39.7909992  85.1044990  83.8029997
  40.0049992  84.3344990  84.3299997  40.5289992  85.1944990  83.1999997
  39.9200073  85.0113546  83.7935786  49.9959992  93.2614990  84.6699997
  50.6159992  92.5854990  84.3969997  49.7879992  93.0434990  85.5779997
  50.0527360  93.1394792  84.7554387  47.5679992  87.6504990  86.5619997
  47.8719992  86.9644990  85.9679997  48.2899992  87.7694990  87.1799997
  47.7071152  87.5727201  86.5642106  56.2309992  79.2524990  87.4229997
  56.2799992  79.8624990  88.1589997  56.6569992  79.7134990  86.6999997
  56.2952851  79.3983266  87.4260532  50.7089992  82.0444990  86.8899997
  50.8509992  81.0984990  86.9099997  50.6029992  82.2514990  85.9609997
  50.7141158  81.9429722  86.7672241  43.8639992  80.1464990  84.1619997
  43.9069992  81.0064990  83.7439997  43.4059992  79.5934990  83.5289997
  43.8079613  80.1895689  84.0191276  51.5859992  80.2774990  82.5629997
  52.2319992  79.9484990  83.1879997  52.0959992  80.7944990  81.9399997
  51.7434392  80.3023710  82.5643248  40.4839992  82.5434990  84.9239997
  41.1379992  81.9934990  85.3559997  40.5079992  82.2694990  84.0079997
  40.5767022  82.4312005  84.8591698  45.6399992  84.0934990  84.1399997
  46.2559992  83.5664990  84.6489997  45.0539992  83.4534990  83.7359997
  45.6450652  83.9348919  84.1550277  56.6229992  80.7304990  89.6589997
  55.9339992  81.3884990  89.5639997  56.6379992  80.5324990  90.5959997
  56.5307756  80.7937614  89.7725795  42.6739992  79.0644990  88.2359997
  42.4549992  79.5944990  87.4699997  42.0059992  79.2904990  88.8839997
  42.5537271  79.1676508  88.2186206  50.0429992  88.5644990  81.7799997
  49.7469992  88.2414990  80.9289997  49.7189992  89.4644990  81.8219997
  49.9586501  88.6419058  81.6690893  45.2429992  86.7394990  88.5239997
  44.5029992  87.3384990  88.6269997  45.9569992  87.2934990  88.2079997
  45.2383288  86.8962368  88.4953787  53.3499992  79.5684990  84.5439997
  53.1349992  78.8024990  85.0759997  54.0059992  80.0404990  85.0569997
  53.4092451  79.5274472  84.6861699  42.2679992  80.9564990  86.1889997
  42.8809992  81.5894990  86.5619997  42.7799992  80.4844990  85.5319997
  42.4211680  80.9794006  86.1512830  43.6499992  88.7044990  89.3109997
  43.6449992  89.5834990  88.9329997  42.7969992  88.6204990  89.7359997
  43.5339199  88.8135901  89.3166942  39.7719992  88.3754990  80.0929997
  39.4999992  88.6044990  79.2039997  39.8169992  89.2124990  80.5529997
  39.7408709  88.5201069  80.0336089  53.3969992  89.9964990  86.8059997
  52.4549992  90.0554990  86.9669997  53.6729992  90.9024990  86.6689997
  53.3055771  90.1270270  86.8094827  53.6969992  78.2834990  88.2229997
  52.9609992  78.8934990  88.1849997  54.3809992  78.6984990  87.6969997
  53.6885885  78.4231924  88.1466931  46.6999992  76.3694990  85.6889997
  46.5829992  75.4214990  85.6349997  45.8449992  76.7024990  85.9619997
  46.5683691  76.2845842  85.7185072  51.6489992  91.7774990  83.4309997
  52.0739992  91.0704990  82.9459997  51.9659992  92.5794990  83.0139997
  51.7500266  91.7890201  83.3082461  52.8079992  89.6784990  81.9399997
  52.5509992  88.9884990  81.3279997  52.8789992  89.2354990  82.7849997
  52.7824322  89.5241568  81.9705372  54.4939992  88.2454990  90.4169997
  54.6339992  87.6534990  89.6779997  54.6619992  89.1184990  90.0609997
  54.5358734  88.2824041  90.2676937  48.9669992  85.2074990  80.1889997
  48.2549992  85.7424990  79.8379997  49.6579992  85.2624990  79.5289997
  48.9628696  85.2882591  80.0516372  49.0209992  83.6644990  77.2279997
  49.7219992  83.6874990  77.8789997  49.3229992  83.0364990  76.5719997
  49.1578282  83.5827350  77.2284478  56.3359992  84.5854990  88.4829997
  55.6839992  85.2794990  88.5719997  56.8009992  84.7954990  87.6729997
  56.3095357  84.7089544  88.3857056  52.3729992  85.4164990  81.1409997
  51.6409992  85.6454990  81.7139997  52.8199992  84.7034990  81.5959997
  52.3332753  85.3513984  81.2809698  52.2699992  83.5914990  90.2089997
  52.3499992  84.3544990  90.7809997  51.6689992  83.8704990  89.5179997
  52.1997115  83.7337707  90.1939631  44.0179992  86.0474990  83.0239997
  43.6879992  85.6764990  82.2049997  44.6059992  85.3764990  83.3699997
  44.0524056  85.9061257  82.9589035  45.3849992  89.4754990  85.7049997
  45.2899992  88.8964990  84.9479997  46.1139992  89.1044990  86.2009997
  45.4706161  89.3460902  85.6685192  44.3849992  84.8154990  86.6569997
  44.9499992  84.9374990  85.8939997  44.7029992  85.4534990  87.2959997
  44.5053430  84.9184448  86.6389094  50.6939992  90.3194990  87.3909997
  50.4529992  90.9814990  88.0389997  50.4959992  89.4844990  87.8159997
  50.6342662  90.2972704  87.5371008  45.2649992  89.2154990  91.3739997
  44.9529992  89.9974990  91.8299997  44.6149992  89.0624990  90.6879997
  45.1344643  89.3018019  91.3436657  51.2439992  84.5794990  78.8259997
  51.8229992  84.7294990  79.5729997  51.6579992  85.0494990  78.1029997
  51.3793122  84.6636288  78.8305024  42.1849992  85.4134990  90.6029997
  42.2549992  86.0644990  91.3009997  41.2939992  85.5164990  90.2679997
  42.0741802  85.5164769  90.6532231  48.9699992  91.3154990  82.2619997
  49.4439992  91.6114990  83.0389997  48.4069992  92.0544990  82.0279997
  48.9588460  91.4558336  82.3367626  43.5039992  91.2864990  92.1379997
  43.5119992  91.1504990  91.1899997  42.5879992  91.1694990  92.3899997
  43.3812512  91.2520663  92.0423179  43.0079992  85.1164990  80.6129997
  42.7159992  85.8844990  80.1219997  42.3339992  84.4574990  80.4499997
  42.8768843  85.1324537  80.5237695  39.1009992  87.4794990  89.4279997
  38.5999992  87.4514990  88.6129997  39.1069992  86.5744990  89.7379997
  39.0331690  87.3532234  89.3582770  38.8519992  90.2604990  86.3119997
  39.7979992  90.1154990  86.2929997  38.7389992  91.0444990  86.8489997
  38.9663578  90.3466708  86.3820300  57.0489992  90.9264990  91.9939997
  56.9999992  89.9704990  91.9569997  56.2229992  91.1934990  92.3959997
  56.9305767  90.8318841  92.0433133  48.0279992  90.5004990  90.8699997
  48.1149992  91.3264990  91.3449997  47.1639992  90.1704990  91.1189997
  47.9231944  90.5689871  90.9686558  48.4419992  94.2724990  80.6759997
  48.3669992  94.1514990  79.7299997  48.4749992  95.2214990  80.7949997
  48.4361862  94.3842492  80.5624840  42.0959992  93.0614990  82.4569997
  42.2479992  92.7134990  83.3359997  41.2449992  92.7044990  82.2019997
  42.0017899  92.9656749  82.5427322  51.2129992  93.3524990  80.4279997
  50.2779992  93.4524990  80.6069997  51.4929992  92.6424990  81.0059997
  51.1229270  93.2702300  80.5305984  54.2009992  82.4194990  92.4739997
  53.7939992  82.8994990  91.7539997  54.2419992  81.5134990  92.1669997
  54.1507178  82.3628609  92.3337441  41.3499992  88.8034990  90.4709997
  41.5659992  88.4414990  91.3309997  40.4949992  88.4284990  90.2609997
  41.2639349  88.7032914  90.5602134  43.9689992  77.2734990  86.4669997
  43.1069992  77.1864990  86.0589997  43.9469992  78.1294990  86.8939997
  43.8480953  77.3773558  86.4689262  48.6319992  76.9954990  89.8409997
  49.0519992  76.5804990  90.5939997  47.6989992  76.8164990  89.9579997
  48.5633736  76.9144921  89.9598950  51.9579992  80.7504990  90.6949997
  51.4439992  80.6254990  91.4919997  51.8029992  81.6634990  90.4499997
  51.8666643  80.8567068  90.7710624  52.7209992  85.6114990  76.4559997
  52.7629992  85.3894990  75.5259997  53.5699992  86.0104990  76.6459997
  52.8415253  85.6350510  76.3543804  48.2939992  79.4874990  77.1259997
  48.0399992  79.5064990  78.0489997  48.0369992  78.6164990  76.8249997
  48.2245133  79.3723121  77.2115065  44.0599992  82.2384990  87.5619997
  43.4179992  82.1984990  88.2709997  44.0969992  83.1654990  87.3239997
  43.9771659  82.3582540  87.6268463  44.0569992  82.4594990  82.4739997
  43.1639992  82.1194990  82.4149997  44.5079992  82.0824990  81.7179997
  43.9957185  82.3620220  82.3637698  49.5929992  82.8754990  81.2909997
  49.1839992  83.6904990  80.9989997  50.3129992  82.7354990  80.6759997
  49.6343946  82.9679963  81.1679616  48.6949992  83.0514990  92.7789997
  48.1319992  82.3464990  93.0989997  49.5209992  82.9304990  93.2459997
  48.7296423  82.9385614  92.8860168  50.5969992  82.3214990  84.1049997
  50.4019992  82.9274990  83.3899997  50.7789992  81.4884990  83.6699997
  50.5949272  82.2917955  83.9484075  41.8099992  82.5594990  89.4289997
  41.7719992  82.9594990  90.2969997  41.3189992  81.7424990  89.5189997
  41.7384246  82.5038842  89.5601171  38.4179992  79.6754990  83.2789997
  39.0489992  79.6464990  83.9989997  38.8679992  79.2504990  82.5489997
  38.5650905  79.6140839  83.2787479  39.6919992  80.4214990  78.7029997
  40.1669992  81.0124990  78.1179997  38.9749992  80.9514990  79.0499997
  39.6600406  80.5741011  78.6698495  49.8609992  83.9594990  88.7759997
  50.1849992  83.3284990  88.1329997  49.4209992  83.4254990  89.4369997
  49.8458707  83.8008261  88.7773195  46.6389992  79.8874990  83.5599997
  45.7279992  79.9444990  83.8489997  47.1439992  79.8274990  84.3709997
  46.5826873  79.8871838  83.7091190  41.4669992  81.5164990  82.3869997
  40.5779992  81.6154990  82.0469997  41.7629992  80.6744990  82.0409997
  41.3854001  81.4162473  82.2937318  45.1199992  81.5164990  80.0429997
  46.0519992  81.6454990  80.2209997  44.9049992  82.1854990  79.3939997
  45.2184245  81.6246452  79.9795602  51.0439992  79.1224990  86.8239997
  50.3669992  79.2534990  87.4879997  50.5579992  78.9674990  86.0139997
  50.8857265  79.1194665  86.8053380  43.7939992  82.7104990  77.6099997
  43.2519992  82.3314990  76.9189997  44.6279992  82.9054990  77.1809997
  43.8324283  82.6849383  77.4574298  54.3309992  94.7934990  93.1009997
  54.5309992  95.2174990  92.2659997  54.9869992  95.1374990  93.7079997
  54.4469916  94.8979784  93.0687890  41.9289992  87.2674990  92.7089997
  42.6609992  87.5224990  93.2699997  41.1489992  87.4724990  93.2239997
  41.9237684  87.3301457  92.8554774  47.9589992  82.6744990  85.4469997
  48.5229992  82.1284990  84.8999997  47.8109992  82.1534990  86.2359997
  48.0163037  82.5291798  85.4787212  42.9609992  78.8114990  81.8649997
  42.6429992  77.9084990  81.8299997  43.7419992  78.8134990  81.3129997
  43.0231560  78.6881148  81.7854975  46.5849992  81.0634990  87.8609997
  45.7499992  81.5174990  87.9709997  47.1089992  81.3394990  88.6129997
  46.5415070  81.1629677  87.9777134  54.2789992  86.4094990  88.3319997
  54.9209992  86.8654990  87.7889997  53.4489992  86.5224990  87.8699997
  54.2547352  86.4873223  88.1950234  51.0269992  80.0904990  77.7449997
  50.0879992  80.2014990  77.5939997  51.3239992  80.9464990  78.0509997
  50.9386371  80.2215327  77.7657362  48.6489992  87.4604990  90.7829997
  48.3029992  87.0784990  91.5889997  48.4489992  88.3934990  90.8539997
  48.5745399  87.5343489  90.9030401  51.7449992  81.9574990  79.4059997
  52.6369992  81.8194990  79.7249997  51.8019992  82.7484990  78.8689997
  51.8747380  82.0454777  79.3770981  42.2539992  86.5714990  85.3149997
  42.9989992  86.5684990  84.7139997  42.3319992  85.7474990  85.7969997
  42.3664158  86.4597928  85.2979136  39.2619992  85.0314990  90.6299997
  39.4849992  84.6134990  91.4619997  38.6599992  84.4194990  90.2079997
  39.2110802  84.8915216  90.6867561  46.2789992  84.5484990  92.8429997
  45.9829992  84.3834990  91.9479997  47.2099992  84.3284990  92.8329997
  46.3643909  84.4961274  92.7190110  50.8989992  89.9224990  90.7329997
  49.9979992  90.1054990  90.4649997  50.9329992  90.1814990  91.6539997
  50.7803021  89.9825505  90.8208206  56.6299992  82.1664990  79.0999997
  56.0759992  81.7704990  78.4279997  56.7309992  83.0774990  78.8229997
  56.5677084  82.2353565  78.9704381  56.5929992  87.9674990  91.9369997
  55.7419992  88.2054990  91.5699997  57.1839992  87.9504990  91.1839997
  56.5562468  87.9978251  91.7848902  54.9249992  90.9524990  79.5649997
  54.5529992  90.1274990  79.8749997  55.2029992  90.7694990  78.6679997
  54.9115997  90.8146160  79.4861551  52.0859992  85.7604990  86.5869997
  51.1579992  85.5294990  86.5599997  52.5369992  84.9834990  86.2569997
  52.0198165  85.6237785  86.5386772  44.6289992  90.0894990  82.7199997
  45.1559992  90.8624990  82.5189997  43.7489992  90.3134990  82.4179997
  44.5821793  90.2256652  82.6516304  46.0559992  87.7524990  82.2959997
  45.8149992  88.6774990  82.3379997  45.3159992  87.2934990  82.6919997
  45.9228934  87.8170881  82.3553191  46.5709992  91.9014990  88.6109997
  46.9339992  92.7554990  88.3779997  47.1029992  91.6094990  89.3519997
  46.6925141  91.9788907  88.6792079  44.7389992  92.7734990  81.8409997
  43.7899992  92.8794990  81.8929997  45.0909992  93.5944990  82.1859997
  44.6566214  92.8989361  81.8947317  50.1149992  88.0004990  88.3119997
  49.6889992  87.7724990  89.1379997  50.6959992  87.2614990  88.1289997
  50.1351587  87.8694084  88.4004111  52.3179992  88.9294990  77.3859997
  52.6709992  88.5494990  78.1899997  51.3689992  88.8354990  77.4719997
  52.2380985  88.8647330  77.5077738  52.7739992  92.5524990  90.7809997
  52.1719992  91.9964990  90.2859997  53.0549992  93.2194990  90.1549997
  52.7295757  92.5665755  90.6285657  40.8959992  79.7854990  90.1879997
  40.0029992  80.1234990  90.1209997  40.7969992  78.9294990  90.6059997
  40.7605241  79.7160941  90.2352982  53.1839992  87.6014990  79.6119997
  52.9069992  86.8734990  80.1679997  54.1109992  87.7204990  79.8179997
  53.2714181  87.5180068  79.7158972  40.5469992  91.5894990  88.6229997
  40.7639992  90.6574990  88.5919997  40.7939992  91.8644990  89.5069997
  40.6100543  91.4990877  88.7381412  41.7989992  86.8634990  78.7989997
  41.1129992  87.2164990  79.3659997  42.3219992  87.6264990  78.5529997
  41.7759033  87.0148757  78.8432644  49.6299992  79.5264990  89.0779997
  50.3289992  79.6004990  89.7279997  49.2499992  78.6614990  89.2329997
  49.6742095  79.4197402  89.1877982  50.4149992  79.1784990  80.1749997
  50.6349992  79.6494990  79.3719997  50.9729992  79.5724990  80.8459997
  50.5205851  79.2963272  80.1556134  48.0839992  91.3084990  79.0379997
  47.2669992  91.8054990  79.0909997  48.6129992  91.7844990  78.3979997
  48.0437898  91.4408123  78.9587274  47.6149992  80.9064990  81.0099997
  48.4269992  81.4104990  81.0559997  47.3699992  80.7614990  81.9239997
  47.6931091  80.9559366  81.1398552  48.1509992  81.8924990  90.1949997
  48.2699992  82.4664990  90.9519997  48.8059992  81.2044990  90.3099997
  48.2558684  81.8780205  90.3141656  48.4989992  77.9874990  81.9479997
  48.1519992  78.6044990  82.5929997  49.1569992  78.4884990  81.4669997
  48.5405290  78.1396384  81.9711635  45.4219992  92.3524990  79.0199997
  45.5829992  93.1524990  78.5189997  45.2249992  92.6594990  79.9049997
  45.4173919  92.5034140  79.0710988  44.1559992  79.0504990  78.6359997
  44.0729992  79.9384990  78.9819997  45.0459992  78.7854990  78.8669997
  44.2649751  79.1362482  78.7146066  54.3549992  79.7994990  91.0299997
  53.4389992  80.0614990  90.9419997  54.6909992  79.7964990  90.1329997
  54.2749789  79.8349637  90.8967829  52.9569992  83.5494990  85.1259997
  52.1599992  83.1344990  84.7969997  53.4019992  82.8594990  85.6169997
  52.9080317  83.3993197  85.1473556  54.0439992  92.8054990  86.7479997
  53.8879992  93.4844990  86.0909997  54.9759992  92.8774990  86.9509997
  54.1487328  92.9081586  86.6855529  41.5389992  76.9234990  85.4849997
  41.3099992  76.9824990  84.5579997  41.0959992  76.1324990  85.7919997
  41.4477387  76.8246412  85.3995223  40.4689992  90.8644990  81.6459997
  39.6369992  91.3364990  81.6729997  41.0149992  91.3744990  81.0469997
  40.4288710  90.9980317  81.5687570  39.7579992  93.4764990  92.9759997
  40.2979992  93.2604990  93.7349997  39.2759992  92.6714990  92.7859997
  39.7669101  93.3380216  93.0544364  44.3549992  92.3964990  94.5959997
  45.1229992  91.9374990  94.9369997  44.3339992  92.1704990  93.6659997
  44.4572135  92.3031680  94.5169473  48.4469992  91.9044990  75.9709997
  47.8029992  91.2734990  76.2929997  49.2089992  91.3734990  75.7389997
  48.4618260  91.7463035  75.9837298  50.9319992  90.7764990  93.3249997
  50.5809992  89.9194990  93.5679997  51.6579992  90.9184990  93.9319997
  50.9821590  90.6785189  93.4402889  39.6649992  87.2874990  93.9299997
  39.8089992  86.3854990  93.6439997  38.8919992  87.5734990  93.4419997
  39.5802854  87.2026876  93.8249363  46.3199992  87.2564990  93.3629997
  45.9919992  87.5274990  92.5049997  46.4719992  86.3154990  93.2749997
  46.2956970  87.1663694  93.2337953  52.0549992  87.1724990  90.7459997
  52.7999992  87.7614990  90.6259997  51.2969992  87.7544990  90.8089997
  52.0545185  87.3317000  90.7380940  40.4969992  84.4874990  93.3499997
  40.9049992  83.6304990  93.2289997  40.2369992  84.5014990  94.2709997
  40.5177082  84.3720596  93.4579469  44.4439992  83.4964990  90.7239997
  43.8259992  84.1704990  91.0049997  44.7879992  83.8174990  89.8909997
  44.4058181  83.6323233  90.6498266  49.4639992  85.9674990  94.0019997
  50.4169992  86.0514990  93.9739997  49.3039992  85.2554990  94.6209997
  49.5728161  85.8827198  94.0818689  55.6159992  86.2004990  76.0759997
  55.3429992  85.7764990  75.2629997  55.6559992  87.1324990  75.8589997
  55.5840201  86.2683523  75.9353548  44.7839992  80.8514990  91.8069997
  44.9339992  80.1224990  91.2039997  44.7859992  81.6284990  91.2479997
  44.8047664  80.8568971  91.6490525  45.1959992  79.2204990  89.2989997
  45.7319992  79.6724990  88.6469997  44.3439992  79.1124990  88.8769997
  45.1541648  79.2677883  89.1526395  46.7779992  84.6604990  89.5389997
  47.5289992  84.5044990  88.9659997  46.4389992  85.5124990  89.2629997
  46.8349052  84.7542745  89.4233469  51.1939992  82.4754990  94.5669997
  51.3859992  81.5444990  94.4559997  52.0509992  82.9004990  94.5569997
  51.3362320  82.4054743  94.5504433  52.5099992  85.2644990  92.6449997
  52.2289992  85.9734990  92.0669997  53.4529992  85.1914990  92.4939997
  52.5989272  85.3516704  92.5454976  43.2619992  82.0494990  93.7179997
  42.4949992  81.5164990  93.5079997  43.9409992  81.7394990  93.1189997
  43.2488292  81.9346360  93.6082693  46.0019992  76.6774990  89.7309997
  45.9039992  77.6234990  89.6249997  45.2589992  76.3044990  89.2549997
  45.8882363  76.7565987  89.6522029  47.2659992  80.9984990  93.2939997
  47.0299992  80.7794990  94.1959997  46.4829992  80.7914990  92.7849997
  47.1278444  80.9405688  93.3484518  49.9819992  80.1264990  92.3699997
  49.0339992  80.1584990  92.5019997  50.2939992  79.5004990  93.0239997
  49.8945293  80.0462934  92.4764130  51.6159992  78.7604990  94.3749997
  51.5189992  77.8084990  94.3689997  51.2939992  79.0284990  95.2359997
  51.5592229  78.6664706  94.4905108  41.4429992  79.9694990  93.4229997
  41.6539992  79.2634990  92.8119997  41.3309992  79.5324990  94.2669997
  41.4567674  79.8136376  93.4534199  46.2239992  75.9714990  92.4019997
  46.9349992  75.3314990  92.3879997  46.1229992  76.2374990  91.4879997
  46.3076732  75.9198451  92.2765475  46.5769992  77.6534990  94.4559997
  46.4459992  77.1784990  93.6349997  45.9779992  78.3984990  94.3999997
  46.4781524  77.6891968  94.3361553  46.1239992  94.5364990  77.6319997
  47.0569992  94.6944990  77.7759997  45.8589992  95.2124990  77.0069997
  46.2159846  94.6494567  77.5672930  38.3409992  94.5664990  82.1919997
  37.6939992  94.1044990  81.6589997  38.6959992  93.8944990  82.7749997
  38.3003861  94.4124707  82.1977939  39.2109992  92.6464990  83.9969997
  38.8769992  91.7664990  84.1689997  39.4329992  92.9924990  84.8609997
  39.1952677  92.5727366  84.1374252  56.7599992  93.4564990  86.9769997
  56.7379992  93.6414990  87.9159997  57.4499992  94.0244990  86.6359997
  56.8503439  93.5586898  87.0594774  56.3229992  93.0234990  89.8989997
  55.8359992  92.2874990  89.5279997  56.8719992  92.6294990  90.5769997
  56.3306101  92.8696267  89.9399034  54.7739992  88.8134990  94.5369997
  53.9079992  88.7084990  94.9309997  55.1499992  89.5714990  94.9839997
  54.7063768  88.9016151  94.6513258  56.0749992  87.0694990  80.0509997
  56.9249992  87.4904990  80.1789997  56.0799992  86.3294990  80.6589997
  56.1919745  87.0271347  80.1506479  56.4689992  85.1234990  81.8749997
  55.7429992  84.6434990  82.2729997  57.0499992  85.3284990  82.6069997
  56.4482504  85.0855592  82.0284199  56.2279992  87.9084990  86.8229997
  57.0619992  87.5304990  86.5419997  56.3399992  88.8514990  86.7039997
  56.3571917  87.9842954  86.7684844  54.7139992  90.7864990  89.1299997
  54.0669992  91.1114990  89.7549997  54.1969992  90.3454990  88.4549997
  54.5554068  90.7714726  89.1244918  56.7369992  85.0244990  78.2659997
  56.2159992  85.3804990  77.5469997  56.7039992  85.6994990  78.9439997
  56.6611525  85.1645273  78.2591408  55.0859992  82.2634990  76.8169997
  55.1829992  82.9304990  76.1369997  54.9459992  81.4484990  76.3349997
  55.0803428  82.2445667  76.6588311  54.2559992  83.6444990  82.4379997
  54.1059992  82.6994990  82.4179997  53.9019992  83.9254990  83.2819997
  54.1876351  83.5531656  82.5493202  39.2909992  85.7224990  86.4479997
  39.4749992  85.6404990  85.5129997  40.1399992  85.5984990  86.8719997
  39.4310259  85.6944915  86.3771771  55.1119992  85.6144990  92.0769997
  55.6949992  84.8794990  92.2679997  55.6759992  86.3864990  92.1229997
  55.2680326  85.6182746  92.1093579  56.6089992  83.5174990  92.7609997
  55.7449992  83.1384990  92.5959997  57.2129992  82.7784990  92.6869997
  56.5724912  83.3657937  92.7284360  54.3339992  79.6714990  75.9339997
  54.9439992  79.3004990  76.5709997  53.4969992  79.2504990  76.1299997
  54.3043704  79.5637942  76.0477077  53.9659992  81.2264990  80.8999997
  54.2459992  80.3194990  81.0249997  54.7249992  81.6604990  80.5109997
  54.1069471  81.1610654  80.8645052  54.5779992  81.8084990  86.3359997
  55.5109992  82.0204990  86.3019997  54.3429992  81.9094990  87.2589997
  54.6738357  81.8511303  86.4560232  54.6069992  82.5454990  89.1119997
  53.7639992  82.8134990  89.4779997  55.0499992  83.3674990  88.9009997
  54.5514358  82.6933294  89.1335999  38.8879992  80.9924990  92.5889997
  39.8079992  80.8704990  92.8249997  38.4389992  80.2424990  92.9779997
  38.9531561  80.8743720  92.6739015  56.8899992  76.5254990  94.4659997
  57.2399992  75.8714990  93.8599997  57.0369992  77.3624990  94.0259997
  56.9577192  76.5492545  94.3236712  54.5799992  78.4894990  80.9489997
  54.7619992  78.0404990  81.7739997  54.6427419  79.2949996  81.2334099
  54.6114149  78.5538512  81.0914059  40.1099992  79.3054990  85.4799997
  40.5549992  78.5134990  85.7819997  40.5759992  80.0214990  85.9109997
  40.2339059  79.2939485  85.5796061  38.4139992  82.3044990  86.5489997
  38.9059992  82.0834990  85.7589997  38.7759992  83.1444990  86.8299997
  38.5303428  82.3878220  86.4787918  56.4099992  78.6344990  92.8149997
  55.4929992  78.9054990  92.7789997  56.5329992  78.0994990  92.0309997
  56.3010828  78.5992711  92.7040767  56.4459992  78.5574990  77.4769997
  55.7695676  79.0797054  77.4194732  57.1279992  79.2264990  77.5349997
  56.4289965  78.7159809  77.4755537  38.7269992  78.5624990  80.6039997
  37.8019992  78.7704990  80.4739997  39.1809992  79.0464990  79.9139997
  38.6617401  78.6563895  80.4929433  53.4979992  93.5464990  82.5489997
  54.1499992  93.1984990  81.9409997  54.0089992  94.0344990  83.1949997
  53.6562872  93.5648248  82.5530964  38.6909992  77.3004990  88.9479997
  38.0259992  77.0544990  89.5909997  38.2479992  77.9224990  88.3709997
  38.5401168  77.3509225  88.9579830  40.8829992  90.4754990  93.0919997
  40.0619992  90.6504990  92.6319997  40.6309992  90.4024990  94.0129997
  40.7366173  90.4895806  93.1534954  43.8369992  91.4494990  89.3509997
  43.4119992  92.2594990  89.0679997  44.7409992  91.5354990  89.0489997
  43.9011002  91.5718728  89.2714798  48.1479992  92.8484990  92.3099997
  48.3329992  92.5154990  93.1879997  48.9949992  93.1584990  91.9879997
  48.2877291  92.8448214  92.3866140  50.4929992  94.1344990  91.5539997
  51.1699992  93.5014990  91.3139997  50.8149992  94.5354990  92.3619997
  50.6291280  94.1020638  91.6303190  55.4109992  76.7244990  90.6339997
  54.5979992  77.0494990  90.2459997  55.6439992  75.9634990  90.1009997
  55.3312566  76.6661570  90.5089196  41.2389992  94.7064990  89.3979997
  40.5179992  95.1464990  88.9469997  40.8729992  94.4554990  90.2469997
  41.0909785  94.7327691  89.4509849  43.7059992  94.3064990  88.4279997
  42.8409992  94.3784990  88.8319997  43.6509992  94.8534990  87.6439997
  43.5802066  94.3902678  88.3773371  48.4169992  94.1944990  87.6039997
  47.9599992  94.7234990  86.9499997  48.5789992  94.7974990  88.3289997
  48.3763919  94.3483990  87.6125740  50.7439992  93.0724990  88.5489997
  49.8399992  93.2374990  88.2829997  51.1729992  93.9254990  88.4829997
  50.6782017  93.2104184  88.5036495  53.3479992  94.6424990  88.8439997
  53.1669992  95.5584990  88.6329997  53.5249992  94.2314990  87.9969997
  53.3471377  94.7123365  88.7007178  40.6539992  93.3294990  86.3089997
  40.6349992  92.9034990  87.1659997  41.4579992  93.0104990  85.8999997
  40.7601393  93.2280297  86.3710155  42.7949992  92.0394990  84.9639997
  42.5759992  91.1224990  85.1329997  43.6189992  92.1794990  85.4299997
  42.8764637  91.9329586  85.0501414  45.3319992  92.5094990  85.8119997
  45.5449992  91.6214990  85.5249997  45.3969992  92.4744990  86.7669997
  45.3699075  92.3833318  85.9017355  48.8409992  78.1734990  84.9569997
  48.1659992  77.5434990  85.2119997  49.4049992  77.6894990  84.3539997
  48.8249558  78.0219283  84.9103451  53.9829992  76.2804990  85.0689997
  54.5869992  76.8284990  84.5679997  53.1139992  76.5994990  84.8289997
  53.9481126  76.3987070  84.9679180  55.7099992  77.4194990  83.4029997
  56.3219992  76.9054990  82.8759997  56.0929992  78.2964990  83.4259997
  55.8453867  77.4677613  83.3340888  41.1669992  76.8074990  82.7789997
  40.3899992  76.5724990  82.2709997  41.6979992  76.0104990  82.7879997
  41.1324443  76.6676721  82.7107200  45.7469992  76.7334990  82.5919997
  46.6209992  77.1224990  82.5619997  45.6109992  76.5184990  83.5149997
  45.8483125  76.7577120  82.7126523  51.3029992  76.7634990  84.2409997
  51.3799992  76.8594990  83.2919997  51.0279992  75.8564990  84.3699997
  51.2763407  76.6539188  84.1283532  52.8264322  77.4044990  79.7239997
  51.9539992  77.4044990  79.7239997  53.0315782  78.2524700  79.7239997
  52.7278592  77.5297630  79.7239997  39.9049992  92.5534990  79.4799997
  39.2199992  92.5154990  78.8119997  39.9079992  93.4654990  79.7679997
  39.8117358  92.6716744  79.4276145  46.8909992  78.8144990  79.4819997
  47.0689992  78.1674990  80.1649997  46.8369992  79.6484990  79.9489997
  46.9080678  78.8386615  79.6386283  48.7689992  93.7624990  77.8769997
  49.6349992  94.1294990  77.6989997  48.5219992  93.3234990  77.0639997
  48.8542041  93.7533648  77.7425958  55.4779992  93.3254990  80.5569997
  55.2839992  92.5774990  79.9919997  55.4389992  94.0834990  79.9729997
  55.4461907  93.3255770  80.4008077  41.1249992  77.3214990  92.2959997
  40.7589992  76.5554990  92.7389997  42.0379992  77.3504990  92.5829997
  41.1983225  77.2206917  92.3953441  43.0979992  76.6714990  93.8319997
  43.9969992  76.3974990  93.6469997  42.7119992  75.9294990  94.2959997
  43.1687237  76.5336520  93.8694693  41.7229992  93.4734990  76.5049997
  41.4549992  93.7594990  77.3779997  42.4939992  92.9274990  76.6569997
  41.7905600  93.4388341  76.6451482  51.5189992  76.0044990  94.0139997
  51.5959992  75.5784990  94.8679997  52.4129992  76.0174990  93.6719997
  51.6503315  75.9480320  94.0845052  54.6959992  92.0764990  92.7069997
  53.9139992  91.8904990  92.1869997  54.6239992  93.0064990  92.9239997
  54.5792975  92.1766973  92.6651823  60.4029992  84.8324990  87.7489997
  60.4439992  84.2074990  88.4729997  61.1059992  85.4564990  87.9309997
  60.5036054  84.8313262  87.8726311  61.3269992  89.2824990  86.2839997
  60.9569992  88.4804990  85.9149997  62.2679992  89.1144990  86.3309997
  61.4035630  89.1498680  86.2397873  57.9369992  82.9424990  81.6769997
  57.4889992  83.7884990  81.6589997  57.3759992  82.3634990  81.1619997
  57.7998546  82.9799004  81.6048874  58.6469992  85.1044990  83.8029997
  58.8609992  84.3344990  84.3299997  59.3849992  85.1944990  83.1999997
  58.7760073  85.0113546  83.7935786  66.4239992  87.6504990  86.5619997
  66.7279992  86.9644990  85.9679997  67.1459992  87.7694990  87.1799997
  66.5631152  87.5727201  86.5642106  75.0869992  79.2524990  87.4229997
  75.1359992  79.8624990  88.1589997  75.5129992  79.7134990  86.6999997
  75.1512851  79.3983266  87.4260532  69.5649992  82.0444990  86.8899997
  69.7069992  81.0984990  86.9099997  69.4589992  82.2514990  85.9609997
  69.5701158  81.9429722  86.7672241  62.7199992  80.1464990  84.1619997
  62.7629992  81.0064990  83.7439997  62.2619992  79.5934990  83.5289997
  62.6639613  80.1895689  84.0191276  59.3399992  82.5434990  84.9239997
  59.9939992  81.9934990  85.3559997  59.3639992  82.2694990  84.0079997
  59.4327022  82.4312005  84.8591698  75.4789992  80.7304990  89.6589997
  74.7899992  81.3884990  89.5639997  75.4939992  80.5324990  90.5959997
  75.3867756  80.7937614  89.7725795  61.5299992  79.0644990  88.2359997
  61.3109992  79.5944990  87.4699997  60.8619992  79.2904990  88.8839997
  61.4097271  79.1676508  88.2186206  64.0989992  86.7394990  88.5239997
  63.3589992  87.3384990  88.6269997  64.8129992  87.2934990  88.2079997
  64.0943288  86.8962368  88.4953787  61.1239992  80.9564990  86.1889997
  61.7369992  81.5894990  86.5619997  61.6359992  80.4844990  85.5319997
  61.2771680  80.9794006  86.1512830  62.5059992  88.7044990  89.3109997
  62.5009992  89.5834990  88.9329997  61.6529992  88.6204990  89.7359997
  62.3899199  88.8135901  89.3166942  58.6279992  88.3754990  80.0929997
  58.3559992  88.6044990  79.2039997  58.6729992  89.2124990  80.5529997
  58.5968709  88.5201069  80.0336089  72.5529992  78.2834990  88.2229997
  71.8169992  78.8934990  88.1849997  73.2369992  78.6984990  87.6969997
  72.5445885  78.4231924  88.1466931  65.5559992  76.3694990  85.6889997
  65.4389992  75.4214990  85.6349997  64.7009992  76.7024990  85.9619997
  65.4243691  76.2845842  85.7185072  73.3499992  88.2454990  90.4169997
  73.4899992  87.6534990  89.6779997  73.5179992  89.1184990  90.0609997
  73.3918734  88.2824041  90.2676937  71.1259992  83.5914990  90.2089997
  71.2059992  84.3544990  90.7809997  70.5249992  83.8704990  89.5179997
  71.0557115  83.7337707  90.1939631  62.8739992  86.0474990  83.0239997
  62.5439992  85.6764990  82.2049997  63.4619992  85.3764990  83.3699997
  62.9084056  85.9061257  82.9589035  64.2409992  89.4754990  85.7049997
  64.1459992  88.8964990  84.9479997  64.9699992  89.1044990  86.2009997
  64.3266161  89.3460902  85.6685191  63.2409992  84.8154990  86.6569997
  63.8059992  84.9374990  85.8939997  63.5589992  85.4534990  87.2959997
  63.3613430  84.9184448  86.6389094  69.5499992  90.3194990  87.3909997
  69.3089992  90.9814990  88.0389997  69.3519992  89.4844990  87.8159997
  69.4902662  90.2972704  87.5371008  64.1209992  89.2154990  91.3739997
  63.8089992  89.9974990  91.8299997  63.4709992  89.0624990  90.6879997
  63.9904643  89.3018019  91.3436657  61.0409992  85.4134990  90.6029997
  61.1109992  86.0644990  91.3009997  60.1499992  85.5164990  90.2679997
  60.9301802  85.5164769  90.6532231  62.3599992  91.2864990  92.1379997
  62.3679992  91.1504990  91.1899997  61.4439992  91.1694990  92.3899997
  62.2372512  91.2520663  92.0423179  57.9569992  87.4794990  89.4279997
  57.4559992  87.4514990  88.6129997  57.9629992  86.5744990  89.7379997
  57.8891690  87.3532234  89.3582770  57.7079992  90.2604990  86.3119997
  58.6539992  90.1154990  86.2929997  57.5949992  91.0444990  86.8489997
  57.8223578  90.3466708  86.3820300  75.9049992  90.9264990  91.9939997
  75.8559992  89.9704990  91.9569997  75.0789992  91.1934990  92.3959997
  75.7865767  90.8318841  92.0433133  66.8839992  90.5004990  90.8699997
  66.9709992  91.3264990  91.3449997  66.0199992  90.1704990  91.1189997
  66.7791944  90.5689871  90.9686558  60.9519992  93.0614990  82.4569997
  61.1039992  92.7134990  83.3359997  60.1009992  92.7044990  82.2019997
  60.8577899  92.9656749  82.5427322  73.0569992  82.4194990  92.4739997
  72.6499992  82.8994990  91.7539997  73.0979992  81.5134990  92.1669997
  73.0067178  82.3628609  92.3337441  60.2059992  88.8034990  90.4709997
  60.4219992  88.4414990  91.3309997  59.3509992  88.4284990  90.2609997
  60.1199349  88.7032914  90.5602134  62.8249992  77.2734990  86.4669997
  61.9629992  77.1864990  86.0589997  62.8029992  78.1294990  86.8939997
  62.7040953  77.3773558  86.4689262  67.4879992  76.9954990  89.8409997
  67.9079992  76.5804990  90.5939997  66.5549992  76.8164990  89.9579997
  67.4193736  76.9144921  89.9598950  70.8139992  80.7504990  90.6949997
  70.2999992  80.6254990  91.4919997  70.6589992  81.6634990  90.4499997
  70.7226643  80.8567068  90.7710624  62.9159992  82.2384990  87.5619997
  62.2739992  82.1984990  88.2709997  62.9529992  83.1654990  87.3239997
  62.8331659  82.3582540  87.6268463  67.5509992  83.0514990  92.7789997
  66.9879992  82.3464990  93.0989997  68.3769992  82.9304990  93.2459997
  67.5856423  82.9385614  92.8860168  60.6659992  82.5594990  89.4289997
  60.6279992  82.9594990  90.2969997  60.1749992  81.7424990  89.5189997
  60.5944246  82.5038842  89.5601171  57.2739992  79.6754990  83.2789997
  57.9049992  79.6464990  83.9989997  57.7239992  79.2504990  82.5489997
  57.4210905  79.6140839  83.2787479  58.5479992  80.4214990  78.7029997
  59.0229992  81.0124990  78.1179997  57.8309992  80.9514990  79.0499997
  58.5160406  80.5741011  78.6698495  68.7169992  83.9594990  88.7759997
  69.0409992  83.3284990  88.1329997  68.2769992  83.4254990  89.4369997
  68.7018707  83.8008261  88.7773195  60.3229992  81.5164990  82.3869997
  59.4339992  81.6154990  82.0469997  60.6189992  80.6744990  82.0409997
  60.2414001  81.4162473  82.2937318  69.8999992  79.1224990  86.8239997
  69.2229992  79.2534990  87.4879997  69.4139992  78.9674990  86.0139997
  69.7417265  79.1194665  86.8053380  62.6499992  82.7104990  77.6099997
  62.1079992  82.3314990  76.9189997  63.4839992  82.9054990  77.1809997
  62.6884283  82.6849383  77.4574298  73.1869992  94.7934990  93.1009997
  73.3869992  95.2174990  92.2659997  73.8429992  95.1374990  93.7079997
  73.3029916  94.8979784  93.0687890  60.7849992  87.2674990  92.7089997
  61.5169992  87.5224990  93.2699997  60.0049992  87.4724990  93.2239997
  60.7797684  87.3301457  92.8554774  66.8149992  82.6744990  85.4469997
  67.3789992  82.1284990  84.8999997  66.6669992  82.1534990  86.2359997
  66.8723037  82.5291798  85.4787212  65.4409992  81.0634990  87.8609997
  64.6059992  81.5174990  87.9709997  65.9649992  81.3394990  88.6129997
  65.3975070  81.1629677  87.9777134  67.5049992  87.4604990  90.7829997
  67.1589992  87.0784990  91.5889997  67.3049992  88.3934990  90.8539997
  67.4305399  87.5343489  90.9030401  61.1099992  86.5714990  85.3149997
  61.8549992  86.5684990  84.7139997  61.1879992  85.7474990  85.7969997
  61.2224158  86.4597928  85.2979136  58.1179992  85.0314990  90.6299997
  58.3409992  84.6134990  91.4619997  57.5159992  84.4194990  90.2079997
  58.0670802  84.8915216  90.6867561  65.1349992  84.5484990  92.8429997
  64.8389992  84.3834990  91.9479997  66.0659992  84.3284990  92.8329997
  65.2203909  84.4961274  92.7190110  69.7549992  89.9224990  90.7329997
  68.8539992  90.1054990  90.4649997  69.7889992  90.1814990  91.6539997
  69.6363021  89.9825505  90.8208206  75.4489992  87.9674990  91.9369997
  74.5979992  88.2054990  91.5699997  76.0399992  87.9504990  91.1839997
  75.4122468  87.9978251  91.7848902  63.4849992  90.0894990  82.7199997
  64.0119992  90.8624990  82.5189997  62.6049992  90.3134990  82.4179997
  63.4381793  90.2256652  82.6516304  59.2399992  84.9514990  77.3069997
  59.8559992  85.5784990  77.6859997  58.3779992  85.2674990  77.5779997
  59.2078195  85.0800810  77.3955369  64.9119992  87.7524990  82.2959997
  64.6709992  88.6774990  82.3379997  64.1719992  87.2934990  82.6919997
  64.7788934  87.8170881  82.3553191  65.4269992  91.9014990  88.6109997
  65.7899992  92.7554990  88.3779997  65.9589992  91.6094990  89.3519997
  65.5485141  91.9788907  88.6792079  63.5949992  92.7734990  81.8409997
  62.6459992  92.8794990  81.8929997  63.9469992  93.5944990  82.1859997
  63.5126214  92.8989361  81.8947317  68.9709992  88.0004990  88.3119997
  68.5449992  87.7724990  89.1379997  69.5519992  87.2614990  88.1289997
  68.9911587  87.8694084  88.4004111  71.6299992  92.5524990  90.7809997
  71.0279992  91.9964990  90.2859997  71.9109992  93.2194990  90.1549997
  71.5855757  92.5665755  90.6285657  75.6769992  93.4084990  77.5869997
  76.4209992  93.9944990  77.4469997  74.9829992  93.9774990  77.9199997
  75.6849809  93.5655830  77.6128572  59.7519992  79.7854990  90.1879997
  58.8589992  80.1234990  90.1209997  59.6529992  78.9294990  90.6059997
  59.6165241  79.7160941  90.2352982  59.4029992  91.5894990  88.6229997
  59.6199992  90.6574990  88.5919997  59.6499992  91.8644990  89.5069997
  59.4660543  91.4990877  88.7381412  68.4859992  79.5264990  89.0779997
  69.1849992  79.6004990  89.7279997  68.1059992  78.6614990  89.2329997
  68.5302095  79.4197402  89.1877982  67.0069992  81.8924990  90.1949997
  67.1259992  82.4664990  90.9519997  67.6619992  81.2044990  90.3099997
  67.1118684  81.8780205  90.3141656  67.3549992  77.9874990  81.9479997
  67.0079992  78.6044990  82.5929997  68.0129992  78.4884990  81.4669997
  67.3965290  78.1396384  81.9711635  73.2109992  79.7994990  91.0299997
  72.2949992  80.0614990  90.9419997  73.5469992  79.7964990  90.1329997
  73.1309789  79.8349637  90.8967829  59.5869992  82.1424990  76.8119997
  59.5419992  83.0814990  76.9909997  58.6989992  81.9064990  76.5419997
  59.4608472  82.2391946  76.8000282  72.8999992  92.8054990  86.7479997
  72.7439992  93.4844990  86.0909997  73.8319992  92.8774990  86.9509997
  73.0047328  92.9081586  86.6855529  60.3949992  76.9234990  85.4849997
  60.1659992  76.9824990  84.5579997  59.9519992  76.1324990  85.7919997
  60.3037387  76.8246412  85.3995223  59.3249992  90.8644990  81.6459997
  58.4929992  91.3364990  81.6729997  59.8709992  91.3744990  81.0469997
  59.2848710  90.9980317  81.5687570  58.6139992  93.4764990  92.9759997
  59.1539992  93.2604990  93.7349997  58.1319992  92.6714990  92.7859997
  58.6229101  93.3380216  93.0544364  63.2109992  92.3964990  94.5959997
  63.9789992  91.9374990  94.9369997  63.1899992  92.1704990  93.6659997
  63.3132135  92.3031680  94.5169473  69.7879992  90.7764990  93.3249997
  69.4369992  89.9194990  93.5679997  70.5139992  90.9184990  93.9319997
  69.8381590  90.6785189  93.4402889  58.5209992  87.2874990  93.9299997
  58.6649992  86.3854990  93.6439997  57.7479992  87.5734990  93.4419997
  58.4362854  87.2026876  93.8249363  65.1759992  87.2564990  93.3629997
  64.8479992  87.5274990  92.5049997  65.3279992  86.3154990  93.2749997
  65.1516970  87.1663694  93.2337953  70.9109992  87.1724990  90.7459997
  71.6559992  87.7614990  90.6259997  70.1529992  87.7544990  90.8089997
  70.9105185  87.3317000  90.7380940  59.3529992  84.4874990  93.3499997
  59.7609992  83.6304990  93.2289997  59.0929992  84.5014990  94.2709997
  59.3737082  84.3720596  93.4579469  63.2999992  83.4964990  90.7239997
  62.6819992  84.1704990  91.0049997  63.6439992  83.8174990  89.8909997
  63.2618181  83.6323233  90.6498266  68.3199992  85.9674990  94.0019997
  69.2729992  86.0514990  93.9739997  68.1599992  85.2554990  94.6209997
  68.4288161  85.8827198  94.0818689  63.6399992  80.8514990  91.8069997
  63.7899992  80.1224990  91.2039997  63.6419992  81.6284990  91.2479997
  63.6607664  80.8568971  91.6490525  64.0519992  79.2204990  89.2989997
  64.5879992  79.6724990  88.6469997  63.1999992  79.1124990  88.8769997
  64.0101648  79.2677883  89.1526395  65.6339992  84.6604990  89.5389997
  66.3849992  84.5044990  88.9659997  65.2949992  85.5124990  89.2629997
  65.6909052  84.7542745  89.4233469  70.0499992  82.4754990  94.5669997
  70.2419992  81.5444990  94.4559997  70.9069992  82.9004990  94.5569997
  70.1922320  82.4054743  94.5504433  71.3659992  85.2644990  92.6449997
  71.0849992  85.9734990  92.0669997  72.3089992  85.1914990  92.4939997
  71.4549272  85.3516704  92.5454976  62.1179992  82.0494990  93.7179997
  61.3509992  81.5164990  93.5079997  62.7969992  81.7394990  93.1189997
  62.1048292  81.9346360  93.6082693  64.8579992  76.6774990  89.7309997
  64.7599992  77.6234990  89.6249997  64.1149992  76.3044990  89.2549997
  64.7442363  76.7565987  89.6522029  66.1219992  80.9984990  93.2939997
  65.8859992  80.7794990  94.1959997  65.3389992  80.7914990  92.7849997
  65.9838444  80.9405688  93.3484518  68.8379992  80.1264990  92.3699997
  67.8899992  80.1584990  92.5019997  69.1499992  79.5004990  93.0239997
  68.7505293  80.0462934  92.4764130  70.4719992  78.7604990  94.3749997
  70.3749992  77.8084990  94.3689997  70.1499992  79.0284990  95.2359997
  70.4152229  78.6664706  94.4905108  60.2989992  79.9694990  93.4229997
  60.5099992  79.2634990  92.8119997  60.1869992  79.5324990  94.2669997
  60.3127674  79.8136376  93.4534199  65.0799992  75.9714990  92.4019997
  65.7909992  75.3314990  92.3879997  64.9789992  76.2374990  91.4879997
  65.1636732  75.9198451  92.2765475  65.4329992  77.6534990  94.4559997
  65.3019992  77.1784990  93.6349997  64.8339992  78.3984990  94.3999997
  65.3341524  77.6891968  94.3361553  57.1969992  94.5664990  82.1919997
  56.5499992  94.1044990  81.6589997  57.5519992  93.8944990  82.7749997
  57.1563861  94.4124707  82.1977939  58.0669992  92.6464990  83.9969997
  57.7329992  91.7664990  84.1689997  58.2889992  92.9924990  84.8609997
  58.0512677  92.5727366  84.1374252  75.6159992  93.4564990  86.9769997
  75.5939992  93.6414990  87.9159997  76.3059992  94.0244990  86.6359997
  75.7063439  93.5586898  87.0594774  75.1789992  93.0234990  89.8989997
  74.6919992  92.2874990  89.5279997  75.7279992  92.6294990  90.5769997
  75.1866101  92.8696267  89.9399034  73.6299992  88.8134990  94.5369997
  72.7639992  88.7084990  94.9309997  74.0059992  89.5714990  94.9839997
  73.5623768  88.9016151  94.6513258  73.5699992  90.7864990  89.1299997
  72.9229992  91.1114990  89.7549997  73.0529992  90.3454990  88.4549997
  73.4114068  90.7714726  89.1244918  58.1469992  85.7224990  86.4479997
  58.3309992  85.6404990  85.5129997  58.9959992  85.5984990  86.8719997
  58.2870259  85.6944915  86.3771771  73.9679992  85.6144990  92.0769997
  74.5509992  84.8794990  92.2679997  74.5319992  86.3864990  92.1229997
  74.1240326  85.6182746  92.1093579  75.4649992  83.5174990  92.7609997
  74.6009992  83.1384990  92.5959997  76.0689992  82.7784990  92.6869997
  75.4284912  83.3657937  92.7284360  57.7439992  80.9924990  92.5889997
  58.6639992  80.8704990  92.8249997  57.2949992  80.2424990  92.9779997
  57.8091561  80.8743720  92.6739015  75.7459992  76.5254990  94.4659997
  76.0959992  75.8714990  93.8599997  75.8929992  77.3624990  94.0259997
  75.8137192  76.5492545  94.3236712  58.9659992  79.3054990  85.4799997
  59.4109992  78.5134990  85.7819997  59.4319992  80.0214990  85.9109997
  59.0899059  79.2939485  85.5796061  57.2699992  82.3044990  86.5489997
  57.7619992  82.0834990  85.7589997  57.6319992  83.1444990  86.8299997
  57.3863429  82.3878220  86.4787918  75.2659992  78.6344990  92.8149997
  74.3489992  78.9054990  92.7789997  75.3889992  78.0994990  92.0309997
  75.1570828  78.5992711  92.7040767  57.5829992  78.5624990  80.6039997
  56.6579992  78.7704990  80.4739997  58.0369992  79.0464990  79.9139997
  57.5177401  78.6563895  80.4929433  72.3539992  93.5464990  82.5489997
  73.0059992  93.1984990  81.9409997  72.8649992  94.0344990  83.1949997
  72.5122872  93.5648248  82.5530964  57.5469992  77.3004990  88.9479997
  56.8819992  77.0544990  89.5909997  57.1039992  77.9224990  88.3709997
  57.3961168  77.3509225  88.9579830  59.7389992  90.4754990  93.0919997
  58.9179992  90.6504990  92.6319997  59.4869992  90.4024990  94.0129997
  59.5926173  90.4895806  93.1534954  62.6929992  91.4494990  89.3509997
  62.2679992  92.2594990  89.0679997  63.5969992  91.5354990  89.0489997
  62.7571002  91.5718728  89.2714798  67.0039992  92.8484990  92.3099997
  67.1889992  92.5154990  93.1879997  67.8509992  93.1584990  91.9879997
  67.1437291  92.8448214  92.3866140  69.3489992  94.1344990  91.5539997
  70.0259992  93.5014990  91.3139997  69.6709992  94.5354990  92.3619997
  69.4851280  94.1020638  91.6303190  74.2669992  76.7244990  90.6339997
  73.4539992  77.0494990  90.2459997  74.4999992  75.9634990  90.1009997
  74.1872566  76.6661570  90.5089196  60.0949992  94.7064990  89.3979997
  59.3739992  95.1464990  88.9469997  59.7289992  94.4554990  90.2469997
  59.9469785  94.7327691  89.4509849  62.5619992  94.3064990  88.4279997
  61.6969992  94.3784990  88.8319997  62.5069992  94.8534990  87.6439997
  62.4362066  94.3902678  88.3773371  67.2729992  94.1944990  87.6039997
  66.8159992  94.7234990  86.9499997  67.4349992  94.7974990  88.3289997
  67.2323919  94.3483990  87.6125740  69.5999992  93.0724990  88.5489997
  68.6959992  93.2374990  88.2829997  70.0289992  93.9254990  88.4829997
  69.5342017  93.2104184  88.5036495  72.2039992  94.6424990  88.8439997
  72.0229992  95.5584990  88.6329997  72.3809992  94.2314990  87.9969997
  72.2031377  94.7123365  88.7007178  59.5099992  93.3294990  86.3089997
  59.4909992  92.9034990  87.1659997  60.3139992  93.0104990  85.8999997
  59.6161393  93.2280297  86.3710155  61.6509992  92.0394990  84.9639997
  61.4319992  91.1224990  85.1329997  62.4749992  92.1794990  85.4299997
  61.7324637  91.9329586  85.0501414  64.1879992  92.5094990  85.8119997
  64.4009992  91.6214990  85.5249997  64.2529992  92.4744990  86.7669997
  64.2259075  92.3833318  85.9017355  60.0229992  76.8074990  82.7789997
  59.2459992  76.5724990  82.2709997  60.5539992  76.0104990  82.7879997
  59.9884443  76.6676721  82.7107200  64.6029992  76.7334990  82.5919997
  65.4769992  77.1224990  82.5619997  64.4669992  76.5184990  83.5149997
  64.7043125  76.7577120  82.7126523  58.7609992  92.5534990  79.4799997
  58.0759992  92.5154990  78.8119997  58.7639992  93.4654990  79.7679997
  58.6677358  92.6716744  79.4276145  60.7209992  78.5214990  77.0249997
  61.2119992  77.8914990  76.4969997  61.3439992  78.8174990  77.6879997
  60.8725459  78.4752419  77.0423667  74.3339992  93.3254990  80.5569997
  74.1399992  92.5774990  79.9919997  74.2949992  94.0834990  79.9729997
  74.3021907  93.3255770  80.4008077  59.9809992  77.3214990  92.2959997
  59.6149992  76.5554990  92.7389997  60.8939992  77.3504990  92.5829997
  60.0543225  77.2206917  92.3953441  61.9539992  76.6714990  93.8319997
  62.8529992  76.3974990  93.6469997  61.5679992  75.9294990  94.2959997
  62.0247237  76.5336520  93.8694693  70.3749992  76.0044990  94.0139997
  70.4519992  75.5784990  94.8679997  71.2689992  76.0174990  93.6719997
  70.5063315  75.9480320  94.0845052  73.5519992  92.0764990  92.7069997
  72.7699992  91.8904990  92.1869997  73.4799992  93.0064990  92.9239997
  73.4352975  92.1766973  92.6651823  86.8909992  85.2184990  86.1559997
  86.8519992  84.5724990  86.8609997  86.5679992  84.7514990  85.3849997
  86.8420199  85.0670089  86.1482865  79.2589992  84.8324990  87.7489997
  79.2999992  84.2074990  88.4729997  79.9619992  85.4564990  87.9309997
  79.3596054  84.8313262  87.8726311  90.5969992  88.1574990  84.4579997
  90.1559992  87.4374990  84.9079997  90.5839992  88.8784990  85.0879997
  90.5348398  88.1563187  84.6047734  80.1829992  89.2824990  86.2839997
  79.8129992  88.4804990  85.9149997  81.1239992  89.1144990  86.3309997
  80.2595630  89.1498680  86.2397873  87.7079992  93.2614990  84.6699997
  88.3279992  92.5854990  84.3969997  87.4999992  93.0434990  85.5779997
  87.7647360  93.1394792  84.7554387  85.2799992  87.6504990  86.5619997
  85.5839992  86.9644990  85.9679997  86.0019992  87.7694990  87.1799997
  85.4191152  87.5727201  86.5642106  93.9429992  79.2524990  87.4229997
  93.9919992  79.8624990  88.1589997  94.3689992  79.7134990  86.6999997
  94.0072851  79.3983266  87.4260532  88.4209992  82.0444990  86.8899997
  88.5629992  81.0984990  86.9099997  88.3149992  82.2514990  85.9609997
  88.4261158  81.9429722  86.7672241  81.5759992  80.1464990  84.1619997
  81.6189992  81.0064990  83.7439997  81.1179992  79.5934990  83.5289997
  81.5199613  80.1895689  84.0191276  78.1959992  82.5434990  84.9239997
  78.8499992  81.9934990  85.3559997  78.2199992  82.2694990  84.0079997
  78.2887022  82.4312005  84.8591698  94.3349992  80.7304990  89.6589997
  93.6459992  81.3884990  89.5639997  94.3499992  80.5324990  90.5959997
  94.2427756  80.7937614  89.7725795  80.3859992  79.0644990  88.2359997
  80.1669992  79.5944990  87.4699997  79.7179992  79.2904990  88.8839997
  80.2657271  79.1676508  88.2186206  87.7549992  88.5644990  81.7799997
  87.4589992  88.2414990  80.9289997  87.4309992  89.4644990  81.8219997
  87.6706501  88.6419058  81.6690893  82.9549992  86.7394990  88.5239997
  82.2149992  87.3384990  88.6269997  83.6689992  87.2934990  88.2079997
  82.9503288  86.8962368  88.4953787  91.0619992  79.5684990  84.5439997
  90.8469992  78.8024990  85.0759997  91.7179992  80.0404990  85.0569997
  91.1212451  79.5274472  84.6861699  79.9799992  80.9564990  86.1889997
  80.5929992  81.5894990  86.5619997  80.4919992  80.4844990  85.5319997
  80.1331680  80.9794006  86.1512830  81.3619992  88.7044990  89.3109997
  81.3569992  89.5834990  88.9329997  80.5089992  88.6204990  89.7359997
  81.2459199  88.8135901  89.3166942  91.1089992  89.9964990  86.8059997
  90.1669992  90.0554990  86.9669997  91.3849992  90.9024990  86.6689997
  91.0175771  90.1270270  86.8094827  91.4089992  78.2834990  88.2229997
  90.6729992  78.8934990  88.1849997  92.0929992  78.6984990  87.6969997
  91.4005885  78.4231924  88.1466931  84.4119992  76.3694990  85.6889997
  84.2949992  75.4214990  85.6349997  83.5569992  76.7024990  85.9619997
  84.2803691  76.2845842  85.7185072  89.3609992  91.7774990  83.4309997
  89.7859992  91.0704990  82.9459997  89.6779992  92.5794990  83.0139997
  89.4620266  91.7890201  83.3082461  90.5199992  89.6784990  81.9399997
  90.2629992  88.9884990  81.3279997  90.5909992  89.2354990  82.7849997
  90.4944322  89.5241568  81.9705372  92.2059992  88.2454990  90.4169997
  92.3459992  87.6534990  89.6779997  92.3739992  89.1184990  90.0609997
  92.2478734  88.2824041  90.2676937  94.0479992  84.5854990  88.4829997
  93.3959992  85.2794990  88.5719997  94.5129992  84.7954990  87.6729997
  94.0215357  84.7089544  88.3857056  89.9819992  83.5914990  90.2089997
  90.0619992  84.3544990  90.7809997  89.3809992  83.8704990  89.5179997
  89.9117115  83.7337707  90.1939631  83.0969992  89.4754990  85.7049997
  83.0019992  88.8964990  84.9479997  83.8259992  89.1044990  86.2009997
  83.1826161  89.3460902  85.6685192  82.0969992  84.8154990  86.6569997
  82.6619992  84.9374990  85.8939997  82.4149992  85.4534990  87.2959997
  82.2173430  84.9184448  86.6389094  88.4059992  90.3194990  87.3909997
  88.1649992  90.9814990  88.0389997  88.2079992  89.4844990  87.8159997
  88.3462662  90.2972704  87.5371008  82.9769992  89.2154990  91.3739997
  82.6649992  89.9974990  91.8299997  82.3269992  89.0624990  90.6879997
  82.8464643  89.3018019  91.3436657  79.8969992  85.4134990  90.6029997
  79.9669992  86.0644990  91.3009997  79.0059992  85.5164990  90.2679997
  79.7861802  85.5164769  90.6532231  86.6819992  91.3154990  82.2619997
  87.1559992  91.6114990  83.0389997  86.1189992  92.0544990  82.0279997
  86.6708461  91.4558336  82.3367626  81.2159992  91.2864990  92.1379997
  81.2239992  91.1504990  91.1899997  80.2999992  91.1694990  92.3899997
  81.0932512  91.2520663  92.0423179  76.8129992  87.4794990  89.4279997
  76.3119992  87.4514990  88.6129997  76.8189992  86.5744990  89.7379997
  76.7451690  87.3532234  89.3582770  76.5639992  90.2604990  86.3119997
  77.5099992  90.1154990  86.2929997  76.4509992  91.0444990  86.8489997
  76.6783578  90.3466708  86.3820300  94.7609992  90.9264990  91.9939997
  94.7119992  89.9704990  91.9569997  93.9349992  91.1934990  92.3959997
  94.6425767  90.8318841  92.0433133  85.7399992  90.5004990  90.8699997
  85.8269992  91.3264990  91.3449997  84.8759992  90.1704990  91.1189997
  85.6351944  90.5689871  90.9686558  86.1539992  94.2724990  80.6759997
  86.0789992  94.1514990  79.7299997  86.1869992  95.2214990  80.7949997
  86.1481862  94.3842492  80.5624840  79.8079992  93.0614990  82.4569997
  79.9599992  92.7134990  83.3359997  78.9569992  92.7044990  82.2019997
  79.7137899  92.9656749  82.5427322  88.9249992  93.3524990  80.4279997
  87.9899992  93.4524990  80.6069997  89.2049992  92.6424990  81.0059997
  88.8349270  93.2702300  80.5305984  91.9129992  82.4194990  92.4739997
  91.5059992  82.8994990  91.7539997  91.9539992  81.5134990  92.1669997
  91.8627178  82.3628609  92.3337441  79.0619992  88.8034990  90.4709997
  79.2779992  88.4414990  91.3309997  78.2069992  88.4284990  90.2609997
  78.9759349  88.7032914  90.5602134  81.6809992  77.2734990  86.4669997
  80.8189992  77.1864990  86.0589997  81.6589992  78.1294990  86.8939997
  81.5600953  77.3773558  86.4689262  86.3439992  76.9954990  89.8409997
  86.7639992  76.5804990  90.5939997  85.4109992  76.8164990  89.9579997
  86.2753736  76.9144921  89.9598950  89.6699992  80.7504990  90.6949997
  89.1559992  80.6254990  91.4919997  89.5149992  81.6634990  90.4499997
  89.5786643  80.8567068  90.7710624  81.7719992  82.2384990  87.5619997
  81.1299992  82.1984990  88.2709997  81.8089992  83.1654990  87.3239997
  81.6891659  82.3582540  87.6268463  86.4069992  83.0514990  92.7789997
  85.8439992  82.3464990  93.0989997  87.2329992  82.9304990  93.2459997
  86.4416423  82.9385614  92.8860168  88.3089992  82.3214990  84.1049997
  88.1139992  82.9274990  83.3899997  88.4909992  81.4884990  83.6699997
  88.3069272  82.2917955  83.9484075  79.5219992  82.5594990  89.4289997
  79.4839992  82.9594990  90.2969997  79.0309992  81.7424990  89.5189997
  79.4504246  82.5038842  89.5601171  87.5729992  83.9594990  88.7759997
  87.8969992  83.3284990  88.1329997  87.1329992  83.4254990  89.4369997
  87.5578707  83.8008261  88.7773195  88.7559992  79.1224990  86.8239997
  88.0789992  79.2534990  87.4879997  88.2699992  78.9674990  86.0139997
  88.5977265  79.1194665  86.8053380  92.0429992  94.7934990  93.1009997
  92.2429992  95.2174990  92.2659997  92.6989992  95.1374990  93.7079997
  92.1589916  94.8979784  93.0687890  79.6409992  87.2674990  92.7089997
  80.3729992  87.5224990  93.2699997  78.8609992  87.4724990  93.2239997
  79.6357684  87.3301457  92.8554774  85.6709992  82.6744990  85.4469997
  86.2349992  82.1284990  84.8999997  85.5229992  82.1534990  86.2359997
  85.7283037  82.5291798  85.4787212  84.2969992  81.0634990  87.8609997
  83.4619992  81.5174990  87.9709997  84.8209992  81.3394990  88.6129997
  84.2535070  81.1629677  87.9777134  91.9909992  86.4094990  88.3319997
  92.6329992  86.8654990  87.7889997  91.1609992  86.5224990  87.8699997
  91.9667352  86.4873223  88.1950234  86.3609992  87.4604990  90.7829997
  86.0149992  87.0784990  91.5889997  86.1609992  88.3934990  90.8539997
  86.2865399  87.5343489  90.9030401  79.9659992  86.5714990  85.3149997
  80.7109992  86.5684990  84.7139997  80.0439992  85.7474990  85.7969997
  80.0784158  86.4597928  85.2979136  86.9669992  88.7344990  78.5709997
  86.6719992  89.5614990  78.9529997  86.2639992  88.1154990  78.7669997
  86.8315855  88.7639458  78.6497634  76.9739992  85.0314990  90.6299997
  77.1969992  84.6134990  91.4619997  76.3719992  84.4194990  90.2079997
  76.9230802  84.8915216  90.6867561  83.9909992  84.5484990  92.8429997
  83.6949992  84.3834990  91.9479997  84.9219992  84.3284990  92.8329997
  84.0763909  84.4961274  92.7190110  88.6109992  89.9224990  90.7329997
  87.7099992  90.1054990  90.4649997  88.6449992  90.1814990  91.6539997
  88.4923021  89.9825505  90.8208206  94.3419992  82.1664990  79.0999997
  93.7879992  81.7704990  78.4279997  94.4429992  83.0774990  78.8229997
  94.2797084  82.2353565  78.9704381  94.3049992  87.9674990  91.9369997
  93.4539992  88.2054990  91.5699997  94.8959992  87.9504990  91.1839997
  94.2682468  87.9978251  91.7848902  92.6369992  90.9524990  79.5649997
  92.2649992  90.1274990  79.8749997  92.9149992  90.7694990  78.6679997
  92.6235997  90.8146160  79.4861551  89.7979992  85.7604990  86.5869997
  88.8699992  85.5294990  86.5599997  90.2489992  84.9834990  86.2569997
  89.7318165  85.6237785  86.5386772  84.2829992  91.9014990  88.6109997
  84.6459992  92.7554990  88.3779997  84.8149992  91.6094990  89.3519997
  84.4045141  91.9788907  88.6792079  82.4509992  92.7734990  81.8409997
  81.5019992  92.8794990  81.8929997  82.8029992  93.5944990  82.1859997
  82.3686214  92.8989361  81.8947317  87.8269992  88.0004990  88.3119997
  87.4009992  87.7724990  89.1379997  88.4079992  87.2614990  88.1289997
  87.8471587  87.8694084  88.4004111  90.4859992  92.5524990  90.7809997
  89.8839992  91.9964990  90.2859997  90.7669992  93.2194990  90.1549997
  90.4415757  92.5665755  90.6285657  78.6079992  79.7854990  90.1879997
  77.7149992  80.1234990  90.1209997  78.5089992  78.9294990  90.6059997
  78.4725241  79.7160941  90.2352982  90.8959992  87.6014990  79.6119997
  90.6189992  86.8734990  80.1679997  91.8229992  87.7204990  79.8179997
  90.9834181  87.5180068  79.7158972  78.2589992  91.5894990  88.6229997
  78.4759992  90.6574990  88.5919997  78.5059992  91.8644990  89.5069997
  78.3220543  91.4990877  88.7381412  84.1209992  90.0414990  75.8329997
  84.3599992  89.2924990  75.2849997  83.8519992  89.6534990  76.6649997
  84.1172804  89.8866524  75.8706352  87.3419992  79.5264990  89.0779997
  88.0409992  79.6004990  89.7279997  86.9619992  78.6614990  89.2329997
  87.3862095  79.4197402  89.1877982  85.7959992  91.3084990  79.0379997
  84.9789992  91.8054990  79.0909997  86.3249992  91.7844990  78.3979997
  85.7557898  91.4408123  78.9587274  85.8629992  81.8924990  90.1949997
  85.9819992  82.4664990  90.9519997  86.5179992  81.2044990  90.3099997
  85.9678684  81.8780205  90.3141656  83.1339992  92.3524990  79.0199997
  83.2949992  93.1524990  78.5189997  82.9369992  92.6594990  79.9049997
  83.1293919  92.5034140  79.0710988  92.0669992  79.7994990  91.0299997
  91.1509992  80.0614990  90.9419997  92.4029992  79.7964990  90.1329997
  91.9869789  79.8349637  90.8967829  90.6689992  83.5494990  85.1259997
  89.8719992  83.1344990  84.7969997  91.1139992  82.8594990  85.6169997
  90.6200317  83.3993197  85.1473556  91.7559992  92.8054990  86.7479997
  91.5999992  93.4844990  86.0909997  92.6879992  92.8774990  86.9509997
  91.8607328  92.9081586  86.6855529  79.2509992  76.9234990  85.4849997
  79.0219992  76.9824990  84.5579997  78.8079992  76.1324990  85.7919997
  79.1597387  76.8246412  85.3995223  78.1809992  90.8644990  81.6459997
  77.3489992  91.3364990  81.6729997  78.7269992  91.3744990  81.0469997
  78.1408710  90.9980317  81.5687570  77.4699992  93.4764990  92.9759997
  78.0099992  93.2604990  93.7349997  76.9879992  92.6714990  92.7859997
  77.4789101  93.3380216  93.0544364  82.0669992  92.3964990  94.5959997
  82.8349992  91.9374990  94.9369997  82.0459992  92.1704990  93.6659997
  82.1692135  92.3031680  94.5169473  88.6439992  90.7764990  93.3249997
  88.2929992  89.9194990  93.5679997  89.3699992  90.9184990  93.9319997
  88.6941590  90.6785189  93.4402889  90.7629992  91.7214990  76.2049997
  91.0459992  90.9264990  76.6579997  91.5029992  91.9544990  75.6439997
  90.9017295  91.6442349  76.1911469  77.3769992  87.2874990  93.9299997
  77.5209992  86.3854990  93.6439997  76.6039992  87.5734990  93.4419997
  77.2922854  87.2026876  93.8249363  84.0319992  87.2564990  93.3629997
  83.7039992  87.5274990  92.5049997  84.1839992  86.3154990  93.2749997
  84.0076970  87.1663694  93.2337953  87.0699992  88.6774990  75.7979997
  86.8019992  88.8584990  76.6989997  86.8639992  87.7524990  75.6669997
  87.0054251  88.5771528  75.9036809  89.7669992  87.1724990  90.7459997
  90.5119992  87.7614990  90.6259997  89.0089992  87.7544990  90.8089997
  89.7665185  87.3317000  90.7380940  78.2089992  84.4874990  93.3499997
  78.6169992  83.6304990  93.2289997  77.9489992  84.5014990  94.2709997
  78.2297082  84.3720596  93.4579469  82.1559992  83.4964990  90.7239997
  81.5379992  84.1704990  91.0049997  82.4999992  83.8174990  89.8909997
  82.1178181  83.6323233  90.6498266  87.1759992  85.9674990  94.0019997
  88.1289992  86.0514990  93.9739997  87.0159992  85.2554990  94.6209997
  87.2848161  85.8827198  94.0818689  82.4959992  80.8514990  91.8069997
  82.6459992  80.1224990  91.2039997  82.4979992  81.6284990  91.2479997
  82.5167664  80.8568971  91.6490525  82.9079992  79.2204990  89.2989997
  83.4439992  79.6724990  88.6469997  82.0559992  79.1124990  88.8769997
  82.8661648  79.2677883  89.1526395  84.4899992  84.6604990  89.5389997
  85.2409992  84.5044990  88.9659997  84.1509992  85.5124990  89.2629997
  84.5469052  84.7542745  89.4233469  88.9059992  82.4754990  94.5669997
  89.0979992  81.5444990  94.4559997  89.7629992  82.9004990  94.5569997
  89.0482320  82.4054743  94.5504433  90.2219992  85.2644990  92.6449997
  89.9409992  85.9734990  92.0669997  91.1649992  85.1914990  92.4939997
  90.3109272  85.3516704  92.5454976  80.9739992  82.0494990  93.7179997
  80.2069992  81.5164990  93.5079997  81.6529992  81.7394990  93.1189997
  80.9608292  81.9346360  93.6082693  83.7139992  76.6774990  89.7309997
  83.6159992  77.6234990  89.6249997  82.9709992  76.3044990  89.2549997
  83.6002363  76.7565987  89.6522029  84.9779992  80.9984990  93.2939997
  84.7419992  80.7794990  94.1959997  84.1949992  80.7914990  92.7849997
  84.8398444  80.9405688  93.3484518  87.6939992  80.1264990  92.3699997
  86.7459992  80.1584990  92.5019997  88.0059992  79.5004990  93.0239997
  87.6065293  80.0462934  92.4764130  89.3279992  78.7604990  94.3749997
  89.2309992  77.8084990  94.3689997  89.0059992  79.0284990  95.2359997
  89.2712229  78.6664706  94.4905108  79.1549992  79.9694990  93.4229997
  79.3659992  79.2634990  92.8119997  79.0429992  79.5324990  94.2669997
  79.1687674  79.8136376  93.4534199  83.9359992  75.9714990  92.4019997
  84.6469992  75.3314990  92.3879997  83.8349992  76.2374990  91.4879997
  84.0196732  75.9198451  92.2765475  84.2889992  77.6534990  94.4559997
  84.1579992  77.1784990  93.6349997  83.6899992  78.3984990  94.3999997
  84.1901524  77.6891968  94.3361553  76.0529992  94.5664990  82.1919997
  75.4059992  94.1044990  81.6589997  76.4079992  93.8944990  82.7749997
  76.0123861  94.4124707  82.1977939  76.9229992  92.6464990  83.9969997
  76.5889992  91.7664990  84.1689997  77.1449992  92.9924990  84.8609997
  76.9072677  92.5727366  84.1374252  94.4719992  93.4564990  86.9769997
  94.4499992  93.6414990  87.9159997  95.1619992  94.0244990  86.6359997
  94.5623439  93.5586898  87.0594774  94.0349992  93.0234990  89.8989997
  93.5479992  92.2874990  89.5279997  94.5839992  92.6294990  90.5769997
  94.0426101  92.8696267  89.9399034  92.4859992  88.8134990  94.5369997
  91.6199992  88.7084990  94.9309997  92.8619992  89.5714990  94.9839997
  92.4183768  88.9016151  94.6513258  93.7869992  87.0694990  80.0509997
  94.6369992  87.4904990  80.1789997  93.7919992  86.3294990  80.6589997
  93.9039745  87.0271347  80.1506479  94.1809992  85.1234990  81.8749997
  93.4549992  84.6434990  82.2729997  94.7619992  85.3284990  82.6069997
  94.1602504  85.0855592  82.0284199  93.9399992  87.9084990  86.8229997
  94.7739992  87.5304990  86.5419997  94.0519992  88.8514990  86.7039997
  94.0691917  87.9842954  86.7684844  92.4259992  90.7864990  89.1299997
  91.7789992  91.1114990  89.7549997  91.9089992  90.3454990  88.4549997
  92.2674068  90.7714726  89.1244918  91.9679992  83.6444990  82.4379997
  91.8179992  82.6994990  82.4179997  91.6139992  83.9254990  83.2819997
  91.8996351  83.5531656  82.5493202  92.8239992  85.6144990  92.0769997
  93.4069992  84.8794990  92.2679997  93.3879992  86.3864990  92.1229997
  92.9800326  85.6182746  92.1093579  94.3209992  83.5174990  92.7609997
  93.4569992  83.1384990  92.5959997  94.9249992  82.7784990  92.6869997
  94.2844912  83.3657937  92.7284360  92.2899992  81.8084990  86.3359997
  93.2229992  82.0204990  86.3019997  92.0549992  81.9094990  87.2589997
  92.3858357  81.8511303  86.4560232  92.3189992  82.5454990  89.1119997
  91.4759992  82.8134990  89.4779997  92.7619992  83.3674990  88.9009997
  92.2634358  82.6933294  89.1335999  76.5999992  80.9924990  92.5889997
  77.5199992  80.8704990  92.8249997  76.1509992  80.2424990  92.9779997
  76.6651561  80.8743720  92.6739015  94.6019992  76.5254990  94.4659997
  94.9519992  75.8714990  93.8599997  94.7489992  77.3624990  94.0259997
  94.6697192  76.5492545  94.3236712  92.2919992  78.4894990  80.9489997
  92.4739992  78.0404990  81.7739997  91.6919992  77.9054990  80.4849997
  92.2358187  78.3490563  80.9992721  94.1219992  78.6344990  92.8149997
  93.2049992  78.9054990  92.7789997  94.2449992  78.0994990  92.0309997
  94.0130828  78.5992711  92.7040767  91.2099992  93.5464990  82.5489997
  91.8619992  93.1984990  81.9409997  91.7209992  94.0344990  83.1949997
  91.3682872  93.5648248  82.5530964  76.4029992  77.3004990  88.9479997
  75.7379992  77.0544990  89.5909997  75.9599992  77.9224990  88.3709997
  76.2521168  77.3509225  88.9579830  78.5949992  90.4754990  93.0919997
  77.7739992  90.6504990  92.6319997  78.3429992  90.4024990  94.0129997
  78.4486173  90.4895806  93.1534954  81.5489992  91.4494990  89.3509997
  81.1239992  92.2594990  89.0679997  82.4529992  91.5354990  89.0489997
  81.6131002  91.5718728  89.2714798  85.8599992  92.8484990  92.3099997
  86.0449992  92.5154990  93.1879997  86.7069992  93.1584990  91.9879997
  85.9997291  92.8448214  92.3866140  88.2049992  94.1344990  91.5539997
  88.8819992  93.5014990  91.3139997  88.5269992  94.5354990  92.3619997
  88.3411280  94.1020638  91.6303190  93.1229992  76.7244990  90.6339997
  92.3099992  77.0494990  90.2459997  93.3559992  75.9634990  90.1009997
  93.0432566  76.6661570  90.5089196  78.9509992  94.7064990  89.3979997
  78.2299992  95.1464990  88.9469997  78.5849992  94.4554990  90.2469997
  78.8029785  94.7327691  89.4509849  81.4179992  94.3064990  88.4279997
  80.5529992  94.3784990  88.8319997  81.3629992  94.8534990  87.6439997
  81.2922066  94.3902678  88.3773371  86.1289992  94.1944990  87.6039997
  85.6719992  94.7234990  86.9499997  86.2909992  94.7974990  88.3289997
  86.0883919  94.3483990  87.6125740  88.4559992  93.0724990  88.5489997
  87.5519992  93.2374990  88.2829997  88.8849992  93.9254990  88.4829997
  88.3902017  93.2104184  88.5036495  91.0599992  94.6424990  88.8439997
  90.8789992  95.5584990  88.6329997  91.2369992  94.2314990  87.9969997
  91.0591377  94.7123365  88.7007178  78.3659992  93.3294990  86.3089997
  78.3469992  92.9034990  87.1659997  79.1699992  93.0104990  85.8999997
  78.4721393  93.2280297  86.3710155  80.5069992  92.0394990  84.9639997
  80.2879992  91.1224990  85.1329997  81.3309992  92.1794990  85.4299997
  80.5884637  91.9329586  85.0501414  83.0439992  92.5094990  85.8119997
  83.2569992  91.6214990  85.5249997  83.1089992  92.4744990  86.7669997
  83.0819075  92.3833318  85.9017355  91.6949992  76.2804990  85.0689997
  92.2989992  76.8284990  84.5679997  90.8259992  76.5994990  84.8289997
  91.6601126  76.3987070  84.9679180  93.4219992  77.4194990  83.4029997
  94.0339992  76.9054990  82.8759997  93.8049992  78.2964990  83.4259997
  93.5573867  77.4677613  83.3340888  89.0149992  76.7634990  84.2409997
  89.0919992  76.8594990  83.2919997  88.7399992  75.8564990  84.3699997
  88.9883407  76.6539188  84.1283532  77.6169992  92.5534990  79.4799997
  76.9319992  92.5154990  78.8119997  77.6199992  93.4654990  79.7679997
  77.5237358  92.6716744  79.4276145  93.1899992  93.3254990  80.5569997
  92.9959992  92.5774990  79.9919997  93.1509992  94.0834990  79.9729997
  93.1581907  93.3255770  80.4008077  78.8369992  77.3214990  92.2959997
  78.4709992  76.5554990  92.7389997  79.7499992  77.3504990  92.5829997
  78.9103225  77.2206917  92.3953441  80.8099992  76.6714990  93.8319997
  81.7089992  76.3974990  93.6469997  80.4239992  75.9294990  94.2959997
  80.8807237  76.5336520  93.8694693  89.2309992  76.0044990  94.0139997
  89.3079992  75.5784990  94.8679997  90.1249992  76.0174990  93.6719997
  89.3623315  75.9480320  94.0845052  92.4079992  92.0764990  92.7069997
  91.6259992  91.8904990  92.1869997  92.3359992  93.0064990  92.9239997
  92.2912975  92.1766973  92.6651822 106.8139992  85.9634990  82.7369997
 106.9029992  86.9074990  82.6049997 106.1749992  85.6884990  82.0789997
 106.7398319  86.0554984  82.6300276 105.7469992  85.2184990  86.1559997
 105.7079992  84.5724990  86.8609997 105.4239992  84.7514990  85.3849997
 105.6980199  85.0670089  86.1482865  98.1149992  84.8324990  87.7489997
  98.1559992  84.2074990  88.4729997  98.8179992  85.4564990  87.9309997
  98.2156054  84.8313262  87.8726311 109.4529992  88.1574990  84.4579997
 109.0119992  87.4374990  84.9079997 109.4399992  88.8784990  85.0879997
 109.3908398  88.1563187  84.6047734  99.0389992  89.2824990  86.2839997
  98.6689992  88.4804990  85.9149997  99.9799992  89.1144990  86.3309997
  99.1155630  89.1498680  86.2397873  95.6489992  82.9424990  81.6769997
  95.2009992  83.7884990  81.6589997  95.0879992  82.3634990  81.1619997
  95.5118546  82.9799004  81.6048874  96.3589992  85.1044990  83.8029997
  96.5729992  84.3344990  84.3299997  97.0969992  85.1944990  83.1999997
  96.4880073  85.0113546  83.7935786 106.5639992  93.2614990  84.6699997
 107.1839992  92.5854990  84.3969997 106.3559992  93.0434990  85.5779997
 106.6207360  93.1394792  84.7554387 104.1359992  87.6504990  86.5619997
 104.4399992  86.9644990  85.9679997 104.8579992  87.7694990  87.1799997
 104.2751152  87.5727201  86.5642106 112.7989992  79.2524990  87.4229997
 112.8479992  79.8624990  88.1589997 113.2249992  79.7134990  86.6999997
 112.8632851  79.3983266  87.4260532 107.2769992  82.0444990  86.8899997
 107.4189992  81.0984990  86.9099997 107.1709992  82.2514990  85.9609997
 107.2821158  81.9429722  86.7672241 100.4319992  80.1464990  84.1619997
 100.4749992  81.0064990  83.7439997  99.9739992  79.5934990  83.5289997
 100.3759613  80.1895689  84.0191276 108.1539992  80.2774990  82.5629997
 108.7999992  79.9484990  83.1879997 108.6639992  80.7944990  81.9399997
 108.3114392  80.3023710  82.5643248  97.0519992  82.5434990  84.9239997
  97.7059992  81.9934990  85.3559997  97.0759992  82.2694990  84.0079997
  97.1447022  82.4312005  84.8591698 102.2079992  84.0934990  84.1399997
 102.8239992  83.5664990  84.6489997 101.6219992  83.4534990  83.7359997
 102.2130652  83.9348919  84.1550277 113.1909992  80.7304990  89.6589997
 112.5019992  81.3884990  89.5639997 113.2059992  80.5324990  90.5959997
 113.0987756  80.7937614  89.7725795  99.2419992  79.0644990  88.2359997
  99.0229992  79.5944990  87.4699997  98.5739992  79.2904990  88.8839997
  99.1217271  79.1676508  88.2186206 106.6109992  88.5644990  81.7799997
 106.3149992  88.2414990  80.9289997 106.2869992  89.4644990  81.8219997
 106.5266501  88.6419058  81.6690893 101.8109992  86.7394990  88.5239997
 101.0709992  87.3384990  88.6269997 102.5249992  87.2934990  88.2079997
 101.8063288  86.8962368  88.4953787 109.9179992  79.5684990  84.5439997
 109.7029992  78.8024990  85.0759997 110.5739992  80.0404990  85.0569997
 109.9772451  79.5274472  84.6861699  98.8359992  80.9564990  86.1889997
  99.4489992  81.5894990  86.5619997  99.3479992  80.4844990  85.5319997
  98.9891680  80.9794006  86.1512830 100.2179992  88.7044990  89.3109997
 100.2129992  89.5834990  88.9329997  99.3649992  88.6204990  89.7359997
 100.1019199  88.8135901  89.3166942  96.3399992  88.3754990  80.0929997
  96.0679992  88.6044990  79.2039997  96.3849992  89.2124990  80.5529997
  96.3088709  88.5201069  80.0336089 109.9649992  89.9964990  86.8059997
 109.0229992  90.0554990  86.9669997 110.2409992  90.9024990  86.6689997
 109.8735771  90.1270270  86.8094827 110.2649992  78.2834990  88.2229997
 109.5289992  78.8934990  88.1849997 110.9489992  78.6984990  87.6969997
 110.2565885  78.4231924  88.1466931 103.2679992  76.3694990  85.6889997
 103.1509992  75.4214990  85.6349997 102.4129992  76.7024990  85.9619997
 103.1363691  76.2845842  85.7185072 108.2169992  91.7774990  83.4309997
 108.6419992  91.0704990  82.9459997 108.5339992  92.5794990  83.0139997
 108.3180266  91.7890201  83.3082461 109.3759992  89.6784990  81.9399997
 109.1189992  88.9884990  81.3279997 109.4469992  89.2354990  82.7849997
 109.3504322  89.5241568  81.9705372 111.0619992  88.2454990  90.4169997
 111.2019992  87.6534990  89.6779997 111.2299992  89.1184990  90.0609997
 111.1038734  88.2824041  90.2676937 105.5349992  85.2074990  80.1889997
 104.8229992  85.7424990  79.8379997 106.2259992  85.2624990  79.5289997
 105.5308696  85.2882591  80.0516372 112.9039992  84.5854990  88.4829997
 112.2519992  85.2794990  88.5719997 113.3689992  84.7954990  87.6729997
 112.8775357  84.7089544  88.3857056 108.9409992  85.4164990  81.1409997
 108.2089992  85.6454990  81.7139997 109.3879992  84.7034990  81.5959997
 108.9012753  85.3513984  81.2809698 108.8379992  83.5914990  90.2089997
 108.9179992  84.3544990  90.7809997 108.2369992  83.8704990  89.5179997
 108.7677115  83.7337707  90.1939631 100.5859992  86.0474990  83.0239997
 100.2559992  85.6764990  82.2049997 101.1739992  85.3764990  83.3699997
 100.6204056  85.9061257  82.9589035 101.9529992  89.4754990  85.7049997
 101.8579992  88.8964990  84.9479997 102.6819992  89.1044990  86.2009997
 102.0386161  89.3460902  85.6685191 100.9529992  84.8154990  86.6569997
 101.5179992  84.9374990  85.8939997 101.2709992  85.4534990  87.2959997
 101.0733430  84.9184448  86.6389094 107.2619992  90.3194990  87.3909997
 107.0209992  90.9814990  88.0389997 107.0639992  89.4844990  87.8159997
 107.2022662  90.2972704  87.5371008 101.8329992  89.2154990  91.3739997
 101.5209992  89.9974990  91.8299997 101.1829992  89.0624990  90.6879997
 101.7024643  89.3018019  91.3436657  98.7529992  85.4134990  90.6029997
  98.8229992  86.0644990  91.3009997  97.8619992  85.5164990  90.2679997
  98.6421802  85.5164769  90.6532231 105.5379992  91.3154990  82.2619997
 106.0119992  91.6114990  83.0389997 104.9749992  92.0544990  82.0279997
 105.5268461  91.4558336  82.3367626 100.0719992  91.2864990  92.1379997
 100.0799992  91.1504990  91.1899997  99.1559992  91.1694990  92.3899997
  99.9492512  91.2520663  92.0423179  99.5759992  85.1164990  80.6129997
  99.2839992  85.8844990  80.1219997  98.9019992  84.4574990  80.4499997
  99.4448843  85.1324537  80.5237695  95.6689992  87.4794990  89.4279997
  95.1679992  87.4514990  88.6129997  95.6749992  86.5744990  89.7379997
  95.6011690  87.3532234  89.3582770  95.4199992  90.2604990  86.3119997
  96.3659992  90.1154990  86.2929997  95.3069992  91.0444990  86.8489997
  95.5343578  90.3466708  86.3820300 113.6169992  90.9264990  91.9939997
 113.5679992  89.9704990  91.9569997 112.7909992  91.1934990  92.3959997
 113.4985767  90.8318841  92.0433133 104.5959992  90.5004990  90.8699997
 104.6829992  91.3264990  91.3449997 103.7319992  90.1704990  91.1189997
 104.4911944  90.5689871  90.9686558 105.0099992  94.2724990  80.6759997
 104.9349992  94.1514990  79.7299997 105.0429992  95.2214990  80.7949997
 105.0041862  94.3842492  80.5624840  98.6639992  93.0614990  82.4569997
  98.8159992  92.7134990  83.3359997  97.8129992  92.7044990  82.2019997
  98.5697899  92.9656749  82.5427322 107.7809992  93.3524990  80.4279997
 106.8459992  93.4524990  80.6069997 108.0609992  92.6424990  81.0059997
 107.6909270  93.2702300  80.5305984 110.7689992  82.4194990  92.4739997
 110.3619992  82.8994990  91.7539997 110.8099992  81.5134990  92.1669997
 110.7187178  82.3628609  92.3337441  97.9179992  88.8034990  90.4709997
  98.1339992  88.4414990  91.3309997  97.0629992  88.4284990  90.2609997
  97.8319349  88.7032914  90.5602134 100.5369992  77.2734990  86.4669997
  99.6749992  77.1864990  86.0589997 100.5149992  78.1294990  86.8939997
 100.4160953  77.3773558  86.4689262 105.1999992  76.9954990  89.8409997
 105.6199992  76.5804990  90.5939997 104.2669992  76.8164990  89.9579997
 105.1313736  76.9144921  89.9598950 108.5259992  80.7504990  90.6949997
 108.0119992  80.6254990  91.4919997 108.3709992  81.6634990  90.4499997
 108.4346643  80.8567068  90.7710624 104.8619992  79.4874990  77.1259997
 104.6079992  79.5064990  78.0489997 104.6049992  78.6164990  76.8249997
 104.7925133  79.3723121  77.2115065 100.6279992  82.2384990  87.5619997
  99.9859992  82.1984990  88.2709997 100.6649992  83.1654990  87.3239997
 100.5451659  82.3582540  87.6268463 100.6249992  82.4594990  82.4739997
  99.7319992  82.1194990  82.4149997 101.0759992  82.0824990  81.7179997
 100.5637185  82.3620220  82.3637698 106.1609992  82.8754990  81.2909997
 105.7519992  83.6904990  80.9989997 106.8809992  82.7354990  80.6759997
 106.2023946  82.9679963  81.1679616 105.2629992  83.0514990  92.7789997
 104.6999992  82.3464990  93.0989997 106.0889992  82.9304990  93.2459997
 105.2976423  82.9385614  92.8860168 107.1649992  82.3214990  84.1049997
 106.9699992  82.9274990  83.3899997 107.3469992  81.4884990  83.6699997
 107.1629272  82.2917955  83.9484075  98.3779992  82.5594990  89.4289997
  98.3399992  82.9594990  90.2969997  97.8869992  81.7424990  89.5189997
  98.3064246  82.5038842  89.5601171  94.9859992  79.6754990  83.2789997
  95.6169992  79.6464990  83.9989997  95.4359992  79.2504990  82.5489997
  95.1330905  79.6140839  83.2787479 106.4289992  83.9594990  88.7759997
 106.7529992  83.3284990  88.1329997 105.9889992  83.4254990  89.4369997
 106.4138707  83.8008261  88.7773195 103.2069992  79.8874990  83.5599997
 102.2959992  79.9444990  83.8489997 103.7119992  79.8274990  84.3709997
 103.1506873  79.8871838  83.7091190  98.0349992  81.5164990  82.3869997
  97.1459992  81.6154990  82.0469997  98.3309992  80.6744990  82.0409997
  97.9534001  81.4162473  82.2937318 101.6879992  81.5164990  80.0429997
 102.6199992  81.6454990  80.2209997 101.4729992  82.1854990  79.3939997
 101.7864245  81.6246452  79.9795602 107.6119992  79.1224990  86.8239997
 106.9349992  79.2534990  87.4879997 107.1259992  78.9674990  86.0139997
 107.4537265  79.1194665  86.8053380 110.8989992  94.7934990  93.1009997
 111.0989992  95.2174990  92.2659997 111.5549992  95.1374990  93.7079997
 111.0149916  94.8979784  93.0687890  98.4969992  87.2674990  92.7089997
  99.2289992  87.5224990  93.2699997  97.7169992  87.4724990  93.2239997
  98.4917684  87.3301457  92.8554774 104.5269992  82.6744990  85.4469997
 105.0909992  82.1284990  84.8999997 104.3789992  82.1534990  86.2359997
 104.5843037  82.5291798  85.4787212  99.5289992  78.8114990  81.8649997
  99.2109992  77.9084990  81.8299997 100.3099992  78.8134990  81.3129997
  99.5911560  78.6881148  81.7854975 103.1529992  81.0634990  87.8609997
 102.3179992  81.5174990  87.9709997 103.6769992  81.3394990  88.6129997
 103.1095070  81.1629677  87.9777134 103.6969992  87.2764990  79.5459997
 102.9519992  86.7684990  79.2229997 103.5629992  87.3254990  80.4919997
 103.5768633  87.2135714  79.6297563 110.8469992  86.4094990  88.3319997
 111.4889992  86.8654990  87.7889997 110.0169992  86.5224990  87.8699997
 110.8227352  86.4873223  88.1950234 107.5949992  80.0904990  77.7449997
 106.6559992  80.2014990  77.5939997 107.8919992  80.9464990  78.0509997
 107.5066371  80.2215327  77.7657362 105.2169992  87.4604990  90.7829997
 104.8709992  87.0784990  91.5889997 105.0169992  88.3934990  90.8539997
 105.1425399  87.5343489  90.9030401 108.3129992  81.9574990  79.4059997
 109.2049992  81.8194990  79.7249997 108.3699992  82.7484990  78.8689997
 108.4427380  82.0454777  79.3770981  98.8219992  86.5714990  85.3149997
  99.5669992  86.5684990  84.7139997  98.8999992  85.7474990  85.7969997
  98.9344158  86.4597928  85.2979136 105.8229992  88.7344990  78.5709997
 105.5279992  89.5614990  78.9529997 105.1199992  88.1154990  78.7669997
 105.6875855  88.7639458  78.6497634  95.8299992  85.0314990  90.6299997
  96.0529992  84.6134990  91.4619997  95.2279992  84.4194990  90.2079997
  95.7790802  84.8915216  90.6867561 102.8469992  84.5484990  92.8429997
 102.5509992  84.3834990  91.9479997 103.7779992  84.3284990  92.8329997
 102.9323909  84.4961274  92.7190110 107.4669992  89.9224990  90.7329997
 106.5659992  90.1054990  90.4649997 107.5009992  90.1814990  91.6539997
 107.3483021  89.9825505  90.8208206 113.1979992  82.1664990  79.0999997
 112.6439992  81.7704990  78.4279997 113.2989992  83.0774990  78.8229997
 113.1357084  82.2353565  78.9704381 113.1609992  87.9674990  91.9369997
 112.3099992  88.2054990  91.5699997 113.7519992  87.9504990  91.1839997
 113.1242468  87.9978251  91.7848902 111.4929992  90.9524990  79.5649997
 111.1209992  90.1274990  79.8749997 111.7709992  90.7694990  78.6679997
 111.4795997  90.8146160  79.4861551 108.6539992  85.7604990  86.5869997
 107.7259992  85.5294990  86.5599997 109.1049992  84.9834990  86.2569997
 108.5878165  85.6237785  86.5386772 101.1969992  90.0894990  82.7199997
 101.7239992  90.8624990  82.5189997 100.3169992  90.3134990  82.4179997
 101.1501793  90.2256652  82.6516304 102.6239992  87.7524990  82.2959997
 102.3829992  88.6774990  82.3379997 101.8839992  87.2934990  82.6919997
 102.4908934  87.8170881  82.3553191 103.1389992  91.9014990  88.6109997
 103.5019992  92.7554990  88.3779997 103.6709992  91.6094990  89.3519997
 103.2605141  91.9788907  88.6792079 101.3069992  92.7734990  81.8409997
 100.3579992  92.8794990  81.8929997 101.6589992  93.5944990  82.1859997
 101.2246214  92.8989361  81.8947317 106.6829992  88.0004990  88.3119997
 106.2569992  87.7724990  89.1379997 107.2639992  87.2614990  88.1289997
 106.7031587  87.8694084  88.4004111 108.8859992  88.9294990  77.3859997
 109.2389992  88.5494990  78.1899997 107.9369992  88.8354990  77.4719997
 108.8060985  88.8647330  77.5077738 109.3419992  92.5524990  90.7809997
 108.7399992  91.9964990  90.2859997 109.6229992  93.2194990  90.1549997
 109.2975757  92.5665755  90.6285657  97.4639992  79.7854990  90.1879997
  96.5709992  80.1234990  90.1209997  97.3649992  78.9294990  90.6059997
  97.3285241  79.7160941  90.2352982 109.7519992  87.6014990  79.6119997
 109.4749992  86.8734990  80.1679997 110.6789992  87.7204990  79.8179997
 109.8394181  87.5180068  79.7158972  97.1149992  91.5894990  88.6229997
  97.3319992  90.6574990  88.5919997  97.3619992  91.8644990  89.5069997
  97.1780543  91.4990877  88.7381412  98.3669992  86.8634990  78.7989997
  97.6809992  87.2164990  79.3659997  98.8899992  87.6264990  78.5529997
  98.3439033  87.0148757  78.8432644 106.1979992  79.5264990  89.0779997
 106.8969992  79.6004990  89.7279997 105.8179992  78.6614990  89.2329997
 106.2422095  79.4197402  89.1877982 106.9829992  79.1784990  80.1749997
 107.2029992  79.6494990  79.3719997 107.5409992  79.5724990  80.8459997
 107.0885851  79.2963272  80.1556134 104.6519992  91.3084990  79.0379997
 103.8349992  91.8054990  79.0909997 105.1809992  91.7844990  78.3979997
 104.6117898  91.4408123  78.9587274 104.1829992  80.9064990  81.0099997
 104.9949992  81.4104990  81.0559997 103.9379992  80.7614990  81.9239997
 104.2611091  80.9559366  81.1398552 104.7189992  81.8924990  90.1949997
 104.8379992  82.4664990  90.9519997 105.3739992  81.2044990  90.3099997
 104.8238684  81.8780205  90.3141656 105.0669992  77.9874990  81.9479997
 104.7199992  78.6044990  82.5929997 105.7249992  78.4884990  81.4669997
 105.1085290  78.1396384  81.9711635 101.9899992  92.3524990  79.0199997
 102.1509992  93.1524990  78.5189997 101.7929992  92.6594990  79.9049997
 101.9853919  92.5034140  79.0710988 100.7239992  79.0504990  78.6359997
 100.6409992  79.9384990  78.9819997 101.6139992  78.7854990  78.8669997
 100.8329751  79.1362482  78.7146066 110.9229992  79.7994990  91.0299997
 110.0069992  80.0614990  90.9419997 111.2589992  79.7964990  90.1329997
 110.8429789  79.8349637  90.8967829 109.5249992  83.5494990  85.1259997
 108.7279992  83.1344990  84.7969997 109.9699992  82.8594990  85.6169997
 109.4760317  83.3993197  85.1473556  98.9829992  89.4774990  77.6959997
  99.5749992  90.1774990  77.9719997  99.4419992  89.0444990  76.9769997
  99.1261172  89.5147371  77.6365163  97.2989992  82.1424990  76.8119997
  97.2539992  83.0814990  76.9909997  96.4109992  81.9064990  76.5419997
  97.1728472  82.2391946  76.8000282 110.6119992  92.8054990  86.7479997
 110.4559992  93.4844990  86.0909997 111.5439992  92.8774990  86.9509997
 110.7167328  92.9081586  86.6855529  98.1069992  76.9234990  85.4849997
  97.8779992  76.9824990  84.5579997  97.6639992  76.1324990  85.7919997
  98.0157387  76.8246412  85.3995223  97.0369992  90.8644990  81.6459997
  96.2049992  91.3364990  81.6729997  97.5829992  91.3744990  81.0469997
  96.9968710  90.9980317  81.5687570  96.3259992  93.4764990  92.9759997
  96.8659992  93.2604990  93.7349997  95.8439992  92.6714990  92.7859997
  96.3349101  93.3380216  93.0544364 100.9229992  92.3964990  94.5959997
 101.6909992  91.9374990  94.9369997 100.9019992  92.1704990  93.6659997
 101.0252135  92.3031680  94.5169473 105.0149992  91.9044990  75.9709997
 104.3709992  91.2734990  76.2929997 105.7769992  91.3734990  75.7389997
 105.0298260  91.7463035  75.9837298 107.4999992  90.7764990  93.3249997
 107.1489992  89.9194990  93.5679997 108.2259992  90.9184990  93.9319997
 107.5501590  90.6785189  93.4402889  96.2329992  87.2874990  93.9299997
  96.3769992  86.3854990  93.6439997  95.4599992  87.5734990  93.4419997
  96.1482854  87.2026876  93.8249363 102.8879992  87.2564990  93.3629997
 102.5599992  87.5274990  92.5049997 103.0399992  86.3154990  93.2749997
 102.8636970  87.1663694  93.2337953 108.6229992  87.1724990  90.7459997
 109.3679992  87.7614990  90.6259997 107.8649992  87.7544990  90.8089997
 108.6225185  87.3317000  90.7380940  97.0649992  84.4874990  93.3499997
  97.4729992  83.6304990  93.2289997  96.8049992  84.5014990  94.2709997
  97.0857082  84.3720596  93.4579469 101.0119992  83.4964990  90.7239997
 100.3939992  84.1704990  91.0049997 101.3559992  83.8174990  89.8909997
 100.9738181  83.6323233  90.6498266 106.0319992  85.9674990  94.0019997
 106.9849992  86.0514990  93.9739997 105.8719992  85.2554990  94.6209997
 106.1408161  85.8827198  94.0818689 112.1839992  86.2004990  76.0759997
 111.9109992  85.7764990  75.2629997 112.2239992  87.1324990  75.8589997
 112.1520201  86.2683523  75.9353548 101.3519992  80.8514990  91.8069997
 101.5019992  80.1224990  91.2039997 101.3539992  81.6284990  91.2479997
 101.3727664  80.8568971  91.6490525 101.7639992  79.2204990  89.2989997
 102.2999992  79.6724990  88.6469997 100.9119992  79.1124990  88.8769997
 101.7221648  79.2677883  89.1526395 103.3459992  84.6604990  89.5389997
 104.0969992  84.5044990  88.9659997 103.0069992  85.5124990  89.2629997
 103.4029052  84.7542745  89.4233469 107.7619992  82.4754990  94.5669997
 107.9539992  81.5444990  94.4559997 108.6189992  82.9004990  94.5569997
 107.9042320  82.4054743  94.5504433 109.0779992  85.2644990  92.6449997
 108.7969992  85.9734990  92.0669997 110.0209992  85.1914990  92.4939997
 109.1669272  85.3516704  92.5454976  99.8299992  82.0494990  93.7179997
  99.0629992  81.5164990  93.5079997 100.5089992  81.7394990  93.1189997
  99.8168292  81.9346360  93.6082693 102.5699992  76.6774990  89.7309997
 102.4719992  77.6234990  89.6249997 101.8269992  76.3044990  89.2549997
 102.4562363  76.7565987  89.6522029 103.8339992  80.9984990  93.2939997
 103.5979992  80.7794990  94.1959997 103.0509992  80.7914990  92.7849997
 103.6958444  80.9405688  93.3484518 106.5499992  80.1264990  92.3699997
 105.6019992  80.1584990  92.5019997 106.8619992  79.5004990  93.0239997
 106.4625293  80.0462934  92.4764130 108.1839992  78.7604990  94.3749997
 108.0869992  77.8084990  94.3689997 107.8619992  79.0284990  95.2359997
 108.1272229  78.6664706  94.4905108  98.0109992  79.9694990  93.4229997
  98.2219992  79.2634990  92.8119997  97.8989992  79.5324990  94.2669997
  98.0247674  79.8136376  93.4534199 102.7919992  75.9714990  92.4019997
 103.5029992  75.3314990  92.3879997 102.6909992  76.2374990  91.4879997
 102.8756732  75.9198451  92.2765475 103.1449992  77.6534990  94.4559997
 103.0139992  77.1784990  93.6349997 102.5459992  78.3984990  94.3999997
 103.0461524  77.6891968  94.3361553  96.2599992  89.1734990  77.1149997
  97.1739992  89.2524990  77.3879997  96.2669992  88.4864990  76.4479997
  96.3860769  89.0914735  77.0622366  94.9089992  94.5664990  82.1919997
  94.2619992  94.1044990  81.6589997  95.2639992  93.8944990  82.7749997
  94.8683861  94.4124707  82.1977939  95.7789992  92.6464990  83.9969997
  95.4449992  91.7664990  84.1689997  96.0009992  92.9924990  84.8609997
  95.7632677  92.5727366  84.1374252 113.3279992  93.4564990  86.9769997
 113.3059992  93.6414990  87.9159997 114.0179992  94.0244990  86.6359997
 113.4183439  93.5586898  87.0594774 112.8909992  93.0234990  89.8989997
 112.4039992  92.2874990  89.5279997 113.4399992  92.6294990  90.5769997
 112.8986101  92.8696267  89.9399034 111.3419992  88.8134990  94.5369997
 110.4759992  88.7084990  94.9309997 111.7179992  89.5714990  94.9839997
 111.2743768  88.9016151  94.6513258 112.6429992  87.0694990  80.0509997
 113.4929992  87.4904990  80.1789997 112.6479992  86.3294990  80.6589997
 112.7599745  87.0271347  80.1506479 113.0369992  85.1234990  81.8749997
 112.3109992  84.6434990  82.2729997 113.6179992  85.3284990  82.6069997
 113.0162504  85.0855592  82.0284199 112.7959992  87.9084990  86.8229997
 113.6299992  87.5304990  86.5419997 112.9079992  88.8514990  86.7039997
 112.9251917  87.9842954  86.7684844 111.2819992  90.7864990  89.1299997
 110.6349992  91.1114990  89.7549997 110.7649992  90.3454990  88.4549997
 111.1234068  90.7714726  89.1244918 113.3049992  85.0244990  78.2659997
 112.7839992  85.3804990  77.5469997 113.2719992  85.6994990  78.9439997
 113.2291525  85.1645273  78.2591408 110.8239992  83.6444990  82.4379997
 110.6739992  82.6994990  82.4179997 110.4699992  83.9254990  83.2819997
 110.7556351  83.5531656  82.5493202  95.8589992  85.7224990  86.4479997
  96.0429992  85.6404990  85.5129997  96.7079992  85.5984990  86.8719997
  95.9990259  85.6944915  86.3771771 111.6799992  85.6144990  92.0769997
 112.2629992  84.8794990  92.2679997 112.2439992  86.3864990  92.1229997
 111.8360326  85.6182746  92.1093579 113.1769992  83.5174990  92.7609997
 112.3129992  83.1384990  92.5959997 113.7809992  82.7784990  92.6869997
 113.1404912  83.3657937  92.7284360 110.5339992  81.2264990  80.8999997
 110.8139992  80.3194990  81.0249997 111.2929992  81.6604990  80.5109997
 110.6749471  81.1610654  80.8645052 111.1459992  81.8084990  86.3359997
 112.0789992  82.0204990  86.3019997 110.9109992  81.9094990  87.2589997
 111.2418357  81.8511303  86.4560232 111.1749992  82.5454990  89.1119997
 110.3319992  82.8134990  89.4779997 111.6179992  83.3674990  88.9009997
 111.1194358  82.6933294  89.1335999  95.4559992  80.9924990  92.5889997
  96.3759992  80.8704990  92.8249997  95.0069992  80.2424990  92.9779997
  95.5211561  80.8743720  92.6739015 113.4579992  76.5254990  94.4659997
 113.8079992  75.8714990  93.8599997 113.6049992  77.3624990  94.0259997
 113.5257192  76.5492545  94.3236712 111.1479992  78.4894990  80.9489997
 111.3299992  78.0404990  81.7739997 110.5479992  77.9054990  80.4849997
 111.0918187  78.3490563  80.9992721  96.6779992  79.3054990  85.4799997
  97.1229992  78.5134990  85.7819997  97.1439992  80.0214990  85.9109997
  96.8019059  79.2939485  85.5796061  94.9819992  82.3044990  86.5489997
  95.4739992  82.0834990  85.7589997  95.3439992  83.1444990  86.8299997
  95.0983429  82.3878220  86.4787918 112.9779992  78.6344990  92.8149997
 112.0609992  78.9054990  92.7789997 113.1009992  78.0994990  92.0309997
 112.8690828  78.5992711  92.7040767 113.0139992  78.5574990  77.4769997
 113.4269992  77.8364990  77.0009997 113.6959992  79.2264990  77.5349997
 113.1625712  78.5494304  77.4198247  95.2949992  78.5624990  80.6039997
  94.3699992  78.7704990  80.4739997  95.7489992  79.0464990  79.9139997
  95.2297401  78.6563895  80.4929433 110.0659992  93.5464990  82.5489997
 110.7179992  93.1984990  81.9409997 110.5769992  94.0344990  83.1949997
 110.2242872  93.5648248  82.5530964  95.2589992  77.3004990  88.9479997
  94.5939992  77.0544990  89.5909997  94.8159992  77.9224990  88.3709997
  95.1081168  77.3509225  88.9579830  97.4509992  90.4754990  93.0919997
  96.6299992  90.6504990  92.6319997  97.1989992  90.4024990  94.0129997
  97.3046173  90.4895806  93.1534954 100.4049992  91.4494990  89.3509997
  99.9799992  92.2594990  89.0679997 101.3089992  91.5354990  89.0489997
 100.4691002  91.5718728  89.2714798 104.7159992  92.8484990  92.3099997
 104.9009992  92.5154990  93.1879997 105.5629992  93.1584990  91.9879997
 104.8557291  92.8448214  92.3866140 107.0609992  94.1344990  91.5539997
 107.7379992  93.5014990  91.3139997 107.3829992  94.5354990  92.3619997
 107.1971280  94.1020638  91.6303190 111.9789992  76.7244990  90.6339997
 111.1659992  77.0494990  90.2459997 112.2119992  75.9634990  90.1009997
 111.8992566  76.6661570  90.5089196  97.8069992  94.7064990  89.3979997
  97.0859992  95.1464990  88.9469997  97.4409992  94.4554990  90.2469997
  97.6589785  94.7327691  89.4509849 100.2739992  94.3064990  88.4279997
  99.4089992  94.3784990  88.8319997 100.2189992  94.8534990  87.6439997
 100.1482066  94.3902678  88.3773371 104.9849992  94.1944990  87.6039997
 104.5279992  94.7234990  86.9499997 105.1469992  94.7974990  88.3289997
 104.9443919  94.3483990  87.6125740 107.3119992  93.0724990  88.5489997
 106.4079992  93.2374990  88.2829997 107.7409992  93.9254990  88.4829997
 107.2462017  93.2104184  88.5036495 109.9159992  94.6424990  88.8439997
 109.7349992  95.5584990  88.6329997 110.0929992  94.2314990  87.9969997
 109.9151377  94.7123365  88.7007178  97.2219992  93.3294990  86.3089997
  97.2029992  92.9034990  87.1659997  98.0259992  93.0104990  85.8999997
  97.3281393  93.2280297  86.3710155  99.3629992  92.0394990  84.9639997
  99.1439992  91.1224990  85.1329997 100.1869992  92.1794990  85.4299997
  99.4444637  91.9329586  85.0501414 101.8999992  92.5094990  85.8119997
 102.1129992  91.6214990  85.5249997 101.9649992  92.4744990  86.7669997
 101.9379075  92.3833318  85.9017355 105.4089992  78.1734990  84.9569997
 104.7339992  77.5434990  85.2119997 105.9729992  77.6894990  84.3539997
 105.3929558  78.0219283  84.9103451 110.5509992  76.2804990  85.0689997
 111.1549992  76.8284990  84.5679997 109.6819992  76.5994990  84.8289997
 110.5161126  76.3987070  84.9679180 112.2779992  77.4194990  83.4029997
 112.8899992  76.9054990  82.8759997 112.6609992  78.2964990  83.4259997
 112.4133867  77.4677613  83.3340888  97.7349992  76.8074990  82.7789997
  96.9579992  76.5724990  82.2709997  98.2659992  76.0104990  82.7879997
  97.7004443  76.6676721  82.7107200 102.3149992  76.7334990  82.5919997
 103.1889992  77.1224990  82.5619997 102.1789992  76.5184990  83.5149997
 102.4163125  76.7577120  82.7126523 107.8709992  76.7634990  84.2409997
 107.9479992  76.8594990  83.2919997 107.5959992  75.8564990  84.3699997
 107.8443407  76.6539188  84.1283532 109.2249992  76.7894990  79.9339997
 108.5219992  77.4044990  79.7239997 108.7799992  75.9524990  80.0649997
 109.0686550  76.7604679  79.9229819  96.4729992  92.5534990  79.4799997
  95.7879992  92.5154990  78.8119997  96.4759992  93.4654990  79.7679997
  96.3797358  92.6716744  79.4276145 103.4589992  78.8144990  79.4819997
 103.6369992  78.1674990  80.1649997 103.4049992  79.6484990  79.9489997
 103.4760678  78.8386615  79.6386283 105.3369992  93.7624990  77.8769997
 106.2029992  94.1294990  77.6989997 105.0899992  93.3234990  77.0639997
 105.4222041  93.7533648  77.7425958 112.0459992  93.3254990  80.5569997
 111.8519992  92.5774990  79.9919997 112.0069992  94.0834990  79.9729997
 112.0141907  93.3255770  80.4008077  97.6929992  77.3214990  92.2959997
  97.3269992  76.5554990  92.7389997  98.6059992  77.3504990  92.5829997
  97.7663225  77.2206917  92.3953441  99.6659992  76.6714990  93.8319997
 100.5649992  76.3974990  93.6469997  99.2799992  75.9294990  94.2959997
  99.7367237  76.5336520  93.8694693 108.0869992  76.0044990  94.0139997
 108.1639992  75.5784990  94.8679997 108.9809992  76.0174990  93.6719997
 108.2183315  75.9480320  94.0845052 111.2639992  92.0764990  92.7069997
 110.4819992  91.8904990  92.1869997 111.1919992  93.0064990  92.9239997
 111.1472975  92.1766973  92.6651822 125.6699992  85.9634990  82.7369997
 125.7589992  86.9074990  82.6049997 125.0309992  85.6884990  82.0789997
 125.5958319  86.0554984  82.6300276 124.6029992  85.2184990  86.1559997
 124.5639992  84.5724990  86.8609997 124.2799992  84.7514990  85.3849997
 124.5540199  85.0670089  86.1482865 116.9709992  84.8324990  87.7489997
 117.0119992  84.2074990  88.4729997 117.6739992  85.4564990  87.9309997
 117.0716054  84.8313262  87.8726311 128.3089992  88.1574990  84.4579997
 127.8679992  87.4374990  84.9079997 128.2959992  88.8784990  85.0879997
 128.2468398  88.1563187  84.6047734 117.8949992  89.2824990  86.2839997
 117.5249992  88.4804990  85.9149997 118.8359992  89.1144990  86.3309997
 117.9715630  89.1498680  86.2397873 114.5049992  82.9424990  81.6769997
 114.0569992  83.7884990  81.6589997 113.9439992  82.3634990  81.1619997
 114.3678546  82.9799004  81.6048874 115.2149992  85.1044990  83.8029997
 115.4289992  84.3344990  84.3299997 115.9529992  85.1944990  83.1999997
 115.3440073  85.0113546  83.7935786 125.4199992  93.2614990  84.6699997
 126.0399992  92.5854990  84.3969997 125.2119992  93.0434990  85.5779997
 125.4767360  93.1394792  84.7554387 122.9919992  87.6504990  86.5619997
 123.2959992  86.9644990  85.9679997 123.7139992  87.7694990  87.1799997
 123.1311152  87.5727201  86.5642106 131.6549992  79.2524990  87.4229997
 131.7039992  79.8624990  88.1589997 132.0809992  79.7134990  86.6999997
 131.7192851  79.3983266  87.4260532 126.1329992  82.0444990  86.8899997
 126.2749992  81.0984990  86.9099997 126.0269992  82.2514990  85.9609997
 126.1381158  81.9429722  86.7672241 119.2879992  80.1464990  84.1619997
 119.3309992  81.0064990  83.7439997 118.8299992  79.5934990  83.5289997
 119.2319613  80.1895689  84.0191276 127.0099992  80.2774990  82.5629997
 127.6559992  79.9484990  83.1879997 127.5199992  80.7944990  81.9399997
 127.1674392  80.3023710  82.5643248 115.9079992  82.5434990  84.9239997
 116.5619992  81.9934990  85.3559997 115.9319992  82.2694990  84.0079997
 116.0007022  82.4312005  84.8591698 121.0639992  84.0934990  84.1399997
 121.6799992  83.5664990  84.6489997 120.4779992  83.4534990  83.7359997
 121.0690652  83.9348919  84.1550277 132.0469992  80.7304990  89.6589997
 131.3579992  81.3884990  89.5639997 132.0619992  80.5324990  90.5959997
 131.9547756  80.7937614  89.7725795 118.0979992  79.0644990  88.2359997
 117.8789992  79.5944990  87.4699997 117.4299992  79.2904990  88.8839997
 117.9777271  79.1676508  88.2186206 125.4669992  88.5644990  81.7799997
 125.1709992  88.2414990  80.9289997 125.1429992  89.4644990  81.8219997
 125.3826501  88.6419058  81.6690893 120.6669992  86.7394990  88.5239997
 119.9269992  87.3384990  88.6269997 121.3809992  87.2934990  88.2079997
 120.6623288  86.8962368  88.4953787 128.7739992  79.5684990  84.5439997
 128.5589992  78.8024990  85.0759997 129.4299992  80.0404990  85.0569997
 128.8332451  79.5274472  84.6861699 117.6919992  80.9564990  86.1889997
 118.3049992  81.5894990  86.5619997 118.2039992  80.4844990  85.5319997
 117.8451680  80.9794006  86.1512830 119.0739992  88.7044990  89.3109997
 119.0689992  89.5834990  88.9329997 118.2209992  88.6204990  89.7359997
 118.9579199  88.8135901  89.3166942 128.8209992  89.9964990  86.8059997
 127.8789992  90.0554990  86.9669997 129.0969992  90.9024990  86.6689997
 128.7295771  90.1270270  86.8094827 129.1209992  78.2834990  88.2229997
 128.3849992  78.8934990  88.1849997 129.8049992  78.6984990  87.6969997
 129.1125885  78.4231924  88.1466931 122.1239992  76.3694990  85.6889997
 122.0069992  75.4214990  85.6349997 121.2689992  76.7024990  85.9619997
 121.9923691  76.2845842  85.7185072 127.0729992  91.7774990  83.4309997
 127.4979992  91.0704990  82.9459997 127.3899992  92.5794990  83.0139997
 127.1740266  91.7890201  83.3082461 128.2319992  89.6784990  81.9399997
 127.9749992  88.9884990  81.3279997 128.3029992  89.2354990  82.7849997
 128.2064322  89.5241568  81.9705372 129.9179992  88.2454990  90.4169997
 130.0579992  87.6534990  89.6779997 130.0859992  89.1184990  90.0609997
 129.9598734  88.2824041  90.2676937 124.3909992  85.2074990  80.1889997
 123.6789992  85.7424990  79.8379997 125.0819992  85.2624990  79.5289997
 124.3868696  85.2882591  80.0516372 131.7599992  84.5854990  88.4829997
 131.1079992  85.2794990  88.5719997 132.2249992  84.7954990  87.6729997
 131.7335357  84.7089544  88.3857056 127.7969992  85.4164990  81.1409997
 127.0649992  85.6454990  81.7139997 128.2439992  84.7034990  81.5959997
 127.7572753  85.3513984  81.2809698 127.6939992  83.5914990  90.2089997
 127.7739992  84.3544990  90.7809997 127.0929992  83.8704990  89.5179997
 127.6237115  83.7337707  90.1939631 119.4419992  86.0474990  83.0239997
 119.1119992  85.6764990  82.2049997 120.0299992  85.3764990  83.3699997
 119.4764056  85.9061257  82.9589035 120.8089992  89.4754990  85.7049997
 120.7139992  88.8964990  84.9479997 121.5379992  89.1044990  86.2009997
 120.8946161  89.3460902  85.6685191 119.8089992  84.8154990  86.6569997
 120.3739992  84.9374990  85.8939997 120.1269992  85.4534990  87.2959997
 119.9293430  84.9184448  86.6389094 126.1179992  90.3194990  87.3909997
 125.8769992  90.9814990  88.0389997 125.9199992  89.4844990  87.8159997
 126.0582662  90.2972704  87.5371008 120.6889992  89.2154990  91.3739997
 120.3769992  89.9974990  91.8299997 120.0389992  89.0624990  90.6879997
 120.5584643  89.3018019  91.3436657 126.6679992  84.5794990  78.8259997
 127.2469992  84.7294990  79.5729997 127.0819992  85.0494990  78.1029997
 126.8033122  84.6636288  78.8305024 117.6089992  85.4134990  90.6029997
 117.6789992  86.0644990  91.3009997 116.7179992  85.5164990  90.2679997
 117.4981802  85.5164769  90.6532231 124.3939992  91.3154990  82.2619997
 124.8679992  91.6114990  83.0389997 123.8309992  92.0544990  82.0279997
 124.3828460  91.4558336  82.3367626 118.9279992  91.2864990  92.1379997
 118.9359992  91.1504990  91.1899997 118.0119992  91.1694990  92.3899997
 118.8052512  91.2520663  92.0423179 130.3659992  76.3294990  78.6389997
 129.4659992  76.4674990  78.9339997 130.6179992  77.1604990  78.2369997
 130.2767355  76.4608200  78.6250539 118.4319992  85.1164990  80.6129997
 118.1399992  85.8844990  80.1219997 117.7579992  84.4574990  80.4499997
 118.3008843  85.1324537  80.5237695 131.5559992  90.6954990  77.0159997
 131.6289992  91.6344990  77.1859997 132.4609992  90.3904990  76.9589997
 131.6884168  90.7828531  77.0315736 114.5249992  87.4794990  89.4279997
 114.0239992  87.4514990  88.6129997 114.5309992  86.5744990  89.7379997
 114.4571690  87.3532234  89.3582770 114.2759992  90.2604990  86.3119997
 115.2219992  90.1154990  86.2929997 114.1629992  91.0444990  86.8489997
 114.3903578  90.3466708  86.3820300 132.4729992  90.9264990  91.9939997
 132.4239992  89.9704990  91.9569997 131.6469992  91.1934990  92.3959997
 132.3545767  90.8318841  92.0433133 123.4519992  90.5004990  90.8699997
 123.5389992  91.3264990  91.3449997 122.5879992  90.1704990  91.1189997
 123.3471944  90.5689871  90.9686558 123.8659992  94.2724990  80.6759997
 123.7909992  94.1514990  79.7299997 123.8989992  95.2214990  80.7949997
 123.8601862  94.3842492  80.5624840 117.5199992  93.0614990  82.4569997
 117.6719992  92.7134990  83.3359997 116.6689992  92.7044990  82.2019997
 117.4257899  92.9656749  82.5427322 126.6369992  93.3524990  80.4279997
 125.7019992  93.4524990  80.6069997 126.9169992  92.6424990  81.0059997
 126.5469270  93.2702300  80.5305984 129.6249992  82.4194990  92.4739997
 129.2179992  82.8994990  91.7539997 129.6659992  81.5134990  92.1669997
 129.5747178  82.3628609  92.3337441 116.7739992  88.8034990  90.4709997
 116.9899992  88.4414990  91.3309997 115.9189992  88.4284990  90.2609997
 116.6879349  88.7032914  90.5602134 119.3929992  77.2734990  86.4669997
 118.5309992  77.1864990  86.0589997 119.3709992  78.1294990  86.8939997
 119.2720953  77.3773558  86.4689262 124.0559992  76.9954990  89.8409997
 124.4759992  76.5804990  90.5939997 123.1229992  76.8164990  89.9579997
 123.9873736  76.9144921  89.9598950 127.3819992  80.7504990  90.6949997
 126.8679992  80.6254990  91.4919997 127.2269992  81.6634990  90.4499997
 127.2906643  80.8567068  90.7710624 123.7179992  79.4874990  77.1259997
 123.4639992  79.5064990  78.0489997 123.4609992  78.6164990  76.8249997
 123.6485133  79.3723121  77.2115065 119.4839992  82.2384990  87.5619997
 118.8419992  82.1984990  88.2709997 119.5209992  83.1654990  87.3239997
 119.4011659  82.3582540  87.6268463 119.4809992  82.4594990  82.4739997
 118.5879992  82.1194990  82.4149997 119.9319992  82.0824990  81.7179997
 119.4197185  82.3620220  82.3637698 125.0169992  82.8754990  81.2909997
 124.6079992  83.6904990  80.9989997 125.7369992  82.7354990  80.6759997
 125.0583946  82.9679963  81.1679616 124.1189992  83.0514990  92.7789997
 123.5559992  82.3464990  93.0989997 124.9449992  82.9304990  93.2459997
 124.1536423  82.9385614  92.8860168 126.0209992  82.3214990  84.1049997
 125.8259992  82.9274990  83.3899997 126.2029992  81.4884990  83.6699997
 126.0189272  82.2917955  83.9484075 117.2339992  82.5594990  89.4289997
 117.1959992  82.9594990  90.2969997 116.7429992  81.7424990  89.5189997
 117.1624246  82.5038842  89.5601171 113.8419992  79.6754990  83.2789997
 114.4729992  79.6464990  83.9989997 114.2919992  79.2504990  82.5489997
 113.9890905  79.6140839  83.2787479 115.1159992  80.4214990  78.7029997
 115.5909992  81.0124990  78.1179997 114.3989992  80.9514990  79.0499997
 115.0840406  80.5741011  78.6698495 125.2849992  83.9594990  88.7759997
 125.6089992  83.3284990  88.1329997 124.8449992  83.4254990  89.4369997
 125.2698707  83.8008261  88.7773195 122.0629992  79.8874990  83.5599997
 121.1519992  79.9444990  83.8489997 122.5679992  79.8274990  84.3709997
 122.0066873  79.8871838  83.7091190 116.8909992  81.5164990  82.3869997
 116.0019992  81.6154990  82.0469997 117.1869992  80.6744990  82.0409997
 116.8094001  81.4162473  82.2937318 120.5439992  81.5164990  80.0429997
 121.4759992  81.6454990  80.2209997 120.3289992  82.1854990  79.3939997
 120.6424245  81.6246452  79.9795602 126.4679992  79.1224990  86.8239997
 125.7909992  79.2534990  87.4879997 125.9819992  78.9674990  86.0139997
 126.3097265  79.1194665  86.8053380 129.7549992  94.7934990  93.1009997
 129.9549992  95.2174990  92.2659997 130.4109992  95.1374990  93.7079997
 129.8709916  94.8979784  93.0687890 117.3529992  87.2674990  92.7089997
 118.0849992  87.5224990  93.2699997 116.5729992  87.4724990  93.2239997
 117.3477684  87.3301457  92.8554774 123.3829992  82.6744990  85.4469997
 123.9469992  82.1284990  84.8999997 123.2349992  82.1534990  86.2359997
 123.4403037  82.5291798  85.4787212 118.3849992  78.8114990  81.8649997
 118.0669992  77.9084990  81.8299997 119.1659992  78.8134990  81.3129997
 118.4471560  78.6881148  81.7854975 122.0089992  81.0634990  87.8609997
 121.1739992  81.5174990  87.9709997 122.5329992  81.3394990  88.6129997
 121.9655070  81.1629677  87.9777134 129.7029992  86.4094990  88.3319997
 130.3449992  86.8654990  87.7889997 128.8729992  86.5224990  87.8699997
 129.6787352  86.4873223  88.1950234 126.4509992  80.0904990  77.7449997
 125.5119992  80.2014990  77.5939997 126.7479992  80.9464990  78.0509997
 126.3626371  80.2215327  77.7657362 124.0729992  87.4604990  90.7829997
 123.7269992  87.0784990  91.5889997 123.8729992  88.3934990  90.8539997
 123.9985399  87.5343489  90.9030401 127.1689992  81.9574990  79.4059997
 128.0609992  81.8194990  79.7249997 127.2259992  82.7484990  78.8689997
 127.2987380  82.0454777  79.3770981 117.6779992  86.5714990  85.3149997
 118.4229992  86.5684990  84.7139997 117.7559992  85.7474990  85.7969997
 117.7904158  86.4597928  85.2979136 114.6859992  85.0314990  90.6299997
 114.9089992  84.6134990  91.4619997 114.0839992  84.4194990  90.2079997
 114.6350802  84.8915216  90.6867561 121.7029992  84.5484990  92.8429997
 121.4069992  84.3834990  91.9479997 122.6339992  84.3284990  92.8329997
 121.7883909  84.4961274  92.7190110 126.3229992  89.9224990  90.7329997
 125.4219992  90.1054990  90.4649997 126.3569992  90.1814990  91.6539997
 126.2043021  89.9825505  90.8208206 132.0539992  82.1664990  79.0999997
 131.4999992  81.7704990  78.4279997 132.1549992  83.0774990  78.8229997
 131.9917084  82.2353565  78.9704381 132.0169992  87.9674990  91.9369997
 131.1659992  88.2054990  91.5699997 132.6079992  87.9504990  91.1839997
 131.9802468  87.9978251  91.7848902 130.3489992  90.9524990  79.5649997
 129.9769992  90.1274990  79.8749997 130.6269992  90.7694990  78.6679997
 130.3355997  90.8146160  79.4861551 127.5099992  85.7604990  86.5869997
 126.5819992  85.5294990  86.5599997 127.9609992  84.9834990  86.2569997
 127.4438165  85.6237785  86.5386772 120.0529992  90.0894990  82.7199997
 120.5799992  90.8624990  82.5189997 119.1729992  90.3134990  82.4179997
 120.0061793  90.2256652  82.6516304 121.4799992  87.7524990  82.2959997
 121.2389992  88.6774990  82.3379997 120.7399992  87.2934990  82.6919997
 121.3468934  87.8170881  82.3553191 121.9949992  91.9014990  88.6109997
 122.3579992  92.7554990  88.3779997 122.5269992  91.6094990  89.3519997
 122.1165141  91.9788907  88.6792079 120.1629992  92.7734990  81.8409997
 119.2139992  92.8794990  81.8929997 120.5149992  93.5944990  82.1859997
 120.0806214  92.8989361  81.8947317 125.5389992  88.0004990  88.3119997
 125.1129992  87.7724990  89.1379997 126.1199992  87.2614990  88.1289997
 125.5591587  87.8694084  88.4004111 127.7419992  88.9294990  77.3859997
 128.0949992  88.5494990  78.1899997 126.7929992  88.8354990  77.4719997
 127.6620985  88.8647330  77.5077738 128.1979992  92.5524990  90.7809997
 127.5959992  91.9964990  90.2859997 128.4789992  93.2194990  90.1549997
 128.1535757  92.5665755  90.6285657 116.3199992  79.7854990  90.1879997
 115.4269992  80.1234990  90.1209997 116.2209992  78.9294990  90.6059997
 116.1845241  79.7160941  90.2352982 128.6079992  87.6014990  79.6119997
 128.3309992  86.8734990  80.1679997 129.5349992  87.7204990  79.8179997
 128.6954181  87.5180068  79.7158972 115.9709992  91.5894990  88.6229997
 116.1879992  90.6574990  88.5919997 116.2179992  91.8644990  89.5069997
 116.0340543  91.4990877  88.7381412 121.8329992  90.0414990  75.8329997
 122.0719992  89.2924990  75.2849997 121.5639992  89.6534990  76.6649997
 121.8292804  89.8866524  75.8706352 120.7699992  89.6114990  78.2889997
 120.9169992  89.0914990  79.0789997 120.7669992  90.5184990  78.5949997
 120.7897300  89.6628975  78.4385877 125.0539992  79.5264990  89.0779997
 125.7529992  79.6004990  89.7279997 124.6739992  78.6614990  89.2329997
 125.0982095  79.4197402  89.1877982 125.8389992  79.1784990  80.1749997
 126.0589992  79.6494990  79.3719997 126.3969992  79.5724990  80.8459997
 125.9445851  79.2963272  80.1556134 123.5079992  91.3084990  79.0379997
 122.6909992  91.8054990  79.0909997 124.0369992  91.7844990  78.3979997
 123.4677898  91.4408123  78.9587274 123.0389992  80.9064990  81.0099997
 123.8509992  81.4104990  81.0559997 122.7939992  80.7614990  81.9239997
 123.1171091  80.9559366  81.1398552 123.5749992  81.8924990  90.1949997
 123.6939992  82.4664990  90.9519997 124.2299992  81.2044990  90.3099997
 123.6798684  81.8780205  90.3141656 123.9229992  77.9874990  81.9479997
 123.5759992  78.6044990  82.5929997 124.5809992  78.4884990  81.4669997
 123.9645290  78.1396384  81.9711635 120.8459992  92.3524990  79.0199997
 121.0069992  93.1524990  78.5189997 120.6489992  92.6594990  79.9049997
 120.8413919  92.5034140  79.0710988 129.7789992  79.7994990  91.0299997
 128.8629992  80.0614990  90.9419997 130.1149992  79.7964990  90.1329997
 129.6989789  79.8349637  90.8967829 128.3809992  83.5494990  85.1259997
 127.5839992  83.1344990  84.7969997 128.8259992  82.8594990  85.6169997
 128.3320317  83.3993197  85.1473556 129.4679992  92.8054990  86.7479997
 129.3119992  93.4844990  86.0909997 130.3999992  92.8774990  86.9509997
 129.5727328  92.9081586  86.6855529 116.9629992  76.9234990  85.4849997
 116.7339992  76.9824990  84.5579997 116.5199992  76.1324990  85.7919997
 116.8717387  76.8246412  85.3995223 115.8929992  90.8644990  81.6459997
 115.0609992  91.3364990  81.6729997 116.4389992  91.3744990  81.0469997
 115.8528710  90.9980317  81.5687570 115.1819992  93.4764990  92.9759997
 115.7219992  93.2604990  93.7349997 114.6999992  92.6714990  92.7859997
 115.1909101  93.3380216  93.0544364 119.7789992  92.3964990  94.5959997
 120.5469992  91.9374990  94.9369997 119.7579992  92.1704990  93.6659997
 119.8812135  92.3031680  94.5169473 123.8709992  91.9044990  75.9709997
 123.2269992  91.2734990  76.2929997 124.6329992  91.3734990  75.7389997
 123.8858260  91.7463035  75.9837298 126.3559992  90.7764990  93.3249997
 126.0049992  89.9194990  93.5679997 127.0819992  90.9184990  93.9319997
 126.4061590  90.6785189  93.4402889 128.4749992  91.7214990  76.2049997
 128.7579992  90.9264990  76.6579997 129.2149992  91.9544990  75.6439997
 128.6137295  91.6442349  76.1911469 115.0889992  87.2874990  93.9299997
 115.2329992  86.3854990  93.6439997 114.3159992  87.5734990  93.4419997
 115.0042854  87.2026876  93.8249363 121.7439992  87.2564990  93.3629997
 121.4159992  87.5274990  92.5049997 121.8959992  86.3154990  93.2749997
 121.7196970  87.1663694  93.2337953 127.4789992  87.1724990  90.7459997
 128.2239992  87.7614990  90.6259997 126.7209992  87.7544990  90.8089997
 127.4785185  87.3317000  90.7380940 115.9209992  84.4874990  93.3499997
 116.3289992  83.6304990  93.2289997 115.6609992  84.5014990  94.2709997
 115.9417082  84.3720596  93.4579469 120.5789992  85.6034990  78.3679997
 120.1199992  85.1194990  79.0539997 120.8339992  84.9344990  77.7319997
 120.5506178  85.4468511  78.3759785 119.8679992  83.4964990  90.7239997
 119.2499992  84.1704990  91.0049997 120.2119992  83.8174990  89.8909997
 119.8298181  83.6323233  90.6498266 124.8879992  85.9674990  94.0019997
 125.8409992  86.0514990  93.9739997 124.7279992  85.2554990  94.6209997
 124.9968161  85.8827198  94.0818689 120.2079992  80.8514990  91.8069997
 120.3579992  80.1224990  91.2039997 120.2099992  81.6284990  91.2479997
 120.2287664  80.8568971  91.6490525 120.6199992  79.2204990  89.2989997
 121.1559992  79.6724990  88.6469997 119.7679992  79.1124990  88.8769997
 120.5781648  79.2677883  89.1526395 122.2019992  84.6604990  89.5389997
 122.9529992  84.5044990  88.9659997 121.8629992  85.5124990  89.2629997
 122.2589052  84.7542745  89.4233469 126.6179992  82.4754990  94.5669997
 126.8099992  81.5444990  94.4559997 127.4749992  82.9004990  94.5569997
 126.7602320  82.4054743  94.5504433 127.9339992  85.2644990  92.6449997
 127.6529992  85.9734990  92.0669997 128.8769992  85.1914990  92.4939997
 128.0229272  85.3516704  92.5454976 118.6859992  82.0494990  93.7179997
 117.9189992  81.5164990  93.5079997 119.3649992  81.7394990  93.1189997
 118.6728292  81.9346360  93.6082693 121.4259992  76.6774990  89.7309997
 121.3279992  77.6234990  89.6249997 120.6829992  76.3044990  89.2549997
 121.3122363  76.7565987  89.6522029 122.6899992  80.9984990  93.2939997
 122.4539992  80.7794990  94.1959997 121.9069992  80.7914990  92.7849997
 122.5518444  80.9405688  93.3484518 125.4059992  80.1264990  92.3699997
 124.4579992  80.1584990  92.5019997 125.7179992  79.5004990  93.0239997
 125.3185293  80.0462934  92.4764130 127.0399992  78.7604990  94.3749997
 126.9429992  77.8084990  94.3689997 126.7179992  79.0284990  95.2359997
 126.9832229  78.6664706  94.4905108 116.8669992  79.9694990  93.4229997
 117.0779992  79.2634990  92.8119997 116.7549992  79.5324990  94.2669997
 116.8807674  79.8136376  93.4534199 121.6479992  75.9714990  92.4019997
 122.3589992  75.3314990  92.3879997 121.5469992  76.2374990  91.4879997
 121.7316732  75.9198451  92.2765475 122.0009992  77.6534990  94.4559997
 121.8699992  77.1784990  93.6349997 121.4019992  78.3984990  94.3999997
 121.9021524  77.6891968  94.3361553 121.5479992  94.5364990  77.6319997
 122.4809992  94.6944990  77.7759997 121.2829992  95.2124990  77.0069997
 121.6399846  94.6494567  77.5672930 113.7649992  94.5664990  82.1919997
 113.1179992  94.1044990  81.6589997 114.1199992  93.8944990  82.7749997
 113.7243861  94.4124707  82.1977939 114.6349992  92.6464990  83.9969997
 114.3009992  91.7664990  84.1689997 114.8569992  92.9924990  84.8609997
 114.6192677  92.5727365  84.1374252 132.1839992  93.4564990  86.9769997
 132.1619992  93.6414990  87.9159997 132.8739992  94.0244990  86.6359997
 132.2743439  93.5586898  87.0594774 131.7469992  93.0234990  89.8989997
 131.2599992  92.2874990  89.5279997 132.2959992  92.6294990  90.5769997
 131.7546101  92.8696267  89.9399034 130.1979992  88.8134990  94.5369997
 129.3319992  88.7084990  94.9309997 130.5739992  89.5714990  94.9839997
 130.1303768  88.9016151  94.6513258 131.4989992  87.0694990  80.0509997
 132.3489992  87.4904990  80.1789997 131.5039992  86.3294990  80.6589997
 131.6159745  87.0271347  80.1506479 131.8929992  85.1234990  81.8749997
 131.1669992  84.6434990  82.2729997 132.4739992  85.3284990  82.6069997
 131.8722504  85.0855592  82.0284199 131.6519992  87.9084990  86.8229997
 132.4859992  87.5304990  86.5419997 131.7639992  88.8514990  86.7039997
 131.7811917  87.9842954  86.7684844 130.1379992  90.7864990  89.1299997
 129.4909992  91.1114990  89.7549997 129.6209992  90.3454990  88.4549997
 129.9794068  90.7714726  89.1244918 130.5099992  82.2634990  76.8169997
 130.6069992  82.9304990  76.1369997 130.3699992  81.4484990  76.3349997
 130.5043428  82.2445667  76.6588311 129.6799992  83.6444990  82.4379997
 129.5299992  82.6994990  82.4179997 129.3259992  83.9254990  83.2819997
 129.6116351  83.5531656  82.5493202 114.7149992  85.7224990  86.4479997
 114.8989992  85.6404990  85.5129997 115.5639992  85.5984990  86.8719997
 114.8550259  85.6944915  86.3771771 130.5359992  85.6144990  92.0769997
 131.1189992  84.8794990  92.2679997 131.0999992  86.3864990  92.1229997
 130.6920326  85.6182746  92.1093579 132.0329992  83.5174990  92.7609997
 131.1689992  83.1384990  92.5959997 132.6369992  82.7784990  92.6869997
 131.9964912  83.3657937  92.7284360 129.3899992  81.2264990  80.8999997
 129.6699992  80.3194990  81.0249997 130.1489992  81.6604990  80.5109997
 129.5309471  81.1610654  80.8645051 130.0019992  81.8084990  86.3359997
 130.9349992  82.0204990  86.3019997 129.7669992  81.9094990  87.2589997
 130.0978357  81.8511303  86.4560232 130.0309992  82.5454990  89.1119997
 129.1879992  82.8134990  89.4779997 130.4739992  83.3674990  88.9009997
 129.9754358  82.6933294  89.1335999 114.3119992  80.9924990  92.5889997
 115.2319992  80.8704990  92.8249997 113.8629992  80.2424990  92.9779997
 114.3771561  80.8743720  92.6739015 132.3139992  76.5254990  94.4659997
 132.6639992  75.8714990  93.8599997 132.4609992  77.3624990  94.0259997
 132.3817192  76.5492545  94.3236712 130.0039992  78.4894990  80.9489997
 130.1859992  78.0404990  81.7739997 129.4039992  77.9054990  80.4849997
 129.9478187  78.3490563  80.9992721 115.5339992  79.3054990  85.4799997
 115.9789992  78.5134990  85.7819997 115.9999992  80.0214990  85.9109997
 115.6579059  79.2939485  85.5796061 113.8379992  82.3044990  86.5489997
 114.3299992  82.0834990  85.7589997 114.1999992  83.1444990  86.8299997
 113.9543429  82.3878220  86.4787918 131.8339992  78.6344990  92.8149997
 130.9169992  78.9054990  92.7789997 131.9569992  78.0994990  92.0309997
 131.7250828  78.5992711  92.7040767 114.1509992  78.5624990  80.6039997
 113.2259992  78.7704990  80.4739997 114.6049992  79.0464990  79.9139997
 114.0857401  78.6563895  80.4929433 128.9219992  93.5464990  82.5489997
 129.5739992  93.1984990  81.9409997 129.4329992  94.0344990  83.1949997
 129.0802872  93.5648248  82.5530964 114.1149992  77.3004990  88.9479997
 113.4499992  77.0544990  89.5909997 113.6719992  77.9224990  88.3709997
 113.9641168  77.3509225  88.9579830 116.3069992  90.4754990  93.0919997
 115.4859992  90.6504990  92.6319997 116.0549992  90.4024990  94.0129997
 116.1606173  90.4895806  93.1534954 119.2609992  91.4494990  89.3509997
 118.8359992  92.2594990  89.0679997 120.1649992  91.5354990  89.0489997
 119.3251002  91.5718728  89.2714798 123.5719992  92.8484990  92.3099997
 123.7569992  92.5154990  93.1879997 124.4189992  93.1584990  91.9879997
 123.7117291  92.8448214  92.3866140 125.9169992  94.1344990  91.5539997
 126.5939992  93.5014990  91.3139997 126.2389992  94.5354990  92.3619997
 126.0531280  94.1020638  91.6303190 130.8349992  76.7244990  90.6339997
 130.0219992  77.0494990  90.2459997 131.0679992  75.9634990  90.1009997
 130.7552566  76.6661570  90.5089196 116.6629992  94.7064990  89.3979997
 115.9419992  95.1464990  88.9469997 116.2969992  94.4554990  90.2469997
 116.5149785  94.7327691  89.4509849 119.1299992  94.3064990  88.4279997
 118.2649992  94.3784990  88.8319997 119.0749992  94.8534990  87.6439997
 119.0042066  94.3902678  88.3773371 123.8409992  94.1944990  87.6039997
 123.3839992  94.7234990  86.9499997 124.0029992  94.7974990  88.3289997
 123.8003919  94.3483990  87.6125740 126.1679992  93.0724990  88.5489997
 125.2639992  93.2374990  88.2829997 126.5969992  93.9254990  88.4829997
 126.1022017  93.2104184  88.5036495 128.7719992  94.6424990  88.8439997
 128.5909992  95.5584990  88.6329997 128.9489992  94.2314990  87.9969997
 128.7711377  94.7123365  88.7007178 116.0779992  93.3294990  86.3089997
 116.0589992  92.9034990  87.1659997 116.8819992  93.0104990  85.8999997
 116.1841393  93.2280297  86.3710155 118.2189992  92.0394990  84.9639997
 117.9999992  91.1224990  85.1329997 119.0429992  92.1794990  85.4299997
 118.3004637  91.9329586  85.0501414 120.7559992  92.5094990  85.8119997
 120.9689992  91.6214990  85.5249997 120.8209992  92.4744990  86.7669997
 120.7939075  92.3833318  85.9017355 124.2649992  78.1734990  84.9569997
 123.5899992  77.5434990  85.2119997 124.8289992  77.6894990  84.3539997
 124.2489558  78.0219283  84.9103451 129.4069992  76.2804990  85.0689997
 130.0109992  76.8284990  84.5679997 128.5379992  76.5994990  84.8289997
 129.3721126  76.3987070  84.9679180 131.1339992  77.4194990  83.4029997
 131.7459992  76.9054990  82.8759997 131.5169992  78.2964990  83.4259997
 131.2693867  77.4677613  83.3340888 116.5909992  76.8074990  82.7789997
 115.8139992  76.5724990  82.2709997 117.1219992  76.0104990  82.7879997
 116.5564443  76.6676721  82.7107200 121.1709992  76.7334990  82.5919997
 122.0449992  77.1224990  82.5619997 121.0349992  76.5184990  83.5149997
 121.2723125  76.7577120  82.7126523 126.7269992  76.7634990  84.2409997
 126.8039992  76.8594990  83.2919997 126.4519992  75.8564990  84.3699997
 126.7003407  76.6539188  84.1283532 128.0809992  76.7894990  79.9339997
 127.3779992  77.4044990  79.7239997 127.6359992  75.9524990  80.0649997
 127.9246550  76.7604679  79.9229819 115.3289992  92.5534990  79.4799997
 114.6439992  92.5154990  78.8119997 115.3319992  93.4654990  79.7679997
 115.2357358  92.6716744  79.4276145 122.3149992  78.8144990  79.4819997
 122.4929992  78.1674990  80.1649997 122.2609992  79.6484990  79.9489997
 122.3320678  78.8386615  79.6386283 130.9019992  93.3254990  80.5569997
 130.7079992  92.5774990  79.9919997 130.8629992  94.0834990  79.9729997
 130.8701907  93.3255770  80.4008077 116.5489992  77.3214990  92.2959997
 116.1829992  76.5554990  92.7389997 117.4619992  77.3504990  92.5829997
 116.6223225  77.2206917  92.3953441 118.5219992  76.6714990  93.8319997
 119.4209992  76.3974990  93.6469997 118.1359992  75.9294990  94.2959997
 118.5927237  76.5336520  93.8694693 117.1469992  93.4734990  76.5049997
 116.8789992  93.7594990  77.3779997 117.9179992  92.9274990  76.6569997
 117.2145600  93.4388341  76.6451482 126.9429992  76.0044990  94.0139997
 127.0199992  75.5784990  94.8679997 127.8369992  76.0174990  93.6719997
 127.0743315  75.9480320  94.0845052 130.1199992  92.0764990  92.7069997
 129.3379992  91.8904990  92.1869997 130.0479992  93.0064990  92.9239997
 130.0032975  92.1766973  92.6651822 135.8269992  84.8324990  87.7489997
 135.8679992  84.2074990  88.4729997 136.5299992  85.4564990  87.9309997
 135.9276054  84.8313262  87.8726311 136.7509992  89.2824990  86.2839997
 136.3809992  88.4804990  85.9149997 137.6919992  89.1144990  86.3309997
 136.8275630  89.1498680  86.2397873 133.3609992  82.9424990  81.6769997
 132.9129992  83.7884990  81.6589997 132.7999992  82.3634990  81.1619997
 133.2238546  82.9799004  81.6048874 134.0709992  85.1044990  83.8029997
 134.2849992  84.3344990  84.3299997 134.8089992  85.1944990  83.1999997
 134.2000073  85.0113546  83.7935786 138.1439992  80.1464990  84.1619997
 138.1869992  81.0064990  83.7439997 137.6859992  79.5934990  83.5289997
 138.0879613  80.1895689  84.0191276 134.7639992  82.5434990  84.9239997
 135.4179992  81.9934990  85.3559997 134.7879992  82.2694990  84.0079997
 134.8567022  82.4312005  84.8591698 136.9539992  79.0644990  88.2359997
 136.7349992  79.5944990  87.4699997 136.2859992  79.2904990  88.8839997
 136.8337271  79.1676508  88.2186206 139.5229992  86.7394990  88.5239997
 138.7829992  87.3384990  88.6269997 140.2369992  87.2934990  88.2079997
 139.5183288  86.8962368  88.4953787 136.5479992  80.9564990  86.1889997
 137.1609992  81.5894990  86.5619997 137.0599992  80.4844990  85.5319997
 136.7011680  80.9794006  86.1512830 137.9299992  88.7044990  89.3109997
 137.9249992  89.5834990  88.9329997 137.0769992  88.6204990  89.7359997
 137.8139199  88.8135901  89.3166942 134.0519992  88.3754990  80.0929997
 133.7799992  88.6044990  79.2039997 134.0969992  89.2124990  80.5529997
 134.0208709  88.5201069  80.0336089 138.2979992  86.0474990  83.0239997
 137.9679992  85.6764990  82.2049997 138.8859992  85.3764990  83.3699997
 138.3324056  85.9061257  82.9589035 138.6649992  84.8154990  86.6569997
 139.2299992  84.9374990  85.8939997 138.9829992  85.4534990  87.2959997
 138.7853430  84.9184448  86.6389094 139.5449992  89.2154990  91.3739997
 139.2329992  89.9974990  91.8299997 138.8949992  89.0624990  90.6879997
 139.4144643  89.3018019  91.3436657 136.4649992  85.4134990  90.6029997
 136.5349992  86.0644990  91.3009997 135.5739992  85.5164990  90.2679997
 136.3541802  85.5164769  90.6532231 137.7839992  91.2864990  92.1379997
 137.7919992  91.1504990  91.1899997 136.8679992  91.1694990  92.3899997
 137.6612512  91.2520663  92.0423179 137.2879992  85.1164990  80.6129997
 136.9959992  85.8844990  80.1219997 136.6139992  84.4574990  80.4499997
 137.1568843  85.1324537  80.5237695 133.3809992  87.4794990  89.4279997
 132.8799992  87.4514990  88.6129997 133.3869992  86.5744990  89.7379997
 133.3131690  87.3532234  89.3582770 133.1319992  90.2604990  86.3119997
 134.0779992  90.1154990  86.2929997 133.0189992  91.0444990  86.8489997
 133.2463578  90.3466708  86.3820300 136.3759992  93.0614990  82.4569997
 136.5279992  92.7134990  83.3359997 135.5249992  92.7044990  82.2019997
 136.2817899  92.9656749  82.5427322 135.6299992  88.8034990  90.4709997
 135.8459992  88.4414990  91.3309997 134.7749992  88.4284990  90.2609997
 135.5439349  88.7032914  90.5602134 138.2489992  77.2734990  86.4669997
 137.3869992  77.1864990  86.0589997 138.2269992  78.1294990  86.8939997
 138.1280953  77.3773558  86.4689262 138.3399992  82.2384990  87.5619997
 137.6979992  82.1984990  88.2709997 138.3769992  83.1654990  87.3239997
 138.2571659  82.3582540  87.6268463 138.3369992  82.4594990  82.4739997
 137.4439992  82.1194990  82.4149997 138.7879992  82.0824990  81.7179997
 138.2757185  82.3620220  82.3637698 136.0899992  82.5594990  89.4289997
 136.0519992  82.9594990  90.2969997 135.5989992  81.7424990  89.5189997
 136.0184246  82.5038842  89.5601171 132.6979992  79.6754990  83.2789997
 133.3289992  79.6464990  83.9989997 133.1479992  79.2504990  82.5489997
 132.8450905  79.6140839  83.2787479 135.7469992  81.5164990  82.3869997
 134.8579992  81.6154990  82.0469997 136.0429992  80.6744990  82.0409997
 135.6654001  81.4162473  82.2937318 139.3999992  81.5164990  80.0429997
 140.3319992  81.6454990  80.2209997 139.1849992  82.1854990  79.3939997
 139.4984245  81.6246452  79.9795602 138.0739992  82.7104990  77.6099997
 137.5319992  82.3314990  76.9189997 138.9079992  82.9054990  77.1809997
 138.1124283  82.6849383  77.4574298 136.2089992  87.2674990  92.7089997
 136.9409992  87.5224990  93.2699997 135.4289992  87.4724990  93.2239997
 136.2037684  87.3301457  92.8554774 137.2409992  78.8114990  81.8649997
 136.9229992  77.9084990  81.8299997 138.0219992  78.8134990  81.3129997
 137.3031560  78.6881148  81.7854975 136.5339992  86.5714990  85.3149997
 137.2789992  86.5684990  84.7139997 136.6119992  85.7474990  85.7969997
 136.6464158  86.4597928  85.2979136 133.5419992  85.0314990  90.6299997
 133.7649992  84.6134990  91.4619997 132.9399992  84.4194990  90.2079997
 133.4910802  84.8915216  90.6867561 138.9089992  90.0894990  82.7199997
 139.4359992  90.8624990  82.5189997 138.0289992  90.3134990  82.4179997
 138.8621793  90.2256652  82.6516304 134.6639992  84.9514990  77.3069997
 135.2799992  85.5784990  77.6859997 133.8019992  85.2674990  77.5779997
 134.6318195  85.0800810  77.3955369 139.0189992  92.7734990  81.8409997
 138.0699992  92.8794990  81.8929997 139.3709992  93.5944990  82.1859997
 138.9366214  92.8989361  81.8947317 135.1759992  79.7854990  90.1879997
 134.2829992  80.1234990  90.1209997 135.0769992  78.9294990  90.6059997
 135.0405241  79.7160941  90.2352982 134.8269992  91.5894990  88.6229997
 135.0439992  90.6574990  88.5919997 135.0739992  91.8644990  89.5069997
 134.8900543  91.4990877  88.7381412 136.0789992  86.8634990  78.7989997
 135.3929992  87.2164990  79.3659997 136.6019992  87.6264990  78.5529997
 136.0559033  87.0148757  78.8432644 138.4359992  79.0504990  78.6359997
 138.3529992  79.9384990  78.9819997 139.3259992  78.7854990  78.8669997
 138.5449751  79.1362482  78.7146066 136.6949992  89.4774990  77.6959997
 137.2869992  90.1774990  77.9719997 137.1539992  89.0444990  76.9769997
 136.8381172  89.5147371  77.6365163 135.8189992  76.9234990  85.4849997
 135.5899992  76.9824990  84.5579997 135.3759992  76.1324990  85.7919997
 135.7277387  76.8246412  85.3995223 134.7489992  90.8644990  81.6459997
 133.9169992  91.3364990  81.6729997 135.2949992  91.3744990  81.0469997
 134.7088710  90.9980317  81.5687570 134.0379992  93.4764990  92.9759997
 134.5779992  93.2604990  93.7349997 133.5559992  92.6714990  92.7859997
 134.0469101  93.3380216  93.0544364 138.6349992  92.3964990  94.5959997
 139.4029992  91.9374990  94.9369997 138.6139992  92.1704990  93.6659997
 138.7372135  92.3031680  94.5169473 133.9449992  87.2874990  93.9299997
 134.0889992  86.3854990  93.6439997 133.1719992  87.5734990  93.4419997
 133.8602854  87.2026876  93.8249363 138.2859992  87.6304990  76.0619997
 138.3499992  86.8364990  76.5929997 138.9389992  87.5124990  75.3729997
 138.3831168  87.5057748  76.0415119 134.7769992  84.4874990  93.3499997
 135.1849992  83.6304990  93.2289997 134.5169992  84.5014990  94.2709997
 134.7977082  84.3720596  93.4579469 139.4349992  85.6034990  78.3679997
 138.9759992  85.1194990  79.0539997 139.6899992  84.9344990  77.7319997
 139.4066178  85.4468511  78.3759785 138.7239992  83.4964990  90.7239997
 138.1059992  84.1704990  91.0049997 139.0679992  83.8174990  89.8909997
 138.6858181  83.6323233  90.6498266 139.0639992  80.8514990  91.8069997
 139.2139992  80.1224990  91.2039997 139.0659992  81.6284990  91.2479997
 139.0847664  80.8568971  91.6490525 139.4759992  79.2204990  89.2989997
 140.0119992  79.6724990  88.6469997 138.6239992  79.1124990  88.8769997
 139.4341648  79.2677883  89.1526395 137.5419992  82.0494990  93.7179997
 136.7749992  81.5164990  93.5079997 138.2209992  81.7394990  93.1189997
 137.5288292  81.9346360  93.6082693 135.7229992  79.9694990  93.4229997
 135.9339992  79.2634990  92.8119997 135.6109992  79.5324990  94.2669997
 135.7367674  79.8136376  93.4534199 132.6209992  94.5664990  82.1919997
 131.9739992  94.1044990  81.6589997 132.9759992  93.8944990  82.7749997
 132.5803861  94.4124707  82.1977939 133.4909992  92.6464990  83.9969997
 133.1569992  91.7664990  84.1689997 133.7129992  92.9924990  84.8609997
 133.4752677  92.5727366  84.1374252 133.5709992  85.7224990  86.4479997
 133.7549992  85.6404990  85.5129997 134.4199992  85.5984990  86.8719997
 133.7110259  85.6944915  86.3771771 133.1679992  80.9924990  92.5889997
 134.0879992  80.8704990  92.8249997 132.7189992  80.2424990  92.9779997
 133.2331561  80.8743720  92.6739015 134.3899992  79.3054990  85.4799997
 134.8349992  78.5134990  85.7819997 134.8559992  80.0214990  85.9109997
 134.5139059  79.2939485  85.5796061 132.6939992  82.3044990  86.5489997
 133.1859992  82.0834990  85.7589997 133.0559992  83.1444990  86.8299997
 132.8103429  82.3878220  86.4787918 133.0069992  78.5624990  80.6039997
 132.0819992  78.7704990  80.4739997 133.4609992  79.0464990  79.9139997
 132.9417401  78.6563895  80.4929433 132.9709992  77.3004990  88.9479997
 132.3059992  77.0544990  89.5909997 132.5279992  77.9224990  88.3709997
 132.8201168  77.3509225  88.9579830 135.1629992  90.4754990  93.0919997
 134.3419992  90.6504990  92.6319997 134.9109992  90.4024990  94.0129997
 135.0166173  90.4895806  93.1534954 138.1169992  91.4494990  89.3509997
 137.6919992  92.2594990  89.0679997 139.0209992  91.5354990  89.0489997
 138.1811002  91.5718728  89.2714798 135.5189992  94.7064990  89.3979997
 134.7979992  95.1464990  88.9469997 135.1529992  94.4554990  90.2469997
 135.3709785  94.7327691  89.4509849 137.9859992  94.3064990  88.4279997
 137.1209992  94.3784990  88.8319997 137.9309992  94.8534990  87.6439997
 137.8602066  94.3902678  88.3773371 134.9339992  93.3294990  86.3089997
 134.9149992  92.9034990  87.1659997 135.7379992  93.0104990  85.8999997
 135.0401393  93.2280297  86.3710155 137.0749992  92.0394990  84.9639997
 136.8559992  91.1224990  85.1329997 137.8989992  92.1794990  85.4299997
 137.1564637  91.9329586  85.0501414 135.4469992  76.8074990  82.7789997
 134.6699992  76.5724990  82.2709997 135.9779992  76.0104990  82.7879997
 135.4124443  76.6676721  82.7107200 134.2839992  76.6054990  78.5819997
 134.7229992  77.2164990  77.9909997 133.6499992  77.1434990  79.0559997
 134.2584103  76.7619233  78.5651376 134.1849992  92.5534990  79.4799997
 133.4999992  92.5154990  78.8119997 134.1879992  93.4654990  79.7679997
 134.0917358  92.6716744  79.4276145 135.4049992  77.3214990  92.2959997
 135.0389992  76.5554990  92.7389997 136.3179992  77.3504990  92.5829997
 135.4783225  77.2206917  92.3953441 137.3779992  76.6714990  93.8319997
 138.2769992  76.3974990  93.6469997 136.9919992  75.9294990  94.2959997
 137.4487237  76.5336520  93.8694693 136.0029992  93.4734990  76.5049997
 135.7349992  93.7594990  77.3779997 136.7739992  92.9274990  76.6569997
 136.0705600  93.4388341  76.6451482  12.5339992 104.8194990  82.7369997
  12.6229992 105.7634990  82.6049997  11.8949992 104.5444990  82.0789997
  12.4598319 104.9114984  82.6300276  11.4669992 104.0744990  86.1559997
  11.4279992 103.4284990  86.8609997  11.1439992 103.6074990  85.3849997
  11.4180199 103.9230089  86.1482865   3.8349992 103.6884990  87.7489997
   3.8759992 103.0634990  88.4729997   4.5379992 104.3124990  87.9309997
   3.9356054 103.6873262  87.8726311  15.1729992 107.0134990  84.4579997
  14.7319992 106.2934990  84.9079997  15.1599992 107.7344990  85.0879997
  15.1108398 107.0123187  84.6047734   4.7589992 108.1384990  86.2839997
   4.3889992 107.3364990  85.9149997   5.6999992 107.9704990  86.3309997
   4.8355630 108.0058680  86.2397873   1.3689992 101.7984990  81.6769997
   0.9209992 102.6444990  81.6589997   0.8079992 101.2194990  81.1619997
   1.2318546 101.8359004  81.6048874   2.0789992 103.9604990  83.8029997
   2.2929992 103.1904990  84.3299997   2.8169992 104.0504990  83.1999997
   2.2080073 103.8673546  83.7935786  12.2839992 112.1174990  84.6699997
  12.9039992 111.4414990  84.3969997  12.0759992 111.8994990  85.5779997
  12.3407360 111.9954792  84.7554387   9.8559992 106.5064990  86.5619997
  10.1599992 105.8204990  85.9679997  10.5779992 106.6254990  87.1799997
   9.9951152 106.4287201  86.5642106  18.5189992  98.1084990  87.4229997
  18.5679992  98.7184990  88.1589997  18.9449992  98.5694990  86.6999997
  18.5832851  98.2543266  87.4260532  12.9969992 100.9004990  86.8899997
  13.1389992  99.9544990  86.9099997  12.8909992 101.1074990  85.9609997
  13.0021158 100.7989722  86.7672241   6.1519992  99.0024990  84.1619997
   6.1949992  99.8624990  83.7439997   5.6939992  98.4494990  83.5289997
   6.0959613  99.0455689  84.0191276  13.8739992  99.1334990  82.5629997
  14.5199992  98.8044990  83.1879997  14.3839992  99.6504990  81.9399997
  14.0314392  99.1583710  82.5643248   2.7719992 101.3994990  84.9239997
   3.4259992 100.8494990  85.3559997   2.7959992 101.1254990  84.0079997
   2.8647022 101.2872005  84.8591698   7.9279992 102.9494990  84.1399997
   8.5439992 102.4224990  84.6489997   7.3419992 102.3094990  83.7359997
   7.9330652 102.7908919  84.1550277  18.9109992  99.5864990  89.6589997
  18.2219992 100.2444990  89.5639997  18.9259992  99.3884990  90.5959997
  18.8187756  99.6497614  89.7725795   4.9619992  97.9204990  88.2359997
   4.7429992  98.4504990  87.4699997   4.2939992  98.1464990  88.8839997
   4.8417271  98.0236508  88.2186206  12.3309992 107.4204990  81.7799997
  12.0349992 107.0974990  80.9289997  12.0069992 108.3204990  81.8219997
  12.2466501 107.4979058  81.6690893   7.5309992 105.5954990  88.5239997
   6.7909992 106.1944990  88.6269997   8.2449992 106.1494990  88.2079997
   7.5263288 105.7522368  88.4953787  15.6379992  98.4244990  84.5439997
  15.4229992  97.6584990  85.0759997  16.2939992  98.8964990  85.0569997
  15.6972451  98.3834472  84.6861699   4.5559992  99.8124990  86.1889997
   5.1689992 100.4454990  86.5619997   5.0679992  99.3404990  85.5319997
   4.7091680  99.8354006  86.1512830   5.9379992 107.5604990  89.3109997
   5.9329992 108.4394990  88.9329997   5.0849992 107.4764990  89.7359997
   5.8219199 107.6695901  89.3166942   2.0599992 107.2314990  80.0929997
   1.7879992 107.4604990  79.2039997   2.1049992 108.0684990  80.5529997
   2.0288709 107.3761069  80.0336089  15.6849992 108.8524990  86.8059997
  14.7429992 108.9114990  86.9669997  15.9609992 109.7584990  86.6689997
  15.5935771 108.9830270  86.8094827  15.9849992  97.1394990  88.2229997
  15.2489992  97.7494990  88.1849997  16.6689992  97.5544990  87.6969997
  15.9765885  97.2791924  88.1466931   8.9879992  95.2254990  85.6889997
   8.8709992  94.2774990  85.6349997   8.1329992  95.5584990  85.9619997
   8.8563691  95.1405842  85.7185072  13.9369992 110.6334990  83.4309997
  14.3619992 109.9264990  82.9459997  14.2539992 111.4354990  83.0139997
  14.0380266 110.6450201  83.3082461  15.0959992 108.5344990  81.9399997
  14.8389992 107.8444990  81.3279997  15.1669992 108.0914990  82.7849997
  15.0704322 108.3801568  81.9705372  16.7819992 107.1014990  90.4169997
  16.9219992 106.5094990  89.6779997  16.9499992 107.9744990  90.0609997
  16.8238734 107.1384041  90.2676937  11.2549992 104.0634990  80.1889997
  10.5429992 104.5984990  79.8379997  11.9459992 104.1184990  79.5289997
  11.2508696 104.1442591  80.0516372  11.3089992 102.5204990  77.2279997
  12.0099992 102.5434990  77.8789997  11.6109992 101.8924990  76.5719997
  11.4458282 102.4387350  77.2284478  18.6239992 103.4414990  88.4829997
  17.9719992 104.1354990  88.5719997  19.0889992 103.6514990  87.6729997
  18.5975357 103.5649544  88.3857056  14.6609992 104.2724990  81.1409997
  13.9289992 104.5014990  81.7139997  15.1079992 103.5594990  81.5959997
  14.6212753 104.2073984  81.2809698  14.5579992 102.4474990  90.2089997
  14.6379992 103.2104990  90.7809997  13.9569992 102.7264990  89.5179997
  14.4877115 102.5897707  90.1939631   6.3059992 104.9034990  83.0239997
   5.9759992 104.5324990  82.2049997   6.8939992 104.2324990  83.3699997
   6.3404056 104.7621257  82.9589035   7.6729992 108.3314990  85.7049997
   7.5779992 107.7524990  84.9479997   8.4019992 107.9604990  86.2009997
   7.7586161 108.2020902  85.6685191   6.6729992 103.6714990  86.6569997
   7.2379992 103.7934990  85.8939997   6.9909992 104.3094990  87.2959997
   6.7933430 103.7744448  86.6389094  12.9819992 109.1754990  87.3909997
  12.7409992 109.8374990  88.0389997  12.7839992 108.3404990  87.8159997
  12.9222662 109.1532704  87.5371008   7.5529992 108.0714990  91.3739997
   7.2409992 108.8534990  91.8299997   6.9029992 107.9184990  90.6879997
   7.4224643 108.1578019  91.3436657  13.5319992 103.4354990  78.8259997
  14.1109992 103.5854990  79.5729997  13.9459992 103.9054990  78.1029997
  13.6673122 103.5196288  78.8305024   4.4729992 104.2694990  90.6029997
   4.5429992 104.9204990  91.3009997   3.5819992 104.3724990  90.2679997
   4.3621802 104.3724769  90.6532231  11.2579992 110.1714990  82.2619997
  11.7319992 110.4674990  83.0389997  10.6949992 110.9104990  82.0279997
  11.2468460 110.3118336  82.3367626   5.7919992 110.1424990  92.1379997
   5.7999992 110.0064990  91.1899997   4.8759992 110.0254990  92.3899997
   5.6692512 110.1080663  92.0423179   5.2959992 103.9724990  80.6129997
   5.0039992 104.7404990  80.1219997   4.6219992 103.3134990  80.4499997
   5.1648843 103.9884537  80.5237695   1.3889992 106.3354990  89.4279997
   0.8879992 106.3074990  88.6129997   1.3949992 105.4304990  89.7379997
   1.3211690 106.2092234  89.3582770   1.1399992 109.1164990  86.3119997
   2.0859992 108.9714990  86.2929997   1.0269992 109.9004990  86.8489997
   1.2543578 109.2026708  86.3820300  19.3369992 109.7824990  91.9939997
  19.2879992 108.8264990  91.9569997  18.5109992 110.0494990  92.3959997
  19.2185767 109.6878841  92.0433133  10.3159992 109.3564990  90.8699997
  10.4029992 110.1824990  91.3449997   9.4519992 109.0264990  91.1189997
  10.2111944 109.4249871  90.9686558  10.7299992 113.1284990  80.6759997
  10.6549992 113.0074990  79.7299997  10.7629992 114.0774990  80.7949997
  10.7241862 113.2402492  80.5624840   4.3839992 111.9174990  82.4569997
   4.5359992 111.5694990  83.3359997   3.5329992 111.5604990  82.2019997
   4.2897899 111.8216749  82.5427322  13.5009992 112.2084990  80.4279997
  12.5659992 112.3084990  80.6069997  13.7809992 111.4984990  81.0059997
  13.4109270 112.1262300  80.5305984  16.4889992 101.2754990  92.4739997
  16.0819992 101.7554990  91.7539997  16.5299992 100.3694990  92.1669997
  16.4387178 101.2188609  92.3337441   3.6379992 107.6594990  90.4709997
   3.8539992 107.2974990  91.3309997   2.7829992 107.2844990  90.2609997
   3.5519349 107.5592914  90.5602134   6.2569992  96.1294990  86.4669997
   5.3949992  96.0424990  86.0589997   6.2349992  96.9854990  86.8939997
   6.1360953  96.2333558  86.4689262  10.9199992  95.8514990  89.8409997
  11.3399992  95.4364990  90.5939997   9.9869992  95.6724990  89.9579997
  10.8513736  95.7704921  89.9598950  14.2459992  99.6064990  90.6949997
  13.7319992  99.4814990  91.4919997  14.0909992 100.5194990  90.4499997
  14.1546643  99.7127068  90.7710624   6.3479992 101.0944990  87.5619997
   5.7059992 101.0544990  88.2709997   6.3849992 102.0214990  87.3239997
   6.2651659 101.2142540  87.6268463   6.3449992 101.3154990  82.4739997
   5.4519992 100.9754990  82.4149997   6.7959992 100.9384990  81.7179997
   6.2837185 101.2180220  82.3637698  11.8809992 101.7314990  81.2909997
  11.4719992 102.5464990  80.9989997  12.6009992 101.5914990  80.6759997
  11.9223946 101.8239963  81.1679616  10.9829992 101.9074990  92.7789997
  10.4199992 101.2024990  93.0989997  11.8089992 101.7864990  93.2459997
  11.0176423 101.7945614  92.8860168  12.8849992 101.1774990  84.1049997
  12.6899992 101.7834990  83.3899997  13.0669992 100.3444990  83.6699997
  12.8829272 101.1477955  83.9484075   4.0979992 101.4154990  89.4289997
   4.0599992 101.8154990  90.2969997   3.6069992 100.5984990  89.5189997
   4.0264246 101.3598842  89.5601171   0.7059992  98.5314990  83.2789997
   1.3369992  98.5024990  83.9989997   1.1559992  98.1064990  82.5489997
   0.8530905  98.4700839  83.2787479   1.9799992  99.2774990  78.7029997
   2.4549992  99.8684990  78.1179997   1.2629992  99.8074990  79.0499997
   1.9480406  99.4301011  78.6698495  12.1489992 102.8154990  88.7759997
  12.4729992 102.1844990  88.1329997  11.7089992 102.2814990  89.4369997
  12.1338707 102.6568261  88.7773195   8.9269992  98.7434990  83.5599997
   8.0159992  98.8004990  83.8489997   9.4319992  98.6834990  84.3709997
   8.8706873  98.7431838  83.7091190   3.7549992 100.3724990  82.3869997
   2.8659992 100.4714990  82.0469997   4.0509992  99.5304990  82.0409997
   3.6734001 100.2722473  82.2937318   7.4079992 100.3724990  80.0429997
   8.3399992 100.5014990  80.2209997   7.1929992 101.0414990  79.3939997
   7.5064245 100.4806452  79.9795602  13.3319992  97.9784990  86.8239997
  12.6549992  98.1094990  87.4879997  12.8459992  97.8234990  86.0139997
  13.1737265  97.9754665  86.8053380   6.0819992 101.5664990  77.6099997
   5.5399992 101.1874990  76.9189997   6.9159992 101.7614990  77.1809997
   6.1204283 101.5409383  77.4574298  16.6189992 113.6494990  93.1009997
  16.8189992 114.0734990  92.2659997  17.2749992 113.9934990  93.7079997
  16.7349916 113.7539784  93.0687890   4.2169992 106.1234990  92.7089997
   4.9489992 106.3784990  93.2699997   3.4369992 106.3284990  93.2239997
   4.2117684 106.1861457  92.8554774  10.2469992 101.5304990  85.4469997
  10.8109992 100.9844990  84.8999997  10.0989992 101.0094990  86.2359997
  10.3043037 101.3851798  85.4787212   5.2489992  97.6674990  81.8649997
   4.9309992  96.7644990  81.8299997   6.0299992  97.6694990  81.3129997
   5.3111560  97.5441148  81.7854975   8.8729992  99.9194990  87.8609997
   8.0379992 100.3734990  87.9709997   9.3969992 100.1954990  88.6129997
   8.8295070 100.0189677  87.9777134   9.4169992 106.1324990  79.5459997
   8.6719992 105.6244990  79.2229997   9.2829992 106.1814990  80.4919997
   9.2968633 106.0695714  79.6297563  16.5669992 105.2654990  88.3319997
  17.2089992 105.7214990  87.7889997  15.7369992 105.3784990  87.8699997
  16.5427352 105.3433223  88.1950234  13.3149992  98.9464990  77.7449997
  12.3759992  99.0574990  77.5939997  13.6119992  99.8024990  78.0509997
  13.2266371  99.0775327  77.7657362  10.9369992 106.3164990  90.7829997
  10.5909992 105.9344990  91.5889997  10.7369992 107.2494990  90.8539997
  10.8625400 106.3903489  90.9030401  14.0329992 100.8134990  79.4059997
  14.9249992 100.6754990  79.7249997  14.0899992 101.6044990  78.8689997
  14.1627380 100.9014777  79.3770981   4.5419992 105.4274990  85.3149997
   5.2869992 105.4244990  84.7139997   4.6199992 104.6034990  85.7969997
   4.6544158 105.3157928  85.2979136  11.5429992 107.5904990  78.5709997
  11.2479992 108.4174990  78.9529997  10.8399992 106.9714990  78.7669997
  11.4075855 107.6199458  78.6497634   1.5499992 103.8874990  90.6299997
   1.7729992 103.4694990  91.4619997   0.9479992 103.2754990  90.2079997
   1.4990802 103.7475216  90.6867561   8.5669992 103.4044990  92.8429997
   8.2709992 103.2394990  91.9479997   9.4979992 103.1844990  92.8329997
   8.6523909 103.3521274  92.7190110  13.1869992 108.7784990  90.7329997
  12.2859992 108.9614990  90.4649997  13.2209992 109.0374990  91.6539997
  13.0683021 108.8385505  90.8208206  18.9179992 101.0224990  79.0999997
  18.3639992 100.6264990  78.4279997  19.0189992 101.9334990  78.8229997
  18.8557084 101.0913565  78.9704381  18.8809992 106.8234990  91.9369997
  18.0299992 107.0614990  91.5699997  19.4719992 106.8064990  91.1839997
  18.8442468 106.8538251  91.7848902  17.2129992 109.8084990  79.5649997
  16.8409992 108.9834990  79.8749997  17.4909992 109.6254990  78.6679997
  17.1995997 109.6706160  79.4861551  14.3739992 104.6164990  86.5869997
  13.4459992 104.3854990  86.5599997  14.8249992 103.8394990  86.2569997
  14.3078165 104.4797785  86.5386772   6.9169992 108.9454990  82.7199997
   7.4439992 109.7184990  82.5189997   6.0369992 109.1694990  82.4179997
   6.8701793 109.0816652  82.6516304   8.3439992 106.6084990  82.2959997
   8.1029992 107.5334990  82.3379997   7.6039992 106.1494990  82.6919997
   8.2108934 106.6730881  82.3553191   8.8589992 110.7574990  88.6109997
   9.2219992 111.6114990  88.3779997   9.3909992 110.4654990  89.3519997
   8.9805141 110.8348907  88.6792079   7.0269992 111.6294990  81.8409997
   6.0779992 111.7354990  81.8929997   7.3789992 112.4504990  82.1859997
   6.9446214 111.7549361  81.8947317  12.4029992 106.8564990  88.3119997
  11.9769992 106.6284990  89.1379997  12.9839992 106.1174990  88.1289997
  12.4231587 106.7254084  88.4004111  14.6059992 107.7854990  77.3859997
  14.9589992 107.4054990  78.1899997  13.6569992 107.6914990  77.4719997
  14.5260985 107.7207330  77.5077738  15.0619992 111.4084990  90.7809997
  14.4599992 110.8524990  90.2859997  15.3429992 112.0754990  90.1549997
  15.0175757 111.4225755  90.6285657   3.1839992  98.6414990  90.1879997
   2.2909992  98.9794990  90.1209997   3.0849992  97.7854990  90.6059997
   3.0485241  98.5720941  90.2352982   2.8349992 110.4454990  88.6229997
   3.0519992 109.5134990  88.5919997   3.0819992 110.7204990  89.5069997
   2.8980543 110.3550877  88.7381412   7.6339992 108.4674990  78.2889997
   7.7809992 107.9474990  79.0789997   7.6309992 109.3744990  78.5949997
   7.6537300 108.5188975  78.4385877   4.0869992 105.7194990  78.7989997
   3.4009992 106.0724990  79.3659997   4.6099992 106.4824990  78.5529997
   4.0639033 105.8708757  78.8432644  11.9179992  98.3824990  89.0779997
  12.6169992  98.4564990  89.7279997  11.5379992  97.5174990  89.2329997
  11.9622095  98.2757402  89.1877982  12.7029992  98.0344990  80.1749997
  12.9229992  98.5054990  79.3719997  13.2609992  98.4284990  80.8459997
  12.8085851  98.1523272  80.1556134  10.3719992 110.1644990  79.0379997
   9.5549992 110.6614990  79.0909997  10.9009992 110.6404990  78.3979997
  10.3317898 110.2968123  78.9587274   9.9029992  99.7624990  81.0099997
  10.7149992 100.2664990  81.0559997   9.6579992  99.6174990  81.9239997
   9.9811091  99.8119366  81.1398552  10.4389992 100.7484990  90.1949997
  10.5579992 101.3224990  90.9519997  11.0939992 100.0604990  90.3099997
  10.5438684 100.7340205  90.3141656  10.7869992  96.8434990  81.9479997
  10.4399992  97.4604990  82.5929997  11.4449992  97.3444990  81.4669997
  10.8285290  96.9956384  81.9711635   7.7099992 111.2084990  79.0199997
   7.8709992 112.0084990  78.5189997   7.5129992 111.5154990  79.9049997
   7.7053919 111.3594140  79.0710988  16.6429992  98.6554990  91.0299997
  15.7269992  98.9174990  90.9419997  16.9789992  98.6524990  90.1329997
  16.5629789  98.6909637  90.8967829  15.2449992 102.4054990  85.1259997
  14.4479992 101.9904990  84.7969997  15.6899992 101.7154990  85.6169997
  15.1960317 102.2553197  85.1473556   4.7029992 108.3334990  77.6959997
   5.2949992 109.0334990  77.9719997   5.1619992 107.9004990  76.9769997
   4.8461172 108.3707371  77.6365163   3.0189992 100.9984990  76.8119997
   2.9739992 101.9374990  76.9909997   2.1309992 100.7624990  76.5419997
   2.8928472 101.0951946  76.8000282  16.3319992 111.6614990  86.7479997
  16.1759992 112.3404990  86.0909997  17.2639992 111.7334990  86.9509997
  16.4367328 111.7641586  86.6855529   3.8269992  95.7794990  85.4849997
   3.5979992  95.8384990  84.5579997   3.3839992  94.9884990  85.7919997
   3.7357387  95.6806412  85.3995223   2.7569992 109.7204990  81.6459997
   1.9249992 110.1924990  81.6729997   3.3029992 110.2304990  81.0469997
   2.7168710 109.8540317  81.5687570   2.0459992 112.3324990  92.9759997
   2.5859992 112.1164990  93.7349997   1.5639992 111.5274990  92.7859997
   2.0549101 112.1940216  93.0544364   6.6429992 111.2524990  94.5959997
   7.4109992 110.7934990  94.9369997   6.6219992 111.0264990  93.6659997
   6.7452135 111.1591680  94.5169473  13.2199992 109.6324990  93.3249997
  12.8689992 108.7754990  93.5679997  13.9459992 109.7744990  93.9319997
  13.2701590 109.5345189  93.4402889   1.9529992 106.1434990  93.9299997
   2.0969992 105.2414990  93.6439997   1.1799992 106.4294990  93.4419997
   1.8682854 106.0586876  93.8249363   8.6079992 106.1124990  93.3629997
   8.2799992 106.3834990  92.5049997   8.7599992 105.1714990  93.2749997
   8.5836970 106.0223694  93.2337953  14.3429992 106.0284990  90.7459997
  15.0879992 106.6174990  90.6259997  13.5849992 106.6104990  90.8089997
  14.3425185 106.1877000  90.7380940   2.7849992 103.3434990  93.3499997
   3.1929992 102.4864990  93.2289997   2.5249992 103.3574990  94.2709997
   2.8057082 103.2280596  93.4579469   6.7319992 102.3524990  90.7239997
   6.1139992 103.0264990  91.0049997   7.0759992 102.6734990  89.8909997
   6.6938181 102.4883233  90.6498266  11.7519992 104.8234990  94.0019997
  12.7049992 104.9074990  93.9739997  11.5919992 104.1114990  94.6209997
  11.8608161 104.7387198  94.0818689   7.0719992  99.7074990  91.8069997
   7.2219992  98.9784990  91.2039997   7.0739992 100.4844990  91.2479997
   7.0927664  99.7128971  91.6490525   7.4839992  98.0764990  89.2989997
   8.0199992  98.5284990  88.6469997   6.6319992  97.9684990  88.8769997
   7.4421648  98.1237883  89.1526395   9.0659992 103.5164990  89.5389997
   9.8169992 103.3604990  88.9659997   8.7269992 104.3684990  89.2629997
   9.1229052 103.6102745  89.4233469  13.4819992 101.3314990  94.5669997
  13.6739992 100.4004990  94.4559997  14.3389992 101.7564990  94.5569997
  13.6242320 101.2614743  94.5504433  14.7979992 104.1204990  92.6449997
  14.5169992 104.8294990  92.0669997  15.7409992 104.0474990  92.4939997
  14.8869272 104.2076704  92.5454976   5.5499992 100.9054990  93.7179997
   4.7829992 100.3724990  93.5079997   6.2289992 100.5954990  93.1189997
   5.5368292 100.7906360  93.6082693   8.2899992  95.5334990  89.7309997
   8.1919992  96.4794990  89.6249997   7.5469992  95.1604990  89.2549997
   8.1762363  95.6125987  89.6522029   9.5539992  99.8544990  93.2939997
   9.3179992  99.6354990  94.1959997   8.7709992  99.6474990  92.7849997
   9.4158444  99.7965688  93.3484518  12.2699992  98.9824990  92.3699997
  11.3219992  99.0144990  92.5019997  12.5819992  98.3564990  93.0239997
  12.1825293  98.9022934  92.4764130  13.9039992  97.6164990  94.3749997
  13.8069992  96.6644990  94.3689997  13.5819992  97.8844990  95.2359997
  13.8472229  97.5224706  94.4905108   3.7309992  98.8254990  93.4229997
   3.9419992  98.1194990  92.8119997   3.6189992  98.3884990  94.2669997
   3.7447674  98.6696376  93.4534199   8.5119992  94.8274990  92.4019997
   9.2229992  94.1874990  92.3879997   8.4109992  95.0934990  91.4879997
   8.5956732  94.7758451  92.2765475   8.8649992  96.5094990  94.4559997
   8.7339992  96.0344990  93.6349997   8.2659992  97.2544990  94.3999997
   8.7661524  96.5451968  94.3361553   1.9799992 108.0294990  77.1149997
   2.8939992 108.1084990  77.3879997   1.9869992 107.3424990  76.4479997
   2.1060769 107.9474735  77.0622366   0.6289992 113.4224990  82.1919997
  -0.0180008 112.9604990  81.6589997   0.9839992 112.7504990  82.7749997
   0.5883861 113.2684707  82.1977939   1.4989992 111.5024990  83.9969997
   1.1649992 110.6224990  84.1689997   1.7209992 111.8484990  84.8609997
   1.4832677 111.4287365  84.1374252  19.0479992 112.3124990  86.9769997
  19.0259992 112.4974990  87.9159997  19.7379992 112.8804990  86.6359997
  19.1383439 112.4146898  87.0594774  18.6109992 111.8794990  89.8989997
  18.1239992 111.1434990  89.5279997  19.1599992 111.4854990  90.5769997
  18.6186101 111.7256267  89.9399034  17.0619992 107.6694990  94.5369997
  16.1959992 107.5644990  94.9309997  17.4379992 108.4274990  94.9839997
  16.9943768 107.7576151  94.6513258  18.3629992 105.9254990  80.0509997
  19.2129992 106.3464990  80.1789997  18.3679992 105.1854990  80.6589997
  18.4799745 105.8831347  80.1506479  18.7569992 103.9794990  81.8749997
  18.0309992 103.4994990  82.2729997  19.3379992 104.1844990  82.6069997
  18.7362504 103.9415592  82.0284199  18.5159992 106.7644990  86.8229997
  19.3499992 106.3864990  86.5419997  18.6279992 107.7074990  86.7039997
  18.6451917 106.8402954  86.7684844  17.0019992 109.6424990  89.1299997
  16.3549992 109.9674990  89.7549997  16.4849992 109.2014990  88.4549997
  16.8434068 109.6274726  89.1244918  19.0249992 103.8804990  78.2659997
  18.5039992 104.2364990  77.5469997  18.9919992 104.5554990  78.9439997
  18.9491525 104.0205273  78.2591408  16.5439992 102.5004990  82.4379997
  16.3939992 101.5554990  82.4179997  16.1899992 102.7814990  83.2819997
  16.4756351 102.4091656  82.5493202   1.5789992 104.5784990  86.4479997
   1.7629992 104.4964990  85.5129997   2.4279992 104.4544990  86.8719997
   1.7190259 104.5504915  86.3771771  17.3999992 104.4704990  92.0769997
  17.9829992 103.7354990  92.2679997  17.9639992 105.2424990  92.1229997
  17.5560326 104.4742746  92.1093579  18.8969992 102.3734990  92.7609997
  18.0329992 101.9944990  92.5959997  19.5009992 101.6344990  92.6869997
  18.8604912 102.2217937  92.7284360  16.2539992 100.0824990  80.8999997
  16.5339992  99.1754990  81.0249997  17.0129992 100.5164990  80.5109997
  16.3949471 100.0170654  80.8645052  16.8659992 100.6644990  86.3359997
  17.7989992 100.8764990  86.3019997  16.6309992 100.7654990  87.2589997
  16.9618357 100.7071303  86.4560232  16.8949992 101.4014990  89.1119997
  16.0519992 101.6694990  89.4779997  17.3379992 102.2234990  88.9009997
  16.8394358 101.5493294  89.1335999   1.1759992  99.8484990  92.5889997
   2.0959992  99.7264990  92.8249997   0.7269992  99.0984990  92.9779997
   1.2411561  99.7303720  92.6739015  19.1779992  95.3814990  94.4659997
  19.5279992  94.7274990  93.8599997  19.3249992  96.2184990  94.0259997
  19.2457192  95.4052545  94.3236712  16.8679992  97.3454990  80.9489997
  17.0499992  96.8964990  81.7739997  16.2679992  96.7614990  80.4849997
  16.8118187  97.2050563  80.9992721   2.3979992  98.1614990  85.4799997
   2.8429992  97.3694990  85.7819997   2.8639992  98.8774990  85.9109997
   2.5219059  98.1499485  85.5796061   0.7019992 101.1604990  86.5489997
   1.1939992 100.9394990  85.7589997   1.0639992 102.0004990  86.8299997
   0.8183429 101.2438220  86.4787918  18.6979992  97.4904990  92.8149997
  17.7809992  97.7614990  92.7789997  18.8209992  96.9554990  92.0309997
  18.5890828  97.4552711  92.7040767   1.0149992  97.4184990  80.6039997
   0.0899992  97.6264990  80.4739997   1.4689992  97.9024990  79.9139997
   0.9497401  97.5123895  80.4929433  15.7859992 112.4024990  82.5489997
  16.4379992 112.0544990  81.9409997  16.2969992 112.8904990  83.1949997
  15.9442872 112.4208248  82.5530964   0.9789992  96.1564990  88.9479997
   0.3139992  95.9104990  89.5909997   0.5359992  96.7784990  88.3709997
   0.8281168  96.2069225  88.9579830   3.1709992 109.3314990  93.0919997
   2.3499992 109.5064990  92.6319997   2.9189992 109.2584990  94.0129997
   3.0246173 109.3455806  93.1534954   6.1249992 110.3054990  89.3509997
   5.6999992 111.1154990  89.0679997   7.0289992 110.3914990  89.0489997
   6.1891002 110.4278728  89.2714798  10.4359992 111.7044990  92.3099997
  10.6209992 111.3714990  93.1879997  11.2829992 112.0144990  91.9879997
  10.5757291 111.7008214  92.3866140  12.7809992 112.9904990  91.5539997
  13.4579992 112.3574990  91.3139997  13.1029992 113.3914990  92.3619997
  12.9171280 112.9580638  91.6303190  17.6989992  95.5804990  90.6339997
  16.8859992  95.9054990  90.2459997  17.9319992  94.8194990  90.1009997
  17.6192566  95.5221570  90.5089196   3.5269992 113.5624990  89.3979997
   2.8059992 114.0024990  88.9469997   3.1609992 113.3114990  90.2469997
   3.3789785 113.5887691  89.4509849   5.9939992 113.1624990  88.4279997
   5.1289992 113.2344990  88.8319997   5.9389992 113.7094990  87.6439997
   5.8682066 113.2462678  88.3773371  10.7049992 113.0504990  87.6039997
  10.2479992 113.5794990  86.9499997  10.8669992 113.6534990  88.3289997
  10.6643919 113.2043990  87.6125740  13.0319992 111.9284990  88.5489997
  12.1279992 112.0934990  88.2829997  13.4609992 112.7814990  88.4829997
  12.9662017 112.0664184  88.5036495  15.6359992 113.4984990  88.8439997
  15.4549992 114.4144990  88.6329997  15.8129992 113.0874990  87.9969997
  15.6351377 113.5683365  88.7007178   2.9419992 112.1854990  86.3089997
   2.9229992 111.7594990  87.1659997   3.7459992 111.8664990  85.8999997
   3.0481393 112.0840297  86.3710155   5.0829992 110.8954990  84.9639997
   4.8639992 109.9784990  85.1329997   5.9069992 111.0354990  85.4299997
   5.1644637 110.7889586  85.0501414   7.6199992 111.3654990  85.8119997
   7.8329992 110.4774990  85.5249997   7.6849992 111.3304990  86.7669997
   7.6579075 111.2393318  85.9017355  11.1289992  97.0294990  84.9569997
  10.4539992  96.3994990  85.2119997  11.6929992  96.5454990  84.3539997
  11.1129558  96.8779283  84.9103451  16.2709992  95.1364990  85.0689997
  16.8749992  95.6844990  84.5679997  15.4019992  95.4554990  84.8289997
  16.2361126  95.2547070  84.9679180  17.9979992  96.2754990  83.4029997
  18.6099992  95.7614990  82.8759997  18.3809992  97.1524990  83.4259997
  18.1333867  96.3237613  83.3340888   3.4549992  95.6634990  82.7789997
   2.6779992  95.4284990  82.2709997   3.9859992  94.8664990  82.7879997
   3.4204443  95.5236721  82.7107200   2.2919992  95.4614990  78.5819997
   2.7309992  96.0724990  77.9909997   1.6579992  95.9994990  79.0559997
   2.2664103  95.6179233  78.5651376   8.0349992  95.5894990  82.5919997
   8.9089992  95.9784990  82.5619997   7.8989992  95.3744990  83.5149997
   8.1363125  95.6137120  82.7126523  13.5909992  95.6194990  84.2409997
  13.6679992  95.7154990  83.2919997  13.3159992  94.7124990  84.3699997
  13.5643407  95.5099188  84.1283532  14.9449992  95.6454990  79.9339997
  14.2419992  96.2604990  79.7239997  14.4999992  94.8084990  80.0649997
  14.7886550  95.6164679  79.9229819   2.1929992 111.4094990  79.4799997
   1.5079992 111.3714990  78.8119997   2.1959992 112.3214990  79.7679997
   2.0997358 111.5276744  79.4276145   9.1789992  97.6704990  79.4819997
   9.3569992  97.0234990  80.1649997   9.1249992  98.5044990  79.9489997
   9.1960678  97.6946615  79.6386283  17.7659992 112.1814990  80.5569997
  17.5719992 111.4334990  79.9919997  17.7269992 112.9394990  79.9729997
  17.7341907 112.1815770  80.4008077   3.4129992  96.1774990  92.2959997
   3.0469992  95.4114990  92.7389997   4.3259992  96.2064990  92.5829997
   3.4863225  96.0766917  92.3953441   5.3859992  95.5274990  93.8319997
   6.2849992  95.2534990  93.6469997   4.9999992  94.7854990  94.2959997
   5.4567237  95.3896520  93.8694693   4.0109992 112.3294990  76.5049997
   3.7429992 112.6154990  77.3779997   4.7819992 111.7834990  76.6569997
   4.0785600 112.2948341  76.6451482  13.8069992  94.8604990  94.0139997
  13.8839992  94.4344990  94.8679997  14.7009992  94.8734990  93.6719997
  13.9383315  94.8040320  94.0845052  16.9839992 110.9324990  92.7069997
  16.2019992 110.7464990  92.1869997  16.9119992 111.8624990  92.9239997
  16.8672975 111.0326973  92.6651822  31.3899992 104.8194990  82.7369997
  31.4789992 105.7634990  82.6049997  30.7509992 104.5444990  82.0789997
  31.3158319 104.9114984  82.6300276  30.3229992 104.0744990  86.1559997
  30.2839992 103.4284990  86.8609997  29.9999992 103.6074990  85.3849997
  30.2740199 103.9230089  86.1482865  22.6909992 103.6884990  87.7489997
  22.7319992 103.0634990  88.4729997  23.3939992 104.3124990  87.9309997
  22.7916054 103.6873262  87.8726311  34.0289992 107.0134990  84.4579997
  33.5879992 106.2934990  84.9079997  34.0159992 107.7344990  85.0879997
  33.9668398 107.0123187  84.6047734  23.6149992 108.1384990  86.2839997
  23.2449992 107.3364990  85.9149997  24.5559992 107.9704990  86.3309997
  23.6915630 108.0058680  86.2397873  20.2249992 101.7984990  81.6769997
  19.7769992 102.6444990  81.6589997  19.6639992 101.2194990  81.1619997
  20.0878546 101.8359004  81.6048874  20.9349992 103.9604990  83.8029997
  21.1489992 103.1904990  84.3299997  21.6729992 104.0504990  83.1999997
  21.0640073 103.8673546  83.7935786  31.1399992 112.1174990  84.6699997
  31.7599992 111.4414990  84.3969997  30.9319992 111.8994990  85.5779997
  31.1967360 111.9954792  84.7554387  28.7119992 106.5064990  86.5619997
  29.0159992 105.8204990  85.9679997  29.4339992 106.6254990  87.1799997
  28.8511152 106.4287201  86.5642106  37.3749992  98.1084990  87.4229997
  37.4239992  98.7184990  88.1589997  37.8009992  98.5694990  86.6999997
  37.4392851  98.2543266  87.4260532  31.8529992 100.9004990  86.8899997
  31.9949992  99.9544990  86.9099997  31.7469992 101.1074990  85.9609997
  31.8581158 100.7989722  86.7672241  25.0079992  99.0024990  84.1619997
  25.0509992  99.8624990  83.7439997  24.5499992  98.4494990  83.5289997
  24.9519613  99.0455689  84.0191276  32.7299992  99.1334990  82.5629997
  33.3759992  98.8044990  83.1879997  33.2399992  99.6504990  81.9399997
  32.8874392  99.1583710  82.5643248  21.6279992 101.3994990  84.9239997
  22.2819992 100.8494990  85.3559997  21.6519992 101.1254990  84.0079997
  21.7207022 101.2872005  84.8591698  26.7839992 102.9494990  84.1399997
  27.3999992 102.4224990  84.6489997  26.1979992 102.3094990  83.7359997
  26.7890652 102.7908919  84.1550277  37.7669992  99.5864990  89.6589997
  37.0779992 100.2444990  89.5639997  37.7819992  99.3884990  90.5959997
  37.6747756  99.6497614  89.7725795  23.8179992  97.9204990  88.2359997
  23.5989992  98.4504990  87.4699997  23.1499992  98.1464990  88.8839997
  23.6977271  98.0236508  88.2186206  31.1869992 107.4204990  81.7799997
  30.8909992 107.0974990  80.9289997  30.8629992 108.3204990  81.8219997
  31.1026501 107.4979058  81.6690893  26.3869992 105.5954990  88.5239997
  25.6469992 106.1944990  88.6269997  27.1009992 106.1494990  88.2079997
  26.3823288 105.7522368  88.4953787  34.4939992  98.4244990  84.5439997
  34.2789992  97.6584990  85.0759997  35.1499992  98.8964990  85.0569997
  34.5532451  98.3834472  84.6861699  23.4119992  99.8124990  86.1889997
  24.0249992 100.4454990  86.5619997  23.9239992  99.3404990  85.5319997
  23.5651680  99.8354006  86.1512830  24.7939992 107.5604990  89.3109997
  24.7889992 108.4394990  88.9329997  23.9409992 107.4764990  89.7359997
  24.6779199 107.6695901  89.3166942  20.9159992 107.2314990  80.0929997
  20.6439992 107.4604990  79.2039997  20.9609992 108.0684990  80.5529997
  20.8848709 107.3761069  80.0336089  34.5409992 108.8524990  86.8059997
  33.5989992 108.9114990  86.9669997  34.8169992 109.7584990  86.6689997
  34.4495771 108.9830270  86.8094827  34.8409992  97.1394990  88.2229997
  34.1049992  97.7494990  88.1849997  35.5249992  97.5544990  87.6969997
  34.8325885  97.2791924  88.1466931  27.8439992  95.2254990  85.6889997
  27.7269992  94.2774990  85.6349997  26.9889992  95.5584990  85.9619997
  27.7123691  95.1405842  85.7185072  32.7929992 110.6334990  83.4309997
  33.2179992 109.9264990  82.9459997  33.1099992 111.4354990  83.0139997
  32.8940266 110.6450201  83.3082461  33.9519992 108.5344990  81.9399997
  33.6949992 107.8444990  81.3279997  34.0229992 108.0914990  82.7849997
  33.9264322 108.3801568  81.9705372  35.6379992 107.1014990  90.4169997
  35.7779992 106.5094990  89.6779997  35.8059992 107.9744990  90.0609997
  35.6798734 107.1384041  90.2676937  37.4799992 103.4414990  88.4829997
  36.8279992 104.1354990  88.5719997  37.9449992 103.6514990  87.6729997
  37.4535357 103.5649544  88.3857056  33.5169992 104.2724990  81.1409997
  32.7849992 104.5014990  81.7139997  33.9639992 103.5594990  81.5959997
  33.4772753 104.2073984  81.2809698  33.4139992 102.4474990  90.2089997
  33.4939992 103.2104990  90.7809997  32.8129992 102.7264990  89.5179997
  33.3437115 102.5897707  90.1939631  25.1619992 104.9034990  83.0239997
  24.8319992 104.5324990  82.2049997  25.7499992 104.2324990  83.3699997
  25.1964056 104.7621257  82.9589035  26.5289992 108.3314990  85.7049997
  26.4339992 107.7524990  84.9479997  27.2579992 107.9604990  86.2009997
  26.6146161 108.2020902  85.6685191  25.5289992 103.6714990  86.6569997
  26.0939992 103.7934990  85.8939997  25.8469992 104.3094990  87.2959997
  25.6493430 103.7744448  86.6389094  31.8379992 109.1754990  87.3909997
  31.5969992 109.8374990  88.0389997  31.6399992 108.3404990  87.8159997
  31.7782662 109.1532704  87.5371008  26.4089992 108.0714990  91.3739997
  26.0969992 108.8534990  91.8299997  25.7589992 107.9184990  90.6879997
  26.2784643 108.1578019  91.3436657  23.3289992 104.2694990  90.6029997
  23.3989992 104.9204990  91.3009997  22.4379992 104.3724990  90.2679997
  23.2181802 104.3724769  90.6532231  30.1139992 110.1714990  82.2619997
  30.5879992 110.4674990  83.0389997  29.5509992 110.9104990  82.0279997
  30.1028460 110.3118336  82.3367626  24.6479992 110.1424990  92.1379997
  24.6559992 110.0064990  91.1899997  23.7319992 110.0254990  92.3899997
  24.5252512 110.1080664  92.0423179  36.0859992  95.1854990  78.6389997
  35.1859992  95.3234990  78.9339997  36.3379992  96.0164990  78.2369997
  35.9967355  95.3168200  78.6250539  24.1519992 103.9724990  80.6129997
  23.8599992 104.7404990  80.1219997  23.4779992 103.3134990  80.4499997
  24.0208843 103.9884537  80.5237695  20.2449992 106.3354990  89.4279997
  19.7439992 106.3074990  88.6129997  20.2509992 105.4304990  89.7379997
  20.1771690 106.2092234  89.3582770  19.9959992 109.1164990  86.3119997
  20.9419992 108.9714990  86.2929997  19.8829992 109.9004990  86.8489997
  20.1103578 109.2026708  86.3820300  38.1929992 109.7824990  91.9939997
  38.1439992 108.8264990  91.9569997  37.3669992 110.0494990  92.3959997
  38.0745767 109.6878841  92.0433133  29.1719992 109.3564990  90.8699997
  29.2589992 110.1824990  91.3449997  28.3079992 109.0264990  91.1189997
  29.0671944 109.4249871  90.9686558  29.5859992 113.1284990  80.6759997
  29.5109992 113.0074990  79.7299997  29.6189992 114.0774990  80.7949997
  29.5801862 113.2402492  80.5624840  23.2399992 111.9174990  82.4569997
  23.3919992 111.5694990  83.3359997  22.3889992 111.5604990  82.2019997
  23.1457899 111.8216749  82.5427322  32.6879992 112.2824990  77.6789997
  33.0629992 111.5384990  77.2079997  32.6919992 112.0124990  78.5969997
  32.7398969 112.1440920  77.7386475  32.3569992 112.2084990  80.4279997
  31.4219992 112.3084990  80.6069997  32.6369992 111.4984990  81.0059997
  32.2669270 112.1262300  80.5305984  35.3449992 101.2754990  92.4739997
  34.9379992 101.7554990  91.7539997  35.3859992 100.3694990  92.1669997
  35.2947178 101.2188609  92.3337441  22.4939992 107.6594990  90.4709997
  22.7099992 107.2974990  91.3309997  21.6389992 107.2844990  90.2609997
  22.4079349 107.5592914  90.5602134  25.1129992  96.1294990  86.4669997
  24.2509992  96.0424990  86.0589997  25.0909992  96.9854990  86.8939997
  24.9920953  96.2333558  86.4689262  29.7759992  95.8514990  89.8409997
  30.1959992  95.4364990  90.5939997  28.8429992  95.6724990  89.9579997
  29.7073736  95.7704921  89.9598950  33.1019992  99.6064990  90.6949997
  32.5879992  99.4814990  91.4919997  32.9469992 100.5194990  90.4499997
  33.0106643  99.7127068  90.7710624  33.8649992 104.4674990  76.4559997
  33.9069992 104.2454990  75.5259997  34.7139992 104.8664990  76.6459997
  33.9855253 104.4910510  76.3543804  29.4379992  98.3434990  77.1259997
  29.1839992  98.3624990  78.0489997  29.1809992  97.4724990  76.8249997
  29.3685133  98.2283121  77.2115065  25.2039992 101.0944990  87.5619997
  24.5619992 101.0544990  88.2709997  25.2409992 102.0214990  87.3239997
  25.1211659 101.2142540  87.6268463  25.2009992 101.3154990  82.4739997
  24.3079992 100.9754990  82.4149997  25.6519992 100.9384990  81.7179997
  25.1397185 101.2180220  82.3637698  30.7369992 101.7314990  81.2909997
  30.3279992 102.5464990  80.9989997  31.4569992 101.5914990  80.6759997
  30.7783946 101.8239963  81.1679616  29.8389992 101.9074990  92.7789997
  29.2759992 101.2024990  93.0989997  30.6649992 101.7864990  93.2459997
  29.8736423 101.7945614  92.8860168  31.7409992 101.1774990  84.1049997
  31.5459992 101.7834990  83.3899997  31.9229992 100.3444990  83.6699997
  31.7389272 101.1477955  83.9484075  22.9539992 101.4154990  89.4289997
  22.9159992 101.8154990  90.2969997  22.4629992 100.5984990  89.5189997
  22.8824246 101.3598842  89.5601171  19.5619992  98.5314990  83.2789997
  20.1929992  98.5024990  83.9989997  20.0119992  98.1064990  82.5489997
  19.7090905  98.4700839  83.2787479  31.0049992 102.8154990  88.7759997
  31.3289992 102.1844990  88.1329997  30.5649992 102.2814990  89.4369997
  30.9898707 102.6568261  88.7773195  27.7829992  98.7434990  83.5599997
  26.8719992  98.8004990  83.8489997  28.2879992  98.6834990  84.3709997
  27.7266873  98.7431838  83.7091190  22.6109992 100.3724990  82.3869997
  21.7219992 100.4714990  82.0469997  22.9069992  99.5304990  82.0409997
  22.5294001 100.2722473  82.2937318  26.2639992 100.3724990  80.0429997
  27.1959992 100.5014990  80.2209997  26.0489992 101.0414990  79.3939997
  26.3624245 100.4806452  79.9795602  32.1879992  97.9784990  86.8239997
  31.5109992  98.1094990  87.4879997  31.7019992  97.8234990  86.0139997
  32.0297265  97.9754665  86.8053380  24.9379992 101.5664990  77.6099997
  24.3959992 101.1874990  76.9189997  25.7719992 101.7614990  77.1809997
  24.9764283 101.5409383  77.4574298  35.4749992 113.6494990  93.1009997
  35.6749992 114.0734990  92.2659997  36.1309992 113.9934990  93.7079997
  35.5909916 113.7539784  93.0687890  23.0729992 106.1234990  92.7089997
  23.8049992 106.3784990  93.2699997  22.2929992 106.3284990  93.2239997
  23.0677684 106.1861457  92.8554774  29.1029992 101.5304990  85.4469997
  29.6669992 100.9844990  84.8999997  28.9549992 101.0094990  86.2359997
  29.1603037 101.3851798  85.4787212  24.1049992  97.6674990  81.8649997
  23.7869992  96.7644990  81.8299997  24.8859992  97.6694990  81.3129997
  24.1671560  97.5441148  81.7854975  27.7289992  99.9194990  87.8609997
  26.8939992 100.3734990  87.9709997  28.2529992 100.1954990  88.6129997
  27.6855070 100.0189677  87.9777134  28.2729992 106.1324990  79.5459997
  27.5279992 105.6244990  79.2229997  28.1389992 106.1814990  80.4919997
  28.1528633 106.0695714  79.6297563  35.4229992 105.2654990  88.3319997
  36.0649992 105.7214990  87.7889997  34.5929992 105.3784990  87.8699997
  35.3987352 105.3433223  88.1950234  32.1709992  98.9464990  77.7449997
  31.2319992  99.0574990  77.5939997  32.4679992  99.8024990  78.0509997
  32.0826371  99.0775327  77.7657362  29.7929992 106.3164990  90.7829997
  29.4469992 105.9344990  91.5889997  29.5929992 107.2494990  90.8539997
  29.7185400 106.3903489  90.9030401  32.8889992 100.8134990  79.4059997
  33.7809992 100.6754990  79.7249997  32.9459992 101.6044990  78.8689997
  33.0187380 100.9014777  79.3770981  23.3979992 105.4274990  85.3149997
  24.1429992 105.4244990  84.7139997  23.4759992 104.6034990  85.7969997
  23.5104158 105.3157928  85.2979136  30.3989992 107.5904990  78.5709997
  30.1039992 108.4174990  78.9529997  29.6959992 106.9714990  78.7669997
  30.2635855 107.6199458  78.6497634  20.4059992 103.8874990  90.6299997
  20.6289992 103.4694990  91.4619997  19.8039992 103.2754990  90.2079997
  20.3550802 103.7475216  90.6867561  27.4229992 103.4044990  92.8429997
  27.1269992 103.2394990  91.9479997  28.3539992 103.1844990  92.8329997
  27.5083909 103.3521274  92.7190110  32.0429992 108.7784990  90.7329997
  31.1419992 108.9614990  90.4649997  32.0769992 109.0374990  91.6539997
  31.9243021 108.8385505  90.8208206  37.7369992 106.8234990  91.9369997
  36.8859992 107.0614990  91.5699997  38.3279992 106.8064990  91.1839997
  37.7002468 106.8538251  91.7848902  33.2299992 104.6164990  86.5869997
  32.3019992 104.3854990  86.5599997  33.6809992 103.8394990  86.2569997
  33.1638165 104.4797785  86.5386772  25.7729992 108.9454990  82.7199997
  26.2999992 109.7184990  82.5189997  24.8929992 109.1694990  82.4179997
  25.7261793 109.0816652  82.6516304  27.1999992 106.6084990  82.2959997
  26.9589992 107.5334990  82.3379997  26.4599992 106.1494990  82.6919997
  27.0668934 106.6730881  82.3553191  27.7149992 110.7574990  88.6109997
  28.0779992 111.6114990  88.3779997  28.2469992 110.4654990  89.3519997
  27.8365141 110.8348907  88.6792079  25.8829992 111.6294990  81.8409997
  24.9339992 111.7354990  81.8929997  26.2349992 112.4504990  82.1859997
  25.8006214 111.7549361  81.8947317  31.2589992 106.8564990  88.3119997
  30.8329992 106.6284990  89.1379997  31.8399992 106.1174990  88.1289997
  31.2791587 106.7254084  88.4004111  33.9179992 111.4084990  90.7809997
  33.3159992 110.8524990  90.2859997  34.1989992 112.0754990  90.1549997
  33.8735757 111.4225755  90.6285657  22.0399992  98.6414990  90.1879997
  21.1469992  98.9794990  90.1209997  21.9409992  97.7854990  90.6059997
  21.9045241  98.5720941  90.2352982  34.3279992 106.4574990  79.6119997
  34.0509992 105.7294990  80.1679997  35.2549992 106.5764990  79.8179997
  34.4154181 106.3740068  79.7158972  21.6909992 110.4454990  88.6229997
  21.9079992 109.5134990  88.5919997  21.9379992 110.7204990  89.5069997
  21.7540543 110.3550877  88.7381412  27.5529992 108.8974990  75.8329997
  27.7919992 108.1484990  75.2849997  27.2839992 108.5094990  76.6649997
  27.5492804 108.7426524  75.8706352  26.4899992 108.4674990  78.2889997
  26.6369992 107.9474990  79.0789997  26.4869992 109.3744990  78.5949997
  26.5097300 108.5188975  78.4385877  30.7739992  98.3824990  89.0779997
  31.4729992  98.4564990  89.7279997  30.3939992  97.5174990  89.2329997
  30.8182095  98.2757402  89.1877982  31.5589992  98.0344990  80.1749997
  31.7789992  98.5054990  79.3719997  32.1169992  98.4284990  80.8459997
  31.6645851  98.1523272  80.1556134  29.2279992 110.1644990  79.0379997
  28.4109992 110.6614990  79.0909997  29.7569992 110.6404990  78.3979997
  29.1877898 110.2968123  78.9587274  28.7589992  99.7624990  81.0099997
  29.5709992 100.2664990  81.0559997  28.5139992  99.6174990  81.9239997
  28.8371091  99.8119366  81.1398552  29.2949992 100.7484990  90.1949997
  29.4139992 101.3224990  90.9519997  29.9499992 100.0604990  90.3099997
  29.3998684 100.7340205  90.3141656  29.6429992  96.8434990  81.9479997
  29.2959992  97.4604990  82.5929997  30.3009992  97.3444990  81.4669997
  29.6845290  96.9956384  81.9711635  26.5659992 111.2084990  79.0199997
  26.7269992 112.0084990  78.5189997  26.3689992 111.5154990  79.9049997
  26.5613919 111.3594140  79.0710988  35.4989992  98.6554990  91.0299997
  34.5829992  98.9174990  90.9419997  35.8349992  98.6524990  90.1329997
  35.4189789  98.6909637  90.8967829  34.1009992 102.4054990  85.1259997
  33.3039992 101.9904990  84.7969997  34.5459992 101.7154990  85.6169997
  34.0520317 102.2553197  85.1473557  35.1879992 111.6614990  86.7479997
  35.0319992 112.3404990  86.0909997  36.1199992 111.7334990  86.9509997
  35.2927328 111.7641586  86.6855529  22.6829992  95.7794990  85.4849997
  22.4539992  95.8384990  84.5579997  22.2399992  94.9884990  85.7919997
  22.5917387  95.6806412  85.3995223  21.6129992 109.7204990  81.6459997
  20.7809992 110.1924990  81.6729997  22.1589992 110.2304990  81.0469997
  21.5728710 109.8540317  81.5687570  20.9019992 112.3324990  92.9759997
  21.4419992 112.1164990  93.7349997  20.4199992 111.5274990  92.7859997
  20.9109101 112.1940216  93.0544364  25.4989992 111.2524990  94.5959997
  26.2669992 110.7934990  94.9369997  25.4779992 111.0264990  93.6659997
  25.6012135 111.1591680  94.5169473  32.0759992 109.6324990  93.3249997
  31.7249992 108.7754990  93.5679997  32.8019992 109.7744990  93.9319997
  32.1261590 109.5345189  93.4402889  20.8089992 106.1434990  93.9299997
  20.9529992 105.2414990  93.6439997  20.0359992 106.4294990  93.4419997
  20.7242854 106.0586876  93.8249363  27.4639992 106.1124990  93.3629997
  27.1359992 106.3834990  92.5049997  27.6159992 105.1714990  93.2749997
  27.4396970 106.0223694  93.2337953  33.1989992 106.0284990  90.7459997
  33.9439992 106.6174990  90.6259997  32.4409992 106.6104990  90.8089997
  33.1985185 106.1877000  90.7380940  21.6409992 103.3434990  93.3499997
  22.0489992 102.4864990  93.2289997  21.3809992 103.3574990  94.2709997
  21.6617082 103.2280596  93.4579469  26.2989992 104.4594990  78.3679997
  25.8399992 103.9754990  79.0539997  26.5539992 103.7904990  77.7319997
  26.2706178 104.3028511  78.3759785  25.5879992 102.3524990  90.7239997
  24.9699992 103.0264990  91.0049997  25.9319992 102.6734990  89.8909997
  25.5498181 102.4883233  90.6498266  30.6079992 104.8234990  94.0019997
  31.5609992 104.9074990  93.9739997  30.4479992 104.1114990  94.6209997
  30.7168161 104.7387198  94.0818689  36.7599992 105.0564990  76.0759997
  36.4869992 104.6324990  75.2629997  36.7999992 105.9884990  75.8589997
  36.7280201 105.1243523  75.9353548  25.9279992  99.7074990  91.8069997
  26.0779992  98.9784990  91.2039997  25.9299992 100.4844990  91.2479997
  25.9487664  99.7128971  91.6490525  26.3399992  98.0764990  89.2989997
  26.8759992  98.5284990  88.6469997  25.4879992  97.9684990  88.8769997
  26.2981648  98.1237883  89.1526395  27.9219992 103.5164990  89.5389997
  28.6729992 103.3604990  88.9659997  27.5829992 104.3684990  89.2629997
  27.9789052 103.6102745  89.4233469  32.3379992 101.3314990  94.5669997
  32.5299992 100.4004990  94.4559997  33.1949992 101.7564990  94.5569997
  32.4802320 101.2614743  94.5504433  33.6539992 104.1204990  92.6449997
  33.3729992 104.8294990  92.0669997  34.5969992 104.0474990  92.4939997
  33.7429272 104.2076704  92.5454976  24.4059992 100.9054990  93.7179997
  23.6389992 100.3724990  93.5079997  25.0849992 100.5954990  93.1189997
  24.3928292 100.7906360  93.6082693  27.1459992  95.5334990  89.7309997
  27.0479992  96.4794990  89.6249997  26.4029992  95.1604990  89.2549997
  27.0322363  95.6125987  89.6522029  28.4099992  99.8544990  93.2939997
  28.1739992  99.6354990  94.1959997  27.6269992  99.6474990  92.7849997
  28.2718444  99.7965688  93.3484518  31.1259992  98.9824990  92.3699997
  30.1779992  99.0144990  92.5019997  31.4379992  98.3564990  93.0239997
  31.0385293  98.9022934  92.4764130  32.7599992  97.6164990  94.3749997
  32.6629992  96.6644990  94.3689997  32.4379992  97.8844990  95.2359997
  32.7032229  97.5224706  94.4905108  22.5869992  98.8254990  93.4229997
  22.7979992  98.1194990  92.8119997  22.4749992  98.3884990  94.2669997
  22.6007674  98.6696376  93.4534199  27.3679992  94.8274990  92.4019997
  28.0789992  94.1874990  92.3879997  27.2669992  95.0934990  91.4879997
  27.4516732  94.7758451  92.2765475  27.7209992  96.5094990  94.4559997
  27.5899992  96.0344990  93.6349997  27.1219992  97.2544990  94.3999997
  27.6221524  96.5451968  94.3361553  19.4849992 113.4224990  82.1919997
  18.8379992 112.9604990  81.6589997  19.8399992 112.7504990  82.7749997
  19.4443861 113.2684707  82.1977939  20.3549992 111.5024990  83.9969997
  20.0209992 110.6224990  84.1689997  20.5769992 111.8484990  84.8609997
  20.3392677 111.4287365  84.1374252  37.9039992 112.3124990  86.9769997
  37.8819992 112.4974990  87.9159997  38.5939992 112.8804990  86.6359997
  37.9943439 112.4146898  87.0594774  37.4669992 111.8794990  89.8989997
  36.9799992 111.1434990  89.5279997  38.0159992 111.4854990  90.5769997
  37.4746101 111.7256267  89.9399034  35.9179992 107.6694990  94.5369997
  35.0519992 107.5644990  94.9309997  36.2939992 108.4274990  94.9839997
  35.8503768 107.7576151  94.6513258  37.2189992 105.9254990  80.0509997
  38.0689992 106.3464990  80.1789997  37.2239992 105.1854990  80.6589997
  37.3359745 105.8831347  80.1506479  37.6129992 103.9794990  81.8749997
  36.8869992 103.4994990  82.2729997  38.1939992 104.1844990  82.6069997
  37.5922504 103.9415592  82.0284199  37.3719992 106.7644990  86.8229997
  38.2059992 106.3864990  86.5419997  37.4839992 107.7074990  86.7039997
  37.5011917 106.8402954  86.7684844  35.8579992 109.6424990  89.1299997
  35.2109992 109.9674990  89.7549997  35.3409992 109.2014990  88.4549997
  35.6994068 109.6274726  89.1244918  35.3999992 102.5004990  82.4379997
  35.2499992 101.5554990  82.4179997  35.0459992 102.7814990  83.2819997
  35.3316351 102.4091656  82.5493202  20.4349992 104.5784990  86.4479997
  20.6189992 104.4964990  85.5129997  21.2839992 104.4544990  86.8719997
  20.5750259 104.5504915  86.3771771  36.2559992 104.4704990  92.0769997
  36.8389992 103.7354990  92.2679997  36.8199992 105.2424990  92.1229997
  36.4120326 104.4742746  92.1093579  37.7529992 102.3734990  92.7609997
  36.8889992 101.9944990  92.5959997  38.3569992 101.6344990  92.6869997
  37.7164912 102.2217937  92.7284360  35.1099992 100.0824990  80.8999997
  35.3899992  99.1754990  81.0249997  35.8689992 100.5164990  80.5109997
  35.2509471 100.0170654  80.8645052  35.7219992 100.6644990  86.3359997
  36.6549992 100.8764990  86.3019997  35.4869992 100.7654990  87.2589997
  35.8178357 100.7071303  86.4560232  35.7509992 101.4014990  89.1119997
  34.9079992 101.6694990  89.4779997  36.1939992 102.2234990  88.9009997
  35.6954358 101.5493294  89.1335999  20.0319992  99.8484990  92.5889997
  20.9519992  99.7264990  92.8249997  19.5829992  99.0984990  92.9779997
  20.0971561  99.7303720  92.6739015  38.0339992  95.3814990  94.4659997
  38.3839992  94.7274990  93.8599997  38.1809992  96.2184990  94.0259997
  38.1017192  95.4052545  94.3236712  35.7239992  97.3454990  80.9489997
  35.9059992  96.8964990  81.7739997  35.1239992  96.7614990  80.4849997
  35.6678187  97.2050563  80.9992721  21.2539992  98.1614990  85.4799997
  21.6989992  97.3694990  85.7819997  21.7199992  98.8774990  85.9109997
  21.3779059  98.1499485  85.5796061  19.5579992 101.1604990  86.5489997
  20.0499992 100.9394990  85.7589997  19.9199992 102.0004990  86.8299997
  19.6743429 101.2438220  86.4787918  37.5539992  97.4904990  92.8149997
  36.6369992  97.7614990  92.7789997  37.6769992  96.9554990  92.0309997
  37.4450828  97.4552711  92.7040767  37.5899992  97.4134990  77.4769997
  38.0029992  96.6924990  77.0009997  38.2719992  98.0824990  77.5349997
  37.7385712  97.4054304  77.4198247  19.8709992  97.4184990  80.6039997
  18.9459992  97.6264990  80.4739997  20.3249992  97.9024990  79.9139997
  19.8057401  97.5123895  80.4929433  34.6419992 112.4024990  82.5489997
  35.2939992 112.0544990  81.9409997  35.1529992 112.8904990  83.1949997
  34.8002872 112.4208248  82.5530964  19.8349992  96.1564990  88.9479997
  19.1699992  95.9104990  89.5909997  19.3919992  96.7784990  88.3709997
  19.6841168  96.2069225  88.9579830  22.0269992 109.3314990  93.0919997
  21.2059992 109.5064990  92.6319997  21.7749992 109.2584990  94.0129997
  21.8806173 109.3455806  93.1534954  24.9809992 110.3054990  89.3509997
  24.5559992 111.1154990  89.0679997  25.8849992 110.3914990  89.0489997
  25.0451002 110.4278728  89.2714798  29.2919992 111.7044990  92.3099997
  29.4769992 111.3714990  93.1879997  30.1389992 112.0144990  91.9879997
  29.4317291 111.7008214  92.3866140  31.6369992 112.9904990  91.5539997
  32.3139992 112.3574990  91.3139997  31.9589992 113.3914990  92.3619997
  31.7731280 112.9580638  91.6303190  36.5549992  95.5804990  90.6339997
  35.7419992  95.9054990  90.2459997  36.7879992  94.8194990  90.1009997
  36.4752566  95.5221570  90.5089196  22.3829992 113.5624990  89.3979997
  21.6619992 114.0024990  88.9469997  22.0169992 113.3114990  90.2469997
  22.2349785 113.5887691  89.4509849  24.8499992 113.1624990  88.4279997
  23.9849992 113.2344990  88.8319997  24.7949992 113.7094990  87.6439997
  24.7242066 113.2462678  88.3773371  29.5609992 113.0504990  87.6039997
  29.1039992 113.5794990  86.9499997  29.7229992 113.6534990  88.3289997
  29.5203919 113.2043990  87.6125740  31.8879992 111.9284990  88.5489997
  30.9839992 112.0934990  88.2829997  32.3169992 112.7814990  88.4829997
  31.8222017 112.0664184  88.5036495  34.4919992 113.4984990  88.8439997
  34.3109992 114.4144990  88.6329997  34.6689992 113.0874990  87.9969997
  34.4911377 113.5683365  88.7007178  21.7979992 112.1854990  86.3089997
  21.7789992 111.7594990  87.1659997  22.6019992 111.8664990  85.8999997
  21.9041393 112.0840297  86.3710155  23.9389992 110.8954990  84.9639997
  23.7199992 109.9784990  85.1329997  24.7629992 111.0354990  85.4299997
  24.0204637 110.7889586  85.0501414  26.4759992 111.3654990  85.8119997
  26.6889992 110.4774990  85.5249997  26.5409992 111.3304990  86.7669997
  26.5139075 111.2393318  85.9017355  29.9849992  97.0294990  84.9569997
  29.3099992  96.3994990  85.2119997  30.5489992  96.5454990  84.3539997
  29.9689558  96.8779283  84.9103451  35.1269992  95.1364990  85.0689997
  35.7309992  95.6844990  84.5679997  34.2579992  95.4554990  84.8289997
  35.0921126  95.2547070  84.9679180  36.8539992  96.2754990  83.4029997
  37.4659992  95.7614990  82.8759997  37.2369992  97.1524990  83.4259997
  36.9893867  96.3237613  83.3340888  22.3109992  95.6634990  82.7789997
  21.5339992  95.4284990  82.2709997  22.8419992  94.8664990  82.7879997
  22.2764443  95.5236721  82.7107200  26.8909992  95.5894990  82.5919997
  27.7649992  95.9784990  82.5619997  26.7549992  95.3744990  83.5149997
  26.9923125  95.6137120  82.7126523  32.4469992  95.6194990  84.2409997
  32.5239992  95.7154990  83.2919997  32.1719992  94.7124990  84.3699997
  32.4203407  95.5099188  84.1283532  33.8009992  95.6454990  79.9339997
  33.0979992  96.2604990  79.7239997  33.3559992  94.8084990  80.0649997
  33.6446550  95.6164679  79.9229819  21.0489992 111.4094990  79.4799997
  20.3639992 111.3714990  78.8119997  21.0519992 112.3214990  79.7679997
  20.9557358 111.5276744  79.4276145  28.0349992  97.6704990  79.4819997
  28.2129992  97.0234990  80.1649997  27.9809992  98.5044990  79.9489997
  28.0520678  97.6946615  79.6386283  36.6219992 112.1814990  80.5569997
  36.4279992 111.4334990  79.9919997  36.5829992 112.9394990  79.9729997
  36.5901907 112.1815770  80.4008077  22.2689992  96.1774990  92.2959997
  21.9029992  95.4114990  92.7389997  23.1819992  96.2064990  92.5829997
  22.3423225  96.0766917  92.3953441  24.2419992  95.5274990  93.8319997
  25.1409992  95.2534990  93.6469997  23.8559992  94.7854990  94.2959997
  24.3127237  95.3896520  93.8694693  22.8669992 112.3294990  76.5049997
  22.5989992 112.6154990  77.3779997  23.6379992 111.7834990  76.6569997
  22.9345600 112.2948341  76.6451482  32.6629992  94.8604990  94.0139997
  32.7399992  94.4344990  94.8679997  33.5569992  94.8734990  93.6719997
  32.7943315  94.8040320  94.0845052  35.8399992 110.9324990  92.7069997
  35.0579992 110.7464990  92.1869997  35.7679992 111.8624990  92.9239997
  35.7232975 111.0326973  92.6651822  50.2459992 104.8194990  82.7369997
  50.3349992 105.7634990  82.6049997  49.6069992 104.5444990  82.0789997
  50.1718319 104.9114984  82.6300276  49.1789992 104.0744990  86.1559997
  49.1399992 103.4284990  86.8609997  48.8559992 103.6074990  85.3849997
  49.1300199 103.9230089  86.1482865  41.5469992 103.6884990  87.7489997
  41.5879992 103.0634990  88.4729997  42.2499992 104.3124990  87.9309997
  41.6476054 103.6873262  87.8726311  52.8849992 107.0134990  84.4579997
  52.4439992 106.2934990  84.9079997  52.8719992 107.7344990  85.0879997
  52.8228398 107.0123187  84.6047734  42.4709992 108.1384990  86.2839997
  42.1009992 107.3364990  85.9149997  43.4119992 107.9704990  86.3309997
  42.5475630 108.0058680  86.2397873  39.0809992 101.7984990  81.6769997
  38.6329992 102.6444990  81.6589997  38.5199992 101.2194990  81.1619997
  38.9438546 101.8359004  81.6048874  39.7909992 103.9604990  83.8029997
  40.0049992 103.1904990  84.3299997  40.5289992 104.0504990  83.1999997
  39.9200073 103.8673546  83.7935786  49.9959992 112.1174990  84.6699997
  50.6159992 111.4414990  84.3969997  49.7879992 111.8994990  85.5779997
  50.0527360 111.9954792  84.7554387  47.5679992 106.5064990  86.5619997
  47.8719992 105.8204990  85.9679997  48.2899992 106.6254990  87.1799997
  47.7071152 106.4287201  86.5642106  56.2309992  98.1084990  87.4229997
  56.2799992  98.7184990  88.1589997  56.6569992  98.5694990  86.6999997
  56.2952851  98.2543266  87.4260532  50.7089992 100.9004990  86.8899997
  50.8509992  99.9544990  86.9099997  50.6029992 101.1074990  85.9609997
  50.7141158 100.7989722  86.7672241  43.8639992  99.0024990  84.1619997
  43.9069992  99.8624990  83.7439997  43.4059992  98.4494990  83.5289997
  43.8079613  99.0455689  84.0191276  51.5859992  99.1334990  82.5629997
  52.2319992  98.8044990  83.1879997  52.0959992  99.6504990  81.9399997
  51.7434392  99.1583710  82.5643248  40.4839992 101.3994990  84.9239997
  41.1379992 100.8494990  85.3559997  40.5079992 101.1254990  84.0079997
  40.5767022 101.2872005  84.8591698  45.6399992 102.9494990  84.1399997
  46.2559992 102.4224990  84.6489997  45.0539992 102.3094990  83.7359997
  45.6450652 102.7908919  84.1550277  56.6229992  99.5864990  89.6589997
  55.9339992 100.2444990  89.5639997  56.6379992  99.3884990  90.5959997
  56.5307756  99.6497614  89.7725795  42.6739992  97.9204990  88.2359997
  42.4549992  98.4504990  87.4699997  42.0059992  98.1464990  88.8839997
  42.5537271  98.0236508  88.2186206  50.0429992 107.4204990  81.7799997
  49.7469992 107.0974990  80.9289997  49.7189992 108.3204990  81.8219997
  49.9586501 107.4979058  81.6690893  45.2429992 105.5954990  88.5239997
  44.5029992 106.1944990  88.6269997  45.9569992 106.1494990  88.2079997
  45.2383288 105.7522368  88.4953787  53.3499992  98.4244990  84.5439997
  53.1349992  97.6584990  85.0759997  54.0059992  98.8964990  85.0569997
  53.4092451  98.3834472  84.6861699  42.2679992  99.8124990  86.1889997
  42.8809992 100.4454990  86.5619997  42.7799992  99.3404990  85.5319997
  42.4211680  99.8354006  86.1512830  43.6499992 107.5604990  89.3109997
  43.6449992 108.4394990  88.9329997  42.7969992 107.4764990  89.7359997
  43.5339199 107.6695901  89.3166942  39.7719992 107.2314990  80.0929997
  39.4999992 107.4604990  79.2039997  39.8169992 108.0684990  80.5529997
  39.7408709 107.3761069  80.0336089  53.3969992 108.8524990  86.8059997
  52.4549992 108.9114990  86.9669997  53.6729992 109.7584990  86.6689997
  53.3055771 108.9830270  86.8094827  53.6969992  97.1394990  88.2229997
  52.9609992  97.7494990  88.1849997  54.3809992  97.5544990  87.6969997
  53.6885885  97.2791924  88.1466931  46.6999992  95.2254990  85.6889997
  46.5829992  94.2774990  85.6349997  45.8449992  95.5584990  85.9619997
  46.5683691  95.1405842  85.7185072  51.6489992 110.6334990  83.4309997
  52.0739992 109.9264990  82.9459997  51.9659992 111.4354990  83.0139997
  51.7500266 110.6450201  83.3082461  52.8079992 108.5344990  81.9399997
  52.5509992 107.8444990  81.3279997  52.8789992 108.0914990  82.7849997
  52.7824322 108.3801568  81.9705372  54.4939992 107.1014990  90.4169997
  54.6339992 106.5094990  89.6779997  54.6619992 107.9744990  90.0609997
  54.5358734 107.1384041  90.2676937  48.9669992 104.0634990  80.1889997
  48.2549992 104.5984990  79.8379997  49.6579992 104.1184990  79.5289997
  48.9628696 104.1442591  80.0516372  56.3359992 103.4414990  88.4829997
  55.6839992 104.1354990  88.5719997  56.8009992 103.6514990  87.6729997
  56.3095357 103.5649544  88.3857056  52.3729992 104.2724990  81.1409997
  51.6409992 104.5014990  81.7139997  52.8199992 103.5594990  81.5959997
  52.3332753 104.2073984  81.2809698  52.2699992 102.4474990  90.2089997
  52.3499992 103.2104990  90.7809997  51.6689992 102.7264990  89.5179997
  52.1997115 102.5897707  90.1939631  44.0179992 104.9034990  83.0239997
  43.6879992 104.5324990  82.2049997  44.6059992 104.2324990  83.3699997
  44.0524056 104.7621257  82.9589035  45.3849992 108.3314990  85.7049997
  45.2899992 107.7524990  84.9479997  46.1139992 107.9604990  86.2009997
  45.4706161 108.2020902  85.6685192  44.3849992 103.6714990  86.6569997
  44.9499992 103.7934990  85.8939997  44.7029992 104.3094990  87.2959997
  44.5053430 103.7744448  86.6389094  50.6939992 109.1754990  87.3909997
  50.4529992 109.8374990  88.0389997  50.4959992 108.3404990  87.8159997
  50.6342662 109.1532704  87.5371008  45.2649992 108.0714990  91.3739997
  44.9529992 108.8534990  91.8299997  44.6149992 107.9184990  90.6879997
  45.1344643 108.1578019  91.3436657  42.1849992 104.2694990  90.6029997
  42.2549992 104.9204990  91.3009997  41.2939992 104.3724990  90.2679997
  42.0741802 104.3724769  90.6532231  48.9699992 110.1714990  82.2619997
  49.4439992 110.4674990  83.0389997  48.4069992 110.9104990  82.0279997
  48.9588460 110.3118336  82.3367626  43.5039992 110.1424990  92.1379997
  43.5119992 110.0064990  91.1899997  42.5879992 110.0254990  92.3899997
  43.3812512 110.1080663  92.0423179  43.0079992 103.9724990  80.6129997
  42.7159992 104.7404990  80.1219997  42.3339992 103.3134990  80.4499997
  42.8768843 103.9884537  80.5237695  56.1319992 109.5514990  77.0159997
  56.2049992 110.4904990  77.1859997  57.0369992 109.2464990  76.9589997
  56.2644168 109.6388531  77.0315736  39.1009992 106.3354990  89.4279997
  38.5999992 106.3074990  88.6129997  39.1069992 105.4304990  89.7379997
  39.0331690 106.2092234  89.3582770  38.8519992 109.1164990  86.3119997
  39.7979992 108.9714990  86.2929997  38.7389992 109.9004990  86.8489997
  38.9663578 109.2026708  86.3820300  57.0489992 109.7824990  91.9939997
  56.9999992 108.8264990  91.9569997  56.2229992 110.0494990  92.3959997
  56.9305767 109.6878841  92.0433133  48.0279992 109.3564990  90.8699997
  48.1149992 110.1824990  91.3449997  47.1639992 109.0264990  91.1189997
  47.9231944 109.4249871  90.9686558  48.4419992 113.1284990  80.6759997
  48.3669992 113.0074990  79.7299997  48.4749992 114.0774990  80.7949997
  48.4361862 113.2402492  80.5624840  42.0959992 111.9174990  82.4569997
  42.2479992 111.5694990  83.3359997  41.2449992 111.5604990  82.2019997
  42.0017899 111.8216749  82.5427322  54.2009992 101.2754990  92.4739997
  53.7939992 101.7554990  91.7539997  54.2419992 100.3694990  92.1669997
  54.1507178 101.2188609  92.3337441  41.3499992 107.6594990  90.4709997
  41.5659992 107.2974990  91.3309997  40.4949992 107.2844990  90.2609997
  41.2639349 107.5592914  90.5602134  43.9689992  96.1294990  86.4669997
  43.1069992  96.0424990  86.0589997  43.9469992  96.9854990  86.8939997
  43.8480953  96.2333558  86.4689262  48.6319992  95.8514990  89.8409997
  49.0519992  95.4364990  90.5939997  47.6989992  95.6724990  89.9579997
  48.5633736  95.7704921  89.9598950  51.9579992  99.6064990  90.6949997
  51.4439992  99.4814990  91.4919997  51.8029992 100.5194990  90.4499997
  51.8666643  99.7127068  90.7710624  44.0599992 101.0944990  87.5619997
  43.4179992 101.0544990  88.2709997  44.0969992 102.0214990  87.3239997
  43.9771659 101.2142540  87.6268463  44.0569992 101.3154990  82.4739997
  43.1639992 100.9754990  82.4149997  44.5079992 100.9384990  81.7179997
  43.9957185 101.2180220  82.3637698  49.5929992 101.7314990  81.2909997
  49.1839992 102.5464990  80.9989997  50.3129992 101.5914990  80.6759997
  49.6343946 101.8239963  81.1679616  48.6949992 101.9074990  92.7789997
  48.1319992 101.2024990  93.0989997  49.5209992 101.7864990  93.2459997
  48.7296423 101.7945614  92.8860168  50.5969992 101.1774990  84.1049997
  50.4019992 101.7834990  83.3899997  50.7789992 100.3444990  83.6699997
  50.5949272 101.1477955  83.9484075  41.8099992 101.4154990  89.4289997
  41.7719992 101.8154990  90.2969997  41.3189992 100.5984990  89.5189997
  41.7384246 101.3598842  89.5601171  38.4179992  98.5314990  83.2789997
  39.0489992  98.5024990  83.9989997  38.8679992  98.1064990  82.5489997
  38.5650905  98.4700839  83.2787479  49.8609992 102.8154990  88.7759997
  50.1849992 102.1844990  88.1329997  49.4209992 102.2814990  89.4369997
  49.8458707 102.6568261  88.7773195  46.6389992  98.7434990  83.5599997
  45.7279992  98.8004990  83.8489997  47.1439992  98.6834990  84.3709997
  46.5826873  98.7431838  83.7091190  41.4669992 100.3724990  82.3869997
  40.5779992 100.4714990  82.0469997  41.7629992  99.5304990  82.0409997
  41.3854001 100.2722473  82.2937318  45.1199992 100.3724990  80.0429997
  46.0519992 100.5014990  80.2209997  44.9049992 101.0414990  79.3939997
  45.2184245 100.4806452  79.9795602  51.0439992  97.9784990  86.8239997
  50.3669992  98.1094990  87.4879997  50.5579992  97.8234990  86.0139997
  50.8857265  97.9754665  86.8053380  43.7939992 101.5664990  77.6099997
  43.2519992 101.1874990  76.9189997  44.6279992 101.7614990  77.1809997
  43.8324283 101.5409383  77.4574298  54.3309992 113.6494990  93.1009997
  54.5309992 114.0734990  92.2659997  54.9869992 113.9934990  93.7079997
  54.4469916 113.7539784  93.0687890  41.9289992 106.1234990  92.7089997
  42.6609992 106.3784990  93.2699997  41.1489992 106.3284990  93.2239997
  41.9237684 106.1861457  92.8554774  47.9589992 101.5304990  85.4469997
  48.5229992 100.9844990  84.8999997  47.8109992 101.0094990  86.2359997
  48.0163037 101.3851798  85.4787212  42.9609992  97.6674990  81.8649997
  42.6429992  96.7644990  81.8299997  43.7419992  97.6694990  81.3129997
  43.0231560  97.5441148  81.7854975  46.5849992  99.9194990  87.8609997
  45.7499992 100.3734990  87.9709997  47.1089992 100.1954990  88.6129997
  46.5415070 100.0189677  87.9777134  47.1289992 106.1324990  79.5459997
  46.3839992 105.6244990  79.2229997  46.9949992 106.1814990  80.4919997
  47.0088633 106.0695714  79.6297563  54.2789992 105.2654990  88.3319997
  54.9209992 105.7214990  87.7889997  53.4489992 105.3784990  87.8699997
  54.2547352 105.3433223  88.1950234  51.0269992  98.9464990  77.7449997
  50.0879992  99.0574990  77.5939997  51.3239992  99.8024990  78.0509997
  50.9386371  99.0775327  77.7657362  48.6489992 106.3164990  90.7829997
  48.3029992 105.9344990  91.5889997  48.4489992 107.2494990  90.8539997
  48.5745400 106.3903489  90.9030401  51.7449992 100.8134990  79.4059997
  52.6369992 100.6754990  79.7249997  51.8019992 101.6044990  78.8689997
  51.8747380 100.9014777  79.3770981  42.2539992 105.4274990  85.3149997
  42.9989992 105.4244990  84.7139997  42.3319992 104.6034990  85.7969997
  42.3664158 105.3157928  85.2979136  49.2549992 107.5904990  78.5709997
  48.9599992 108.4174990  78.9529997  48.5519992 106.9714990  78.7669997
  49.1195855 107.6199458  78.6497634  39.2619992 103.8874990  90.6299997
  39.4849992 103.4694990  91.4619997  38.6599992 103.2754990  90.2079997
  39.2110802 103.7475216  90.6867561  46.2789992 103.4044990  92.8429997
  45.9829992 103.2394990  91.9479997  47.2099992 103.1844990  92.8329997
  46.3643909 103.3521274  92.7190110  50.8989992 108.7784990  90.7329997
  49.9979992 108.9614990  90.4649997  50.9329992 109.0374990  91.6539997
  50.7803021 108.8385505  90.8208206  56.6299992 101.0224990  79.0999997
  56.0759992 100.6264990  78.4279997  56.7309992 101.9334990  78.8229997
  56.5677084 101.0913565  78.9704381  56.5929992 106.8234990  91.9369997
  55.7419992 107.0614990  91.5699997  57.1839992 106.8064990  91.1839997
  56.5562468 106.8538251  91.7848902  54.9249992 109.8084990  79.5649997
  54.5529992 108.9834990  79.8749997  55.2029992 109.6254990  78.6679997
  54.9115997 109.6706160  79.4861551  52.0859992 104.6164990  86.5869997
  51.1579992 104.3854990  86.5599997  52.5369992 103.8394990  86.2569997
  52.0198165 104.4797785  86.5386772  44.6289992 108.9454990  82.7199997
  45.1559992 109.7184990  82.5189997  43.7489992 109.1694990  82.4179997
  44.5821793 109.0816652  82.6516304  40.3839992 103.8074990  77.3069997
  40.9999992 104.4344990  77.6859997  39.5219992 104.1234990  77.5779997
  40.3518195 103.9360810  77.3955369  46.0559992 106.6084990  82.2959997
  45.8149992 107.5334990  82.3379997  45.3159992 106.1494990  82.6919997
  45.9228934 106.6730881  82.3553191  46.5709992 110.7574990  88.6109997
  46.9339992 111.6114990  88.3779997  47.1029992 110.4654990  89.3519997
  46.6925141 110.8348907  88.6792079  44.7389992 111.6294990  81.8409997
  43.7899992 111.7354990  81.8929997  45.0909992 112.4504990  82.1859997
  44.6566214 111.7549361  81.8947317  50.1149992 106.8564990  88.3119997
  49.6889992 106.6284990  89.1379997  50.6959992 106.1174990  88.1289997
  50.1351587 106.7254084  88.4004111  52.3179992 107.7854990  77.3859997
  52.6709992 107.4054990  78.1899997  51.3689992 107.6914990  77.4719997
  52.2380985 107.7207330  77.5077738  52.7739992 111.4084990  90.7809997
  52.1719992 110.8524990  90.2859997  53.0549992 112.0754990  90.1549997
  52.7295757 111.4225755  90.6285657  56.8209992 112.2644990  77.5869997
  57.5649992 112.8504990  77.4469997  56.1269992 112.8334990  77.9199997
  56.8289809 112.4215830  77.6128572  40.8959992  98.6414990  90.1879997
  40.0029992  98.9794990  90.1209997  40.7969992  97.7854990  90.6059997
  40.7605241  98.5720941  90.2352982  53.1839992 106.4574990  79.6119997
  52.9069992 105.7294990  80.1679997  54.1109992 106.5764990  79.8179997
  53.2714181 106.3740068  79.7158972  40.5469992 110.4454990  88.6229997
  40.7639992 109.5134990  88.5919997  40.7939992 110.7204990  89.5069997
  40.6100543 110.3550877  88.7381412  45.3459992 108.4674990  78.2889997
  45.4929992 107.9474990  79.0789997  45.3429992 109.3744990  78.5949997
  45.3657300 108.5188975  78.4385877  41.7989992 105.7194990  78.7989997
  41.1129992 106.0724990  79.3659997  42.3219992 106.4824990  78.5529997
  41.7759033 105.8708757  78.8432644  49.6299992  98.3824990  89.0779997
  50.3289992  98.4564990  89.7279997  49.2499992  97.5174990  89.2329997
  49.6742095  98.2757402  89.1877982  50.4149992  98.0344990  80.1749997
  50.6349992  98.5054990  79.3719997  50.9729992  98.4284990  80.8459997
  50.5205851  98.1523272  80.1556134  48.0839992 110.1644990  79.0379997
  47.2669992 110.6614990  79.0909997  48.6129992 110.6404990  78.3979997
  48.0437898 110.2968123  78.9587274  47.6149992  99.7624990  81.0099997
  48.4269992 100.2664990  81.0559997  47.3699992  99.6174990  81.9239997
  47.6931091  99.8119366  81.1398552  48.1509992 100.7484990  90.1949997
  48.2699992 101.3224990  90.9519997  48.8059992 100.0604990  90.3099997
  48.2558684 100.7340205  90.3141656  48.4989992  96.8434990  81.9479997
  48.1519992  97.4604990  82.5929997  49.1569992  97.3444990  81.4669997
  48.5405290  96.9956384  81.9711635  45.4219992 111.2084990  79.0199997
  45.5829992 112.0084990  78.5189997  45.2249992 111.5154990  79.9049997
  45.4173919 111.3594140  79.0710988  54.3549992  98.6554990  91.0299997
  53.4389992  98.9174990  90.9419997  54.6909992  98.6524990  90.1329997
  54.2749789  98.6909637  90.8967829  52.9569992 102.4054990  85.1259997
  52.1599992 101.9904990  84.7969997  53.4019992 101.7154990  85.6169997
  52.9080317 102.2553197  85.1473557  42.4149992 108.3334990  77.6959997
  43.0069992 109.0334990  77.9719997  42.8739992 107.9004990  76.9769997
  42.5581172 108.3707370  77.6365163  54.0439992 111.6614990  86.7479997
  53.8879992 112.3404990  86.0909997  54.9759992 111.7334990  86.9509997
  54.1487328 111.7641586  86.6855529  41.5389992  95.7794990  85.4849997
  41.3099992  95.8384990  84.5579997  41.0959992  94.9884990  85.7919997
  41.4477387  95.6806412  85.3995223  40.4689992 109.7204990  81.6459997
  39.6369992 110.1924990  81.6729997  41.0149992 110.2304990  81.0469997
  40.4288710 109.8540317  81.5687570  39.7579992 112.3324990  92.9759997
  40.2979992 112.1164990  93.7349997  39.2759992 111.5274990  92.7859997
  39.7669101 112.1940216  93.0544364  44.3549992 111.2524990  94.5959997
  45.1229992 110.7934990  94.9369997  44.3339992 111.0264990  93.6659997
  44.4572135 111.1591680  94.5169473  50.9319992 109.6324990  93.3249997
  50.5809992 108.7754990  93.5679997  51.6579992 109.7744990  93.9319997
  50.9821590 109.5345189  93.4402889  39.6649992 106.1434990  93.9299997
  39.8089992 105.2414990  93.6439997  38.8919992 106.4294990  93.4419997
  39.5802854 106.0586876  93.8249363  46.3199992 106.1124990  93.3629997
  45.9919992 106.3834990  92.5049997  46.4719992 105.1714990  93.2749997
  46.2956970 106.0223694  93.2337953  52.0549992 106.0284990  90.7459997
  52.7999992 106.6174990  90.6259997  51.2969992 106.6104990  90.8089997
  52.0545185 106.1877000  90.7380940  40.4969992 103.3434990  93.3499997
  40.9049992 102.4864990  93.2289997  40.2369992 103.3574990  94.2709997
  40.5177082 103.2280596  93.4579469  44.4439992 102.3524990  90.7239997
  43.8259992 103.0264990  91.0049997  44.7879992 102.6734990  89.8909997
  44.4058181 102.4883233  90.6498266  49.4639992 104.8234990  94.0019997
  50.4169992 104.9074990  93.9739997  49.3039992 104.1114990  94.6209997
  49.5728161 104.7387198  94.0818689  55.6159992 105.0564990  76.0759997
  55.3429992 104.6324990  75.2629997  55.6559992 105.9884990  75.8589997
  55.5840201 105.1243523  75.9353548  44.7839992  99.7074990  91.8069997
  44.9339992  98.9784990  91.2039997  44.7859992 100.4844990  91.2479997
  44.8047664  99.7128971  91.6490525  45.1959992  98.0764990  89.2989997
  45.7319992  98.5284990  88.6469997  44.3439992  97.9684990  88.8769997
  45.1541648  98.1237883  89.1526395  46.7779992 103.5164990  89.5389997
  47.5289992 103.3604990  88.9659997  46.4389992 104.3684990  89.2629997
  46.8349052 103.6102745  89.4233469  51.1939992 101.3314990  94.5669997
  51.3859992 100.4004990  94.4559997  52.0509992 101.7564990  94.5569997
  51.3362320 101.2614743  94.5504433  52.5099992 104.1204990  92.6449997
  52.2289992 104.8294990  92.0669997  53.4529992 104.0474990  92.4939997
  52.5989272 104.2076704  92.5454976  43.2619992 100.9054990  93.7179997
  42.4949992 100.3724990  93.5079997  43.9409992 100.5954990  93.1189997
  43.2488292 100.7906360  93.6082693  46.0019992  95.5334990  89.7309997
  45.9039992  96.4794990  89.6249997  45.2589992  95.1604990  89.2549997
  45.8882363  95.6125987  89.6522029  47.2659992  99.8544990  93.2939997
  47.0299992  99.6354990  94.1959997  46.4829992  99.6474990  92.7849997
  47.1278444  99.7965688  93.3484518  49.9819992  98.9824990  92.3699997
  49.0339992  99.0144990  92.5019997  50.2939992  98.3564990  93.0239997
  49.8945293  98.9022934  92.4764130  51.6159992  97.6164990  94.3749997
  51.5189992  96.6644990  94.3689997  51.2939992  97.8844990  95.2359997
  51.5592229  97.5224706  94.4905108  41.4429992  98.8254990  93.4229997
  41.6539992  98.1194990  92.8119997  41.3309992  98.3884990  94.2669997
  41.4567674  98.6696376  93.4534199  46.2239992  94.8274990  92.4019997
  46.9349992  94.1874990  92.3879997  46.1229992  95.0934990  91.4879997
  46.3076732  94.7758451  92.2765475  46.5769992  96.5094990  94.4559997
  46.4459992  96.0344990  93.6349997  45.9779992  97.2544990  94.3999997
  46.4781524  96.5451968  94.3361553  39.6919992 108.0294990  77.1149997
  40.6059992 108.1084990  77.3879997  39.6989992 107.3424990  76.4479997
  39.8180769 107.9474735  77.0622366  38.3409992 113.4224990  82.1919997
  37.6939992 112.9604990  81.6589997  38.6959992 112.7504990  82.7749997
  38.3003861 113.2684707  82.1977939  39.2109992 111.5024990  83.9969997
  38.8769992 110.6224990  84.1689997  39.4329992 111.8484990  84.8609997
  39.1952677 111.4287366  84.1374252  56.7599992 112.3124990  86.9769997
  56.7379992 112.4974990  87.9159997  57.4499992 112.8804990  86.6359997
  56.8503439 112.4146898  87.0594774  56.3229992 111.8794990  89.8989997
  55.8359992 111.1434990  89.5279997  56.8719992 111.4854990  90.5769997
  56.3306101 111.7256267  89.9399034  54.7739992 107.6694990  94.5369997
  53.9079992 107.5644990  94.9309997  55.1499992 108.4274990  94.9839997
  54.7063768 107.7576151  94.6513258  56.0749992 105.9254990  80.0509997
  56.9249992 106.3464990  80.1789997  56.0799992 105.1854990  80.6589997
  56.1919745 105.8831347  80.1506479  56.4689992 103.9794990  81.8749997
  55.7429992 103.4994990  82.2729997  57.0499992 104.1844990  82.6069997
  56.4482504 103.9415592  82.0284199  56.2279992 106.7644990  86.8229997
  57.0619992 106.3864990  86.5419997  56.3399992 107.7074990  86.7039997
  56.3571917 106.8402954  86.7684844  54.7139992 109.6424990  89.1299997
  54.0669992 109.9674990  89.7549997  54.1969992 109.2014990  88.4549997
  54.5554068 109.6274726  89.1244918  56.7369992 103.8804990  78.2659997
  56.2159992 104.2364990  77.5469997  56.7039992 104.5554990  78.9439997
  56.6611525 104.0205273  78.2591408  54.2559992 102.5004990  82.4379997
  54.1059992 101.5554990  82.4179997  53.9019992 102.7814990  83.2819997
  54.1876351 102.4091656  82.5493202  39.2909992 104.5784990  86.4479997
  39.4749992 104.4964990  85.5129997  40.1399992 104.4544990  86.8719997
  39.4310259 104.5504915  86.3771771  55.1119992 104.4704990  92.0769997
  55.6949992 103.7354990  92.2679997  55.6759992 105.2424990  92.1229997
  55.2680326 104.4742746  92.1093579  56.6089992 102.3734990  92.7609997
  55.7449992 101.9944990  92.5959997  57.2129992 101.6344990  92.6869997
  56.5724912 102.2217937  92.7284360  54.3339992  98.5274990  75.9339997
  54.9439992  98.1564990  76.5709997  53.4969992  98.1064990  76.1299997
  54.3043704  98.4197942  76.0477077  53.9659992 100.0824990  80.8999997
  54.2459992  99.1754990  81.0249997  54.7249992 100.5164990  80.5109997
  54.1069471 100.0170654  80.8645052  54.5779992 100.6644990  86.3359997
  55.5109992 100.8764990  86.3019997  54.3429992 100.7654990  87.2589997
  54.6738357 100.7071303  86.4560232  54.6069992 101.4014990  89.1119997
  53.7639992 101.6694990  89.4779997  55.0499992 102.2234990  88.9009997
  54.5514358 101.5493294  89.1335999  38.8879992  99.8484990  92.5889997
  39.8079992  99.7264990  92.8249997  38.4389992  99.0984990  92.9779997
  38.9531561  99.7303720  92.6739015  56.8899992  95.3814990  94.4659997
  57.2399992  94.7274990  93.8599997  57.0369992  96.2184990  94.0259997
  56.9577192  95.4052545  94.3236712  54.5799992  97.3454990  80.9489997
  54.7619992  96.8964990  81.7739997  53.9799992  96.7614990  80.4849997
  54.5238187  97.2050563  80.9992721  40.1099992  98.1614990  85.4799997
  40.5549992  97.3694990  85.7819997  40.5759992  98.8774990  85.9109997
  40.2339059  98.1499485  85.5796061  38.4139992 101.1604990  86.5489997
  38.9059992 100.9394990  85.7589997  38.7759992 102.0004990  86.8299997
  38.5303428 101.2438220  86.4787918  56.4099992  97.4904990  92.8149997
  55.4929992  97.7614990  92.7789997  56.5329992  96.9554990  92.0309997
  56.3010828  97.4552711  92.7040767  38.7269992  97.4184990  80.6039997
  37.8019992  97.6264990  80.4739997  39.1809992  97.9024990  79.9139997
  38.6617401  97.5123895  80.4929433  53.4979992 112.4024990  82.5489997
  54.1499992 112.0544990  81.9409997  54.0089992 112.8904990  83.1949997
  53.6562872 112.4208248  82.5530964  38.6909992  96.1564990  88.9479997
  38.0259992  95.9104990  89.5909997  38.2479992  96.7784990  88.3709997
  38.5401168  96.2069225  88.9579830  40.8829992 109.3314990  93.0919997
  40.0619992 109.5064990  92.6319997  40.6309992 109.2584990  94.0129997
  40.7366173 109.3455806  93.1534954  43.8369992 110.3054990  89.3509997
  43.4119992 111.1154990  89.0679997  44.7409992 110.3914990  89.0489997
  43.9011002 110.4278728  89.2714798  48.1479992 111.7044990  92.3099997
  48.3329992 111.3714990  93.1879997  48.9949992 112.0144990  91.9879997
  48.2877291 111.7008214  92.3866140  50.4929992 112.9904990  91.5539997
  51.1699992 112.3574990  91.3139997  50.8149992 113.3914990  92.3619997
  50.6291280 112.9580638  91.6303190  55.4109992  95.5804990  90.6339997
  54.5979992  95.9054990  90.2459997  55.6439992  94.8194990  90.1009997
  55.3312566  95.5221570  90.5089196  41.2389992 113.5624990  89.3979997
  40.5179992 114.0024990  88.9469997  40.8729992 113.3114990  90.2469997
  41.0909785 113.5887691  89.4509849  43.7059992 113.1624990  88.4279997
  42.8409992 113.2344990  88.8319997  43.6509992 113.7094990  87.6439997
  43.5802066 113.2462678  88.3773371  48.4169992 113.0504990  87.6039997
  47.9599992 113.5794990  86.9499997  48.5789992 113.6534990  88.3289997
  48.3763919 113.2043990  87.6125740  50.7439992 111.9284990  88.5489997
  49.8399992 112.0934990  88.2829997  51.1729992 112.7814990  88.4829997
  50.6782017 112.0664184  88.5036495  53.3479992 113.4984990  88.8439997
  53.1669992 114.4144990  88.6329997  53.5249992 113.0874990  87.9969997
  53.3471377 113.5683365  88.7007178  40.6539992 112.1854990  86.3089997
  40.6349992 111.7594990  87.1659997  41.4579992 111.8664990  85.8999997
  40.7601393 112.0840297  86.3710155  42.7949992 110.8954990  84.9639997
  42.5759992 109.9784990  85.1329997  43.6189992 111.0354990  85.4299997
  42.8764637 110.7889586  85.0501414  45.3319992 111.3654990  85.8119997
  45.5449992 110.4774990  85.5249997  45.3969992 111.3304990  86.7669997
  45.3699075 111.2393318  85.9017355  48.8409992  97.0294990  84.9569997
  48.1659992  96.3994990  85.2119997  49.4049992  96.5454990  84.3539997
  48.8249558  96.8779283  84.9103451  53.9829992  95.1364990  85.0689997
  54.5869992  95.6844990  84.5679997  53.1139992  95.4554990  84.8289997
  53.9481126  95.2547070  84.9679180  55.7099992  96.2754990  83.4029997
  56.3219992  95.7614990  82.8759997  56.0929992  97.1524990  83.4259997
  55.8453867  96.3237613  83.3340888  41.1669992  95.6634990  82.7789997
  40.3899992  95.4284990  82.2709997  41.6979992  94.8664990  82.7879997
  41.1324443  95.5236721  82.7107200  40.0039992  95.4614990  78.5819997
  40.4429992  96.0724990  77.9909997  39.3699992  95.9994990  79.0559997
  39.9784103  95.6179233  78.5651376  45.7469992  95.5894990  82.5919997
  46.6209992  95.9784990  82.5619997  45.6109992  95.3744990  83.5149997
  45.8483125  95.6137120  82.7126523  51.3029992  95.6194990  84.2409997
  51.3799992  95.7154990  83.2919997  51.0279992  94.7124990  84.3699997
  51.2763407  95.5099188  84.1283532  39.9049992 111.4094990  79.4799997
  39.2199992 111.3714990  78.8119997  39.9079992 112.3214990  79.7679997
  39.8117358 111.5276744  79.4276145  41.8649992  97.3774990  77.0249997
  42.3559992  96.7474990  76.4969997  42.4879992  97.6734990  77.6879997
  42.0165459  97.3312419  77.0423667  55.4779992 112.1814990  80.5569997
  55.2839992 111.4334990  79.9919997  55.4389992 112.9394990  79.9729997
  55.4461907 112.1815770  80.4008077  41.1249992  96.1774990  92.2959997
  40.7589992  95.4114990  92.7389997  42.0379992  96.2064990  92.5829997
  41.1983225  96.0766917  92.3953441  43.0979992  95.5274990  93.8319997
  43.9969992  95.2534990  93.6469997  42.7119992  94.7854990  94.2959997
  43.1687237  95.3896520  93.8694693  51.5189992  94.8604990  94.0139997
  51.5959992  94.4344990  94.8679997  52.4129992  94.8734990  93.6719997
  51.6503315  94.8040320  94.0845052  54.6959992 110.9324990  92.7069997
  53.9139992 110.7464990  92.1869997  54.6239992 111.8624990  92.9239997
  54.5792975 111.0326973  92.6651823  69.1019992 104.8194990  82.7369997
  69.1909992 105.7634990  82.6049997  68.4629992 104.5444990  82.0789997
  69.0278319 104.9114984  82.6300276  68.0349992 104.0744990  86.1559997
  67.9959992 103.4284990  86.8609997  67.7119992 103.6074990  85.3849997
  67.9860199 103.9230089  86.1482865  60.4029992 103.6884990  87.7489997
  60.4439992 103.0634990  88.4729997  61.1059992 104.3124990  87.9309997
  60.5036054 103.6873262  87.8726311  71.7409992 107.0134990  84.4579997
  71.2999992 106.2934990  84.9079997  71.7279992 107.7344990  85.0879997
  71.6788398 107.0123187  84.6047734  61.3269992 108.1384990  86.2839997
  60.9569992 107.3364990  85.9149997  62.2679992 107.9704990  86.3309997
  61.4035630 108.0058680  86.2397873  57.9369992 101.7984990  81.6769997
  57.4889992 102.6444990  81.6589997  57.3759992 101.2194990  81.1619997
  57.7998546 101.8359004  81.6048874  58.6469992 103.9604990  83.8029997
  58.8609992 103.1904990  84.3299997  59.3849992 104.0504990  83.1999997
  58.7760073 103.8673546  83.7935786  68.8519992 112.1174990  84.6699997
  69.4719992 111.4414990  84.3969997  68.6439992 111.8994990  85.5779997
  68.9087360 111.9954792  84.7554387  66.4239992 106.5064990  86.5619997
  66.7279992 105.8204990  85.9679997  67.1459992 106.6254990  87.1799997
  66.5631152 106.4287201  86.5642106  75.0869992  98.1084990  87.4229997
  75.1359992  98.7184990  88.1589997  75.5129992  98.5694990  86.6999997
  75.1512851  98.2543266  87.4260532  69.5649992 100.9004990  86.8899997
  69.7069992  99.9544990  86.9099997  69.4589992 101.1074990  85.9609997
  69.5701158 100.7989722  86.7672241  62.7199992  99.0024990  84.1619997
  62.7629992  99.8624990  83.7439997  62.2619992  98.4494990  83.5289997
  62.6639613  99.0455689  84.0191276  59.3399992 101.3994990  84.9239997
  59.9939992 100.8494990  85.3559997  59.3639992 101.1254990  84.0079997
  59.4327022 101.2872005  84.8591698  64.4959992 102.9494990  84.1399997
  65.1119992 102.4224990  84.6489997  63.9099992 102.3094990  83.7359997
  64.5010652 102.7908919  84.1550277  75.4789992  99.5864990  89.6589997
  74.7899992 100.2444990  89.5639997  75.4939992  99.3884990  90.5959997
  75.3867756  99.6497614  89.7725795  61.5299992  97.9204990  88.2359997
  61.3109992  98.4504990  87.4699997  60.8619992  98.1464990  88.8839997
  61.4097271  98.0236508  88.2186206  68.8989992 107.4204990  81.7799997
  68.6029992 107.0974990  80.9289997  68.5749992 108.3204990  81.8219997
  68.8146501 107.4979058  81.6690893  64.0989992 105.5954990  88.5239997
  63.3589992 106.1944990  88.6269997  64.8129992 106.1494990  88.2079997
  64.0943288 105.7522368  88.4953787  72.2059992  98.4244990  84.5439997
  71.9909992  97.6584990  85.0759997  72.8619992  98.8964990  85.0569997
  72.2652451  98.3834472  84.6861699  61.1239992  99.8124990  86.1889997
  61.7369992 100.4454990  86.5619997  61.6359992  99.3404990  85.5319997
  61.2771680  99.8354006  86.1512830  62.5059992 107.5604990  89.3109997
  62.5009992 108.4394990  88.9329997  61.6529992 107.4764990  89.7359997
  62.3899199 107.6695901  89.3166942  58.6279992 107.2314990  80.0929997
  58.3559992 107.4604990  79.2039997  58.6729992 108.0684990  80.5529997
  58.5968709 107.3761069  80.0336089  72.2529992 108.8524990  86.8059997
  71.3109992 108.9114990  86.9669997  72.5289992 109.7584990  86.6689997
  72.1615771 108.9830270  86.8094827  72.5529992  97.1394990  88.2229997
  71.8169992  97.7494990  88.1849997  73.2369992  97.5544990  87.6969997
  72.5445885  97.2791924  88.1466931  65.5559992  95.2254990  85.6889997
  65.4389992  94.2774990  85.6349997  64.7009992  95.5584990  85.9619997
  65.4243691  95.1405842  85.7185072  70.5049992 110.6334990  83.4309997
  70.9299992 109.9264990  82.9459997  70.8219992 111.4354990  83.0139997
  70.6060266 110.6450201  83.3082461  71.6639992 108.5344990  81.9399997
  71.4069992 107.8444990  81.3279997  71.7349992 108.0914990  82.7849997
  71.6384322 108.3801568  81.9705372  73.3499992 107.1014990  90.4169997
  73.4899992 106.5094990  89.6779997  73.5179992 107.9744990  90.0609997
  73.3918734 107.1384041  90.2676937  75.1919992 103.4414990  88.4829997
  74.5399992 104.1354990  88.5719997  75.6569992 103.6514990  87.6729997
  75.1655357 103.5649544  88.3857056  71.2289992 104.2724990  81.1409997
  70.4969992 104.5014990  81.7139997  71.6759992 103.5594990  81.5959997
  71.1892753 104.2073984  81.2809698  71.1259992 102.4474990  90.2089997
  71.2059992 103.2104990  90.7809997  70.5249992 102.7264990  89.5179997
  71.0557115 102.5897707  90.1939631  62.8739992 104.9034990  83.0239997
  62.5439992 104.5324990  82.2049997  63.4619992 104.2324990  83.3699997
  62.9084056 104.7621257  82.9589035  64.2409992 108.3314990  85.7049997
  64.1459992 107.7524990  84.9479997  64.9699992 107.9604990  86.2009997
  64.3266161 108.2020902  85.6685191  63.2409992 103.6714990  86.6569997
  63.8059992 103.7934990  85.8939997  63.5589992 104.3094990  87.2959997
  63.3613430 103.7744448  86.6389094  69.5499992 109.1754990  87.3909997
  69.3089992 109.8374990  88.0389997  69.3519992 108.3404990  87.8159997
  69.4902662 109.1532704  87.5371008  64.1209992 108.0714990  91.3739997
  63.8089992 108.8534990  91.8299997  63.4709992 107.9184990  90.6879997
  63.9904643 108.1578019  91.3436657  61.0409992 104.2694990  90.6029997
  61.1109992 104.9204990  91.3009997  60.1499992 104.3724990  90.2679997
  60.9301802 104.3724769  90.6532231  67.8259992 110.1714990  82.2619997
  68.2999992 110.4674990  83.0389997  67.2629992 110.9104990  82.0279997
  67.8148461 110.3118336  82.3367626  62.3599992 110.1424990  92.1379997
  62.3679992 110.0064990  91.1899997  61.4439992 110.0254990  92.3899997
  62.2372512 110.1080663  92.0423179  61.8639992 103.9724990  80.6129997
  61.5719992 104.7404990  80.1219997  61.1899992 103.3134990  80.4499997
  61.7328843 103.9884537  80.5237695  57.9569992 106.3354990  89.4279997
  57.4559992 106.3074990  88.6129997  57.9629992 105.4304990  89.7379997
  57.8891690 106.2092234  89.3582770  57.7079992 109.1164990  86.3119997
  58.6539992 108.9714990  86.2929997  57.5949992 109.9004990  86.8489997
  57.8223578 109.2026708  86.3820300  75.9049992 109.7824990  91.9939997
  75.8559992 108.8264990  91.9569997  75.0789992 110.0494990  92.3959997
  75.7865767 109.6878841  92.0433133  66.8839992 109.3564990  90.8699997
  66.9709992 110.1824990  91.3449997  66.0199992 109.0264990  91.1189997
  66.7791944 109.4249871  90.9686558  67.2979992 113.1284990  80.6759997
  67.2229992 113.0074990  79.7299997  67.3309992 114.0774990  80.7949997
  67.2921862 113.2402492  80.5624840  60.9519992 111.9174990  82.4569997
  61.1039992 111.5694990  83.3359997  60.1009992 111.5604990  82.2019997
  60.8577899 111.8216749  82.5427322  70.0689992 112.2084990  80.4279997
  69.1339992 112.3084990  80.6069997  70.3489992 111.4984990  81.0059997
  69.9789270 112.1262300  80.5305984  73.0569992 101.2754990  92.4739997
  72.6499992 101.7554990  91.7539997  73.0979992 100.3694990  92.1669997
  73.0067178 101.2188609  92.3337441  60.2059992 107.6594990  90.4709997
  60.4219992 107.2974990  91.3309997  59.3509992 107.2844990  90.2609997
  60.1199349 107.5592914  90.5602134  62.8249992  96.1294990  86.4669997
  61.9629992  96.0424990  86.0589997  62.8029992  96.9854990  86.8939997
  62.7040953  96.2333558  86.4689262  67.4879992  95.8514990  89.8409997
  67.9079992  95.4364990  90.5939997  66.5549992  95.6724990  89.9579997
  67.4193736  95.7704921  89.9598950  70.8139992  99.6064990  90.6949997
  70.2999992  99.4814990  91.4919997  70.6589992 100.5194990  90.4499997
  70.7226643  99.7127068  90.7710624  67.1499992  98.3434990  77.1259997
  66.8959992  98.3624990  78.0489997  66.8929992  97.4724990  76.8249997
  67.0805133  98.2283121  77.2115065  62.9159992 101.0944990  87.5619997
  62.2739992 101.0544990  88.2709997  62.9529992 102.0214990  87.3239997
  62.8331659 101.2142540  87.6268463  62.9129992 101.3154990  82.4739997
  62.0199992 100.9754990  82.4149997  63.3639992 100.9384990  81.7179997
  62.8517185 101.2180220  82.3637698  68.4489992 101.7314990  81.2909997
  68.0399992 102.5464990  80.9989997  69.1689992 101.5914990  80.6759997
  68.4903946 101.8239963  81.1679616  67.5509992 101.9074990  92.7789997
  66.9879992 101.2024990  93.0989997  68.3769992 101.7864990  93.2459997
  67.5856423 101.7945614  92.8860168  69.4529992 101.1774990  84.1049997
  69.2579992 101.7834990  83.3899997  69.6349992 100.3444990  83.6699997
  69.4509272 101.1477955  83.9484075  60.6659992 101.4154990  89.4289997
  60.6279992 101.8154990  90.2969997  60.1749992 100.5984990  89.5189997
  60.5944246 101.3598842  89.5601171  57.2739992  98.5314990  83.2789997
  57.9049992  98.5024990  83.9989997  57.7239992  98.1064990  82.5489997
  57.4210905  98.4700839  83.2787479  68.7169992 102.8154990  88.7759997
  69.0409992 102.1844990  88.1329997  68.2769992 102.2814990  89.4369997
  68.7018707 102.6568261  88.7773195  65.4949992  98.7434990  83.5599997
  64.5839992  98.8004990  83.8489997  65.9999992  98.6834990  84.3709997
  65.4386873  98.7431838  83.7091190  60.3229992 100.3724990  82.3869997
  59.4339992 100.4714990  82.0469997  60.6189992  99.5304990  82.0409997
  60.2414001 100.2722473  82.2937318  63.9759992 100.3724990  80.0429997
  64.9079992 100.5014990  80.2209997  63.7609992 101.0414990  79.3939997
  64.0744245 100.4806452  79.9795602  69.8999992  97.9784990  86.8239997
  69.2229992  98.1094990  87.4879997  69.4139992  97.8234990  86.0139997
  69.7417265  97.9754665  86.8053380  73.1869992 113.6494990  93.1009997
  73.3869992 114.0734990  92.2659997  73.8429992 113.9934990  93.7079997
  73.3029916 113.7539784  93.0687890  60.7849992 106.1234990  92.7089997
  61.5169992 106.3784990  93.2699997  60.0049992 106.3284990  93.2239997
  60.7797684 106.1861457  92.8554774  66.8149992 101.5304990  85.4469997
  67.3789992 100.9844990  84.8999997  66.6669992 101.0094990  86.2359997
  66.8723037 101.3851798  85.4787212  61.8169992  97.6674990  81.8649997
  61.4989992  96.7644990  81.8299997  62.5979992  97.6694990  81.3129997
  61.8791560  97.5441148  81.7854975  65.4409992  99.9194990  87.8609997
  64.6059992 100.3734990  87.9709997  65.9649992 100.1954990  88.6129997
  65.3975070 100.0189677  87.9777134  65.9849992 106.1324990  79.5459997
  65.2399992 105.6244990  79.2229997  65.8509992 106.1814990  80.4919997
  65.8648633 106.0695714  79.6297563  73.1349992 105.2654990  88.3319997
  73.7769992 105.7214990  87.7889997  72.3049992 105.3784990  87.8699997
  73.1107352 105.3433223  88.1950234  67.5049992 106.3164990  90.7829997
  67.1589992 105.9344990  91.5889997  67.3049992 107.2494990  90.8539997
  67.4305399 106.3903489  90.9030401  70.6009992 100.8134990  79.4059997
  71.4929992 100.6754990  79.7249997  70.6579992 101.6044990  78.8689997
  70.7307380 100.9014777  79.3770981  61.1099992 105.4274990  85.3149997
  61.8549992 105.4244990  84.7139997  61.1879992 104.6034990  85.7969997
  61.2224158 105.3157928  85.2979136  68.1109992 107.5904990  78.5709997
  67.8159992 108.4174990  78.9529997  67.4079992 106.9714990  78.7669997
  67.9755855 107.6199458  78.6497634  58.1179992 103.8874990  90.6299997
  58.3409992 103.4694990  91.4619997  57.5159992 103.2754990  90.2079997
  58.0670802 103.7475216  90.6867561  65.1349992 103.4044990  92.8429997
  64.8389992 103.2394990  91.9479997  66.0659992 103.1844990  92.8329997
  65.2203909 103.3521274  92.7190110  69.7549992 108.7784990  90.7329997
  68.8539992 108.9614990  90.4649997  69.7889992 109.0374990  91.6539997
  69.6363021 108.8385505  90.8208206  75.4859992 101.0224990  79.0999997
  74.9319992 100.6264990  78.4279997  75.5869992 101.9334990  78.8229997
  75.4237084 101.0913565  78.9704381  75.4489992 106.8234990  91.9369997
  74.5979992 107.0614990  91.5699997  76.0399992 106.8064990  91.1839997
  75.4122468 106.8538251  91.7848902  70.9419992 104.6164990  86.5869997
  70.0139992 104.3854990  86.5599997  71.3929992 103.8394990  86.2569997
  70.8758165 104.4797785  86.5386772  63.4849992 108.9454990  82.7199997
  64.0119992 109.7184990  82.5189997  62.6049992 109.1694990  82.4179997
  63.4381793 109.0816652  82.6516304  59.2399992 103.8074990  77.3069997
  59.8559992 104.4344990  77.6859997  58.3779992 104.1234990  77.5779997
  59.2078195 103.9360810  77.3955369  64.9119992 106.6084990  82.2959997
  64.6709992 107.5334990  82.3379997  64.1719992 106.1494990  82.6919997
  64.7788934 106.6730881  82.3553191  65.4269992 110.7574990  88.6109997
  65.7899992 111.6114990  88.3779997  65.9589992 110.4654990  89.3519997
  65.5485141 110.8348907  88.6792079  63.5949992 111.6294990  81.8409997
  62.6459992 111.7354990  81.8929997  63.9469992 112.4504990  82.1859997
  63.5126214 111.7549361  81.8947317  68.9709992 106.8564990  88.3119997
  68.5449992 106.6284990  89.1379997  69.5519992 106.1174990  88.1289997
  68.9911587 106.7254084  88.4004111  71.1739992 107.7854990  77.3859997
  71.5269992 107.4054990  78.1899997  70.2249992 107.6914990  77.4719997
  71.0940985 107.7207330  77.5077738  71.6299992 111.4084990  90.7809997
  71.0279992 110.8524990  90.2859997  71.9109992 112.0754990  90.1549997
  71.5855757 111.4225755  90.6285657  75.6769992 112.2644990  77.5869997
  76.4209992 112.8504990  77.4469997  74.9829992 112.8334990  77.9199997
  75.6849809 112.4215830  77.6128572  59.7519992  98.6414990  90.1879997
  58.8589992  98.9794990  90.1209997  59.6529992  97.7854990  90.6059997
  59.6165241  98.5720941  90.2352982  72.0399992 106.4574990  79.6119997
  71.7629992 105.7294990  80.1679997  72.9669992 106.5764990  79.8179997
  72.1274181 106.3740068  79.7158972  59.4029992 110.4454990  88.6229997
  59.6199992 109.5134990  88.5919997  59.6499992 110.7204990  89.5069997
  59.4660543 110.3550877  88.7381412  60.6549992 105.7194990  78.7989997
  59.9689992 106.0724990  79.3659997  61.1779992 106.4824990  78.5529997
  60.6319033 105.8708757  78.8432644  68.4859992  98.3824990  89.0779997
  69.1849992  98.4564990  89.7279997  68.1059992  97.5174990  89.2329997
  68.5302095  98.2757402  89.1877982  69.2709992  98.0344990  80.1749997
  69.4909992  98.5054990  79.3719997  69.8289992  98.4284990  80.8459997
  69.3765851  98.1523272  80.1556134  66.9399992 110.1644990  79.0379997
  66.1229992 110.6614990  79.0909997  67.4689992 110.6404990  78.3979997
  66.8997898 110.2968123  78.9587274  66.4709992  99.7624990  81.0099997
  67.2829992 100.2664990  81.0559997  66.2259992  99.6174990  81.9239997
  66.5491091  99.8119366  81.1398552  67.0069992 100.7484990  90.1949997
  67.1259992 101.3224990  90.9519997  67.6619992 100.0604990  90.3099997
  67.1118684 100.7340205  90.3141656  64.2779992 111.2084990  79.0199997
  64.4389992 112.0084990  78.5189997  64.0809992 111.5154990  79.9049997
  64.2733919 111.3594140  79.0710988  63.0119992  97.9064990  78.6359997
  62.9289992  98.7944990  78.9819997  63.9019992  97.6414990  78.8669997
  63.1209751  97.9922482  78.7146066  73.2109992  98.6554990  91.0299997
  72.2949992  98.9174990  90.9419997  73.5469992  98.6524990  90.1329997
  73.1309789  98.6909637  90.8967829  71.8129992 102.4054990  85.1259997
  71.0159992 101.9904990  84.7969997  72.2579992 101.7154990  85.6169997
  71.7640317 102.2553197  85.1473556  72.8999992 111.6614990  86.7479997
  72.7439992 112.3404990  86.0909997  73.8319992 111.7334990  86.9509997
  73.0047328 111.7641586  86.6855529  60.3949992  95.7794990  85.4849997
  60.1659992  95.8384990  84.5579997  59.9519992  94.9884990  85.7919997
  60.3037387  95.6806412  85.3995223  59.3249992 109.7204990  81.6459997
  58.4929992 110.1924990  81.6729997  59.8709992 110.2304990  81.0469997
  59.2848710 109.8540317  81.5687570  58.6139992 112.3324990  92.9759997
  59.1539992 112.1164990  93.7349997  58.1319992 111.5274990  92.7859997
  58.6229101 112.1940216  93.0544364  63.2109992 111.2524990  94.5959997
  63.9789992 110.7934990  94.9369997  63.1899992 111.0264990  93.6659997
  63.3132135 111.1591680  94.5169473  69.7879992 109.6324990  93.3249997
  69.4369992 108.7754990  93.5679997  70.5139992 109.7744990  93.9319997
  69.8381590 109.5345189  93.4402889  58.5209992 106.1434990  93.9299997
  58.6649992 105.2414990  93.6439997  57.7479992 106.4294990  93.4419997
  58.4362854 106.0586876  93.8249363  65.1759992 106.1124990  93.3629997
  64.8479992 106.3834990  92.5049997  65.3279992 105.1714990  93.2749997
  65.1516970 106.0223694  93.2337953  70.9109992 106.0284990  90.7459997
  71.6559992 106.6174990  90.6259997  70.1529992 106.6104990  90.8089997
  70.9105185 106.1877000  90.7380940  59.3529992 103.3434990  93.3499997
  59.7609992 102.4864990  93.2289997  59.0929992 103.3574990  94.2709997
  59.3737082 103.2280596  93.4579469  64.0109992 104.4594990  78.3679997
  63.5519992 103.9754990  79.0539997  64.2659992 103.7904990  77.7319997
  63.9826178 104.3028511  78.3759785  63.2999992 102.3524990  90.7239997
  62.6819992 103.0264990  91.0049997  63.6439992 102.6734990  89.8909997
  63.2618181 102.4883233  90.6498266  68.3199992 104.8234990  94.0019997
  69.2729992 104.9074990  93.9739997  68.1599992 104.1114990  94.6209997
  68.4288161 104.7387198  94.0818689  63.6399992  99.7074990  91.8069997
  63.7899992  98.9784990  91.2039997  63.6419992 100.4844990  91.2479997
  63.6607664  99.7128971  91.6490525  64.0519992  98.0764990  89.2989997
  64.5879992  98.5284990  88.6469997  63.1999992  97.9684990  88.8769997
  64.0101648  98.1237883  89.1526395  65.6339992 103.5164990  89.5389997
  66.3849992 103.3604990  88.9659997  65.2949992 104.3684990  89.2629997
  65.6909052 103.6102745  89.4233469  70.0499992 101.3314990  94.5669997
  70.2419992 100.4004990  94.4559997  70.9069992 101.7564990  94.5569997
  70.1922320 101.2614743  94.5504433  71.3659992 104.1204990  92.6449997
  71.0849992 104.8294990  92.0669997  72.3089992 104.0474990  92.4939997
  71.4549272 104.2076704  92.5454976  62.1179992 100.9054990  93.7179997
  61.3509992 100.3724990  93.5079997  62.7969992 100.5954990  93.1189997
  62.1048292 100.7906360  93.6082693  64.8579992  95.5334990  89.7309997
  64.7599992  96.4794990  89.6249997  64.1149992  95.1604990  89.2549997
  64.7442363  95.6125987  89.6522029  66.1219992  99.8544990  93.2939997
  65.8859992  99.6354990  94.1959997  65.3389992  99.6474990  92.7849997
  65.9838444  99.7965688  93.3484518  68.8379992  98.9824990  92.3699997
  67.8899992  99.0144990  92.5019997  69.1499992  98.3564990  93.0239997
  68.7505293  98.9022934  92.4764130  70.4719992  97.6164990  94.3749997
  70.3749992  96.6644990  94.3689997  70.1499992  97.8844990  95.2359997
  70.4152229  97.5224706  94.4905108  60.2989992  98.8254990  93.4229997
  60.5099992  98.1194990  92.8119997  60.1869992  98.3884990  94.2669997
  60.3127674  98.6696376  93.4534199  65.0799992  94.8274990  92.4019997
  65.7909992  94.1874990  92.3879997  64.9789992  95.0934990  91.4879997
  65.1636732  94.7758451  92.2765475  65.4329992  96.5094990  94.4559997
  65.3019992  96.0344990  93.6349997  64.8339992  97.2544990  94.3999997
  65.3341524  96.5451968  94.3361553  57.1969992 113.4224990  82.1919997
  56.5499992 112.9604990  81.6589997  57.5519992 112.7504990  82.7749997
  57.1563861 113.2684707  82.1977939  58.0669992 111.5024990  83.9969997
  57.7329992 110.6224990  84.1689997  58.2889992 111.8484990  84.8609997
  58.0512677 111.4287365  84.1374252  75.6159992 112.3124990  86.9769997
  75.5939992 112.4974990  87.9159997  76.3059992 112.8804990  86.6359997
  75.7063439 112.4146898  87.0594774  75.1789992 111.8794990  89.8989997
  74.6919992 111.1434990  89.5279997  75.7279992 111.4854990  90.5769997
  75.1866101 111.7256267  89.9399034  73.6299992 107.6694990  94.5369997
  72.7639992 107.5644990  94.9309997  74.0059992 108.4274990  94.9839997
  73.5623768 107.7576151  94.6513258  74.9309992 105.9254990  80.0509997
  75.7809992 106.3464990  80.1789997  74.9359992 105.1854990  80.6589997
  75.0479745 105.8831347  80.1506479  75.3249992 103.9794990  81.8749997
  74.5989992 103.4994990  82.2729997  75.9059992 104.1844990  82.6069997
  75.3042504 103.9415592  82.0284199  75.0839992 106.7644990  86.8229997
  75.9179992 106.3864990  86.5419997  75.1959992 107.7074990  86.7039997
  75.2131917 106.8402954  86.7684844  73.5699992 109.6424990  89.1299997
  72.9229992 109.9674990  89.7549997  73.0529992 109.2014990  88.4549997
  73.4114068 109.6274726  89.1244918  75.5929992 103.8804990  78.2659997
  75.0719992 104.2364990  77.5469997  75.5599992 104.5554990  78.9439997
  75.5171525 104.0205273  78.2591408  73.9419992 101.1194990  76.8169997
  74.0389992 101.7864990  76.1369997  73.8019992 100.3044990  76.3349997
  73.9363428 101.1005667  76.6588311  73.1119992 102.5004990  82.4379997
  72.9619992 101.5554990  82.4179997  72.7579992 102.7814990  83.2819997
  73.0436351 102.4091656  82.5493202  58.1469992 104.5784990  86.4479997
  58.3309992 104.4964990  85.5129997  58.9959992 104.4544990  86.8719997
  58.2870259 104.5504915  86.3771771  73.9679992 104.4704990  92.0769997
  74.5509992 103.7354990  92.2679997  74.5319992 105.2424990  92.1229997
  74.1240326 104.4742746  92.1093579  75.4649992 102.3734990  92.7609997
  74.6009992 101.9944990  92.5959997  76.0689992 101.6344990  92.6869997
  75.4284912 102.2217937  92.7284360  73.4339992 100.6644990  86.3359997
  74.3669992 100.8764990  86.3019997  73.1989992 100.7654990  87.2589997
  73.5298357 100.7071303  86.4560232  73.4629992 101.4014990  89.1119997
  72.6199992 101.6694990  89.4779997  73.9059992 102.2234990  88.9009997
  73.4074358 101.5493294  89.1335999  57.7439992  99.8484990  92.5889997
  58.6639992  99.7264990  92.8249997  57.2949992  99.0984990  92.9779997
  57.8091561  99.7303720  92.6739015  75.7459992  95.3814990  94.4659997
  76.0959992  94.7274990  93.8599997  75.8929992  96.2184990  94.0259997
  75.8137192  95.4052545  94.3236712  58.9659992  98.1614990  85.4799997
  59.4109992  97.3694990  85.7819997  59.4319992  98.8774990  85.9109997
  59.0899059  98.1499485  85.5796061  57.2699992 101.1604990  86.5489997
  57.7619992 100.9394990  85.7589997  57.6319992 102.0004990  86.8299997
  57.3863429 101.2438220  86.4787918  75.2659992  97.4904990  92.8149997
  74.3489992  97.7614990  92.7789997  75.3889992  96.9554990  92.0309997
  75.1570828  97.4552711  92.7040767  75.3019992  97.4134990  77.4769997
  75.7149992  96.6924990  77.0009997  75.9839992  98.0824990  77.5349997
  75.4505712  97.4054304  77.4198247  57.5829992  97.4184990  80.6039997
  56.6579992  97.6264990  80.4739997  58.0369992  97.9024990  79.9139997
  57.5177401  97.5123895  80.4929433  72.3539992 112.4024990  82.5489997
  73.0059992 112.0544990  81.9409997  72.8649992 112.8904990  83.1949997
  72.5122872 112.4208248  82.5530964  57.5469992  96.1564990  88.9479997
  56.8819992  95.9104990  89.5909997  57.1039992  96.7784990  88.3709997
  57.3961168  96.2069225  88.9579830  59.7389992 109.3314990  93.0919997
  58.9179992 109.5064990  92.6319997  59.4869992 109.2584990  94.0129997
  59.5926173 109.3455806  93.1534954  62.6929992 110.3054990  89.3509997
  62.2679992 111.1154990  89.0679997  63.5969992 110.3914990  89.0489997
  62.7571002 110.4278728  89.2714798  67.0039992 111.7044990  92.3099997
  67.1889992 111.3714990  93.1879997  67.8509992 112.0144990  91.9879997
  67.1437291 111.7008214  92.3866140  69.3489992 112.9904990  91.5539997
  70.0259992 112.3574990  91.3139997  69.6709992 113.3914990  92.3619997
  69.4851280 112.9580638  91.6303190  74.2669992  95.5804990  90.6339997
  73.4539992  95.9054990  90.2459997  74.4999992  94.8194990  90.1009997
  74.1872566  95.5221570  90.5089196  60.0949992 113.5624990  89.3979997
  59.3739992 114.0024990  88.9469997  59.7289992 113.3114990  90.2469997
  59.9469785 113.5887691  89.4509849  62.5619992 113.1624990  88.4279997
  61.6969992 113.2344990  88.8319997  62.5069992 113.7094990  87.6439997
  62.4362066 113.2462678  88.3773371  67.2729992 113.0504990  87.6039997
  66.8159992 113.5794990  86.9499997  67.4349992 113.6534990  88.3289997
  67.2323919 113.2043990  87.6125740  69.5999992 111.9284990  88.5489997
  68.6959992 112.0934990  88.2829997  70.0289992 112.7814990  88.4829997
  69.5342017 112.0664184  88.5036495  72.2039992 113.4984990  88.8439997
  72.0229992 114.4144990  88.6329997  72.3809992 113.0874990  87.9969997
  72.2031377 113.5683365  88.7007178  59.5099992 112.1854990  86.3089997
  59.4909992 111.7594990  87.1659997  60.3139992 111.8664990  85.8999997
  59.6161393 112.0840297  86.3710155  61.6509992 110.8954990  84.9639997
  61.4319992 109.9784990  85.1329997  62.4749992 111.0354990  85.4299997
  61.7324637 110.7889586  85.0501414  64.1879992 111.3654990  85.8119997
  64.4009992 110.4774990  85.5249997  64.2529992 111.3304990  86.7669997
  64.2259075 111.2393318  85.9017355  67.6969992  97.0294990  84.9569997
  67.0219992  96.3994990  85.2119997  68.2609992  96.5454990  84.3539997
  67.6809558  96.8779283  84.9103451  72.8389992  95.1364990  85.0689997
  73.4429992  95.6844990  84.5679997  71.9699992  95.4554990  84.8289997
  72.8041126  95.2547070  84.9679180  74.5659992  96.2754990  83.4029997
  75.1779992  95.7614990  82.8759997  74.9489992  97.1524990  83.4259997
  74.7013867  96.3237613  83.3340888  60.0229992  95.6634990  82.7789997
  59.2459992  95.4284990  82.2709997  60.5539992  94.8664990  82.7879997
  59.9884443  95.5236721  82.7107200  58.8599992  95.4614990  78.5819997
  59.2989992  96.0724990  77.9909997  58.2259992  95.9994990  79.0559997
  58.8344103  95.6179233  78.5651376  64.6029992  95.5894990  82.5919997
  65.4769992  95.9784990  82.5619997  64.4669992  95.3744990  83.5149997
  64.7043125  95.6137120  82.7126523  58.7609992 111.4094990  79.4799997
  58.0759992 111.3714990  78.8119997  58.7639992 112.3214990  79.7679997
  58.6677358 111.5276744  79.4276145  65.7469992  97.6704990  79.4819997
  65.9249992  97.0234990  80.1649997  65.6929992  98.5044990  79.9489997
  65.7640678  97.6946615  79.6386283  74.3339992 112.1814990  80.5569997
  74.1399992 111.4334990  79.9919997  74.2949992 112.9394990  79.9729997
  74.3021907 112.1815770  80.4008077  59.9809992  96.1774990  92.2959997
  59.6149992  95.4114990  92.7389997  60.8939992  96.2064990  92.5829997
  60.0543225  96.0766917  92.3953441  61.9539992  95.5274990  93.8319997
  62.8529992  95.2534990  93.6469997  61.5679992  94.7854990  94.2959997
  62.0247237  95.3896520  93.8694693  70.3749992  94.8604990  94.0139997
  70.4519992  94.4344990  94.8679997  71.2689992  94.8734990  93.6719997
  70.5063315  94.8040320  94.0845052  73.5519992 110.9324990  92.7069997
  72.7699992 110.7464990  92.1869997  73.4799992 111.8624990  92.9239997
  73.4352975 111.0326973  92.6651823  87.9579992 104.8194990  82.7369997
  88.0469992 105.7634990  82.6049997  87.3189992 104.5444990  82.0789997
  87.8838319 104.9114984  82.6300276  86.8909992 104.0744990  86.1559997
  86.8519992 103.4284990  86.8609997  86.5679992 103.6074990  85.3849997
  86.8420199 103.9230089  86.1482865  79.2589992 103.6884990  87.7489997
  79.2999992 103.0634990  88.4729997  79.9619992 104.3124990  87.9309997
  79.3596054 103.6873262  87.8726311  90.5969992 107.0134990  84.4579997
  90.1559992 106.2934990  84.9079997  90.5839992 107.7344990  85.0879997
  90.5348398 107.0123187  84.6047734  80.1829992 108.1384990  86.2839997
  79.8129992 107.3364990  85.9149997  81.1239992 107.9704990  86.3309997
  80.2595630 108.0058680  86.2397873  76.7929992 101.7984990  81.6769997
  76.3449992 102.6444990  81.6589997  76.2319992 101.2194990  81.1619997
  76.6558546 101.8359004  81.6048874  77.5029992 103.9604990  83.8029997
  77.7169992 103.1904990  84.3299997  78.2409992 104.0504990  83.1999997
  77.6320073 103.8673546  83.7935786  87.7079992 112.1174990  84.6699997
  88.3279992 111.4414990  84.3969997  87.4999992 111.8994990  85.5779997
  87.7647360 111.9954792  84.7554387  85.2799992 106.5064990  86.5619997
  85.5839992 105.8204990  85.9679997  86.0019992 106.6254990  87.1799997
  85.4191152 106.4287201  86.5642106  93.9429992  98.1084990  87.4229997
  93.9919992  98.7184990  88.1589997  94.3689992  98.5694990  86.6999997
  94.0072851  98.2543266  87.4260532  88.4209992 100.9004990  86.8899997
  88.5629992  99.9544990  86.9099997  88.3149992 101.1074990  85.9609997
  88.4261158 100.7989722  86.7672241  81.5759992  99.0024990  84.1619997
  81.6189992  99.8624990  83.7439997  81.1179992  98.4494990  83.5289997
  81.5199613  99.0455689  84.0191276  89.2979992  99.1334990  82.5629997
  89.9439992  98.8044990  83.1879997  89.8079992  99.6504990  81.9399997
  89.4554392  99.1583710  82.5643248  78.1959992 101.3994990  84.9239997
  78.8499992 100.8494990  85.3559997  78.2199992 101.1254990  84.0079997
  78.2887022 101.2872005  84.8591698  83.3519992 102.9494990  84.1399997
  83.9679992 102.4224990  84.6489997  82.7659992 102.3094990  83.7359997
  83.3570652 102.7908919  84.1550277  94.3349992  99.5864990  89.6589997
  93.6459992 100.2444990  89.5639997  94.3499992  99.3884990  90.5959997
  94.2427756  99.6497614  89.7725795  80.3859992  97.9204990  88.2359997
  80.1669992  98.4504990  87.4699997  79.7179992  98.1464990  88.8839997
  80.2657271  98.0236508  88.2186206  87.7549992 107.4204990  81.7799997
  87.4589992 107.0974990  80.9289997  87.4309992 108.3204990  81.8219997
  87.6706501 107.4979058  81.6690893  82.9549992 105.5954990  88.5239997
  82.2149992 106.1944990  88.6269997  83.6689992 106.1494990  88.2079997
  82.9503288 105.7522368  88.4953787  91.0619992  98.4244990  84.5439997
  90.8469992  97.6584990  85.0759997  91.7179992  98.8964990  85.0569997
  91.1212451  98.3834472  84.6861699  79.9799992  99.8124990  86.1889997
  80.5929992 100.4454990  86.5619997  80.4919992  99.3404990  85.5319997
  80.1331680  99.8354006  86.1512830  81.3619992 107.5604990  89.3109997
  81.3569992 108.4394990  88.9329997  80.5089992 107.4764990  89.7359997
  81.2459199 107.6695901  89.3166942  77.4839992 107.2314990  80.0929997
  77.2119992 107.4604990  79.2039997  77.5289992 108.0684990  80.5529997
  77.4528709 107.3761069  80.0336089  91.1089992 108.8524990  86.8059997
  90.1669992 108.9114990  86.9669997  91.3849992 109.7584990  86.6689997
  91.0175771 108.9830270  86.8094827  91.4089992  97.1394990  88.2229997
  90.6729992  97.7494990  88.1849997  92.0929992  97.5544990  87.6969997
  91.4005885  97.2791924  88.1466931  84.4119992  95.2254990  85.6889997
  84.2949992  94.2774990  85.6349997  83.5569992  95.5584990  85.9619997
  84.2803691  95.1405842  85.7185072  89.3609992 110.6334990  83.4309997
  89.7859992 109.9264990  82.9459997  89.6779992 111.4354990  83.0139997
  89.4620266 110.6450201  83.3082461  90.5199992 108.5344990  81.9399997
  90.2629992 107.8444990  81.3279997  90.5909992 108.0914990  82.7849997
  90.4944322 108.3801568  81.9705372  92.2059992 107.1014990  90.4169997
  92.3459992 106.5094990  89.6779997  92.3739992 107.9744990  90.0609997
  92.2478734 107.1384041  90.2676937  94.0479992 103.4414990  88.4829997
  93.3959992 104.1354990  88.5719997  94.5129992 103.6514990  87.6729997
  94.0215357 103.5649544  88.3857056  90.0849992 104.2724990  81.1409997
  89.3529992 104.5014990  81.7139997  90.5319992 103.5594990  81.5959997
  90.0452753 104.2073984  81.2809698  89.9819992 102.4474990  90.2089997
  90.0619992 103.2104990  90.7809997  89.3809992 102.7264990  89.5179997
  89.9117115 102.5897707  90.1939631  81.7299992 104.9034990  83.0239997
  81.3999992 104.5324990  82.2049997  82.3179992 104.2324990  83.3699997
  81.7644056 104.7621257  82.9589035  83.0969992 108.3314990  85.7049997
  83.0019992 107.7524990  84.9479997  83.8259992 107.9604990  86.2009997
  83.1826161 108.2020902  85.6685192  82.0969992 103.6714990  86.6569997
  82.6619992 103.7934990  85.8939997  82.4149992 104.3094990  87.2959997
  82.2173430 103.7744448  86.6389094  88.4059992 109.1754990  87.3909997
  88.1649992 109.8374990  88.0389997  88.2079992 108.3404990  87.8159997
  88.3462662 109.1532704  87.5371008  82.9769992 108.0714990  91.3739997
  82.6649992 108.8534990  91.8299997  82.3269992 107.9184990  90.6879997
  82.8464643 108.1578019  91.3436657  88.9559992 103.4354990  78.8259997
  89.5349992 103.5854990  79.5729997  89.3699992 103.9054990  78.1029997
  89.0913122 103.5196288  78.8305024  79.8969992 104.2694990  90.6029997
  79.9669992 104.9204990  91.3009997  79.0059992 104.3724990  90.2679997
  79.7861802 104.3724769  90.6532231  86.6819992 110.1714990  82.2619997
  87.1559992 110.4674990  83.0389997  86.1189992 110.9104990  82.0279997
  86.6708461 110.3118336  82.3367626  81.2159992 110.1424990  92.1379997
  81.2239992 110.0064990  91.1899997  80.2999992 110.0254990  92.3899997
  81.0932512 110.1080663  92.0423179  92.6539992  95.1854990  78.6389997
  91.7539992  95.3234990  78.9339997  92.9059992  96.0164990  78.2369997
  92.5647355  95.3168200  78.6250539  80.7199992 103.9724990  80.6129997
  80.4279992 104.7404990  80.1219997  80.0459992 103.3134990  80.4499997
  80.5888843 103.9884537  80.5237695  76.8129992 106.3354990  89.4279997
  76.3119992 106.3074990  88.6129997  76.8189992 105.4304990  89.7379997
  76.7451690 106.2092234  89.3582770  76.5639992 109.1164990  86.3119997
  77.5099992 108.9714990  86.2929997  76.4509992 109.9004990  86.8489997
  76.6783578 109.2026708  86.3820300  94.7609992 109.7824990  91.9939997
  94.7119992 108.8264990  91.9569997  93.9349992 110.0494990  92.3959997
  94.6425767 109.6878841  92.0433133  85.7399992 109.3564990  90.8699997
  85.8269992 110.1824990  91.3449997  84.8759992 109.0264990  91.1189997
  85.6351944 109.4249871  90.9686558  86.1539992 113.1284990  80.6759997
  86.0789992 113.0074990  79.7299997  86.1869992 114.0774990  80.7949997
  86.1481862 113.2402492  80.5624840  79.8079992 111.9174990  82.4569997
  79.9599992 111.5694990  83.3359997  78.9569992 111.5604990  82.2019997
  79.7137899 111.8216749  82.5427322  88.9249992 112.2084990  80.4279997
  87.9899992 112.3084990  80.6069997  89.2049992 111.4984990  81.0059997
  88.8349270 112.1262300  80.5305984  91.9129992 101.2754990  92.4739997
  91.5059992 101.7554990  91.7539997  91.9539992 100.3694990  92.1669997
  91.8627178 101.2188609  92.3337441  79.0619992 107.6594990  90.4709997
  79.2779992 107.2974990  91.3309997  78.2069992 107.2844990  90.2609997
  78.9759349 107.5592914  90.5602134  81.6809992  96.1294990  86.4669997
  80.8189992  96.0424990  86.0589997  81.6589992  96.9854990  86.8939997
  81.5600953  96.2333558  86.4689262  86.3439992  95.8514990  89.8409997
  86.7639992  95.4364990  90.5939997  85.4109992  95.6724990  89.9579997
  86.2753736  95.7704921  89.9598950  89.6699992  99.6064990  90.6949997
  89.1559992  99.4814990  91.4919997  89.5149992 100.5194990  90.4499997
  89.5786643  99.7127068  90.7710624  81.7719992 101.0944990  87.5619997
  81.1299992 101.0544990  88.2709997  81.8089992 102.0214990  87.3239997
  81.6891659 101.2142540  87.6268463  81.7689992 101.3154990  82.4739997
  80.8759992 100.9754990  82.4149997  82.2199992 100.9384990  81.7179997
  81.7077185 101.2180220  82.3637698  87.3049992 101.7314990  81.2909997
  86.8959992 102.5464990  80.9989997  88.0249992 101.5914990  80.6759997
  87.3463946 101.8239963  81.1679616  86.4069992 101.9074990  92.7789997
  85.8439992 101.2024990  93.0989997  87.2329992 101.7864990  93.2459997
  86.4416423 101.7945614  92.8860168  88.3089992 101.1774990  84.1049997
  88.1139992 101.7834990  83.3899997  88.4909992 100.3444990  83.6699997
  88.3069272 101.1477955  83.9484075  79.5219992 101.4154990  89.4289997
  79.4839992 101.8154990  90.2969997  79.0309992 100.5984990  89.5189997
  79.4504246 101.3598842  89.5601171  82.8879992  98.7894990  76.2269997
  82.4569992  98.3444990  76.9569997  82.1699992  99.1604990  75.7149997
  82.7319363  98.7787979  76.2576194  76.1299992  98.5314990  83.2789997
  76.7609992  98.5024990  83.9989997  76.5799992  98.1064990  82.5489997
  76.2770905  98.4700839  83.2787479  77.4039992  99.2774990  78.7029997
  77.8789992  99.8684990  78.1179997  76.6869992  99.8074990  79.0499997
  77.3720406  99.4301011  78.6698495  87.5729992 102.8154990  88.7759997
  87.8969992 102.1844990  88.1329997  87.1329992 102.2814990  89.4369997
  87.5578707 102.6568261  88.7773195  84.3509992  98.7434990  83.5599997
  83.4399992  98.8004990  83.8489997  84.8559992  98.6834990  84.3709997
  84.2946873  98.7431838  83.7091190  79.1789992 100.3724990  82.3869997
  78.2899992 100.4714990  82.0469997  79.4749992  99.5304990  82.0409997
  79.0974001 100.2722473  82.2937318  82.8319992 100.3724990  80.0429997
  83.7639992 100.5014990  80.2209997  82.6169992 101.0414990  79.3939997
  82.9304245 100.4806452  79.9795602  88.7559992  97.9784990  86.8239997
  88.0789992  98.1094990  87.4879997  88.2699992  97.8234990  86.0139997
  88.5977265  97.9754665  86.8053380  92.0429992 113.6494990  93.1009997
  92.2429992 114.0734990  92.2659997  92.6989992 113.9934990  93.7079997
  92.1589916 113.7539784  93.0687890  79.6409992 106.1234990  92.7089997
  80.3729992 106.3784990  93.2699997  78.8609992 106.3284990  93.2239997
  79.6357684 106.1861457  92.8554774  85.6709992 101.5304990  85.4469997
  86.2349992 100.9844990  84.8999997  85.5229992 101.0094990  86.2359997
  85.7283037 101.3851798  85.4787212  80.6729992  97.6674990  81.8649997
  80.3549992  96.7644990  81.8299997  81.4539992  97.6694990  81.3129997
  80.7351560  97.5441148  81.7854975  84.2969992  99.9194990  87.8609997
  83.4619992 100.3734990  87.9709997  84.8209992 100.1954990  88.6129997
  84.2535070 100.0189677  87.9777134  84.8409992 106.1324990  79.5459997
  84.0959992 105.6244990  79.2229997  84.7069992 106.1814990  80.4919997
  84.7208633 106.0695714  79.6297563  91.9909992 105.2654990  88.3319997
  92.6329992 105.7214990  87.7889997  91.1609992 105.3784990  87.8699997
  91.9667352 105.3433223  88.1950234  86.3609992 106.3164990  90.7829997
  86.0149992 105.9344990  91.5889997  86.1609992 107.2494990  90.8539997
  86.2865400 106.3903489  90.9030401  89.4569992 100.8134990  79.4059997
  90.3489992 100.6754990  79.7249997  89.5139992 101.6044990  78.8689997
  89.5867380 100.9014777  79.3770981  79.9659992 105.4274990  85.3149997
  80.7109992 105.4244990  84.7139997  80.0439992 104.6034990  85.7969997
  80.0784158 105.3157928  85.2979136  86.9669992 107.5904990  78.5709997
  86.6719992 108.4174990  78.9529997  86.2639992 106.9714990  78.7669997
  86.8315855 107.6199458  78.6497634  76.9739992 103.8874990  90.6299997
  77.1969992 103.4694990  91.4619997  76.3719992 103.2754990  90.2079997
  76.9230802 103.7475216  90.6867561  83.9909992 103.4044990  92.8429997
  83.6949992 103.2394990  91.9479997  84.9219992 103.1844990  92.8329997
  84.0763909 103.3521274  92.7190110  88.6109992 108.7784990  90.7329997
  87.7099992 108.9614990  90.4649997  88.6449992 109.0374990  91.6539997
  88.4923021 108.8385505  90.8208206  94.3049992 106.8234990  91.9369997
  93.4539992 107.0614990  91.5699997  94.8959992 106.8064990  91.1839997
  94.2682468 106.8538251  91.7848902  92.6369992 109.8084990  79.5649997
  92.2649992 108.9834990  79.8749997  92.9149992 109.6254990  78.6679997
  92.6235997 109.6706160  79.4861551  89.7979992 104.6164990  86.5869997
  88.8699992 104.3854990  86.5599997  90.2489992 103.8394990  86.2569997
  89.7318165 104.4797785  86.5386772  82.3409992 108.9454990  82.7199997
  82.8679992 109.7184990  82.5189997  81.4609992 109.1694990  82.4179997
  82.2941793 109.0816652  82.6516304  78.0959992 103.8074990  77.3069997
  78.7119992 104.4344990  77.6859997  77.2339992 104.1234990  77.5779997
  78.0638195 103.9360810  77.3955369  83.7679992 106.6084990  82.2959997
  83.5269992 107.5334990  82.3379997  83.0279992 106.1494990  82.6919997
  83.6348934 106.6730881  82.3553191  84.2829992 110.7574990  88.6109997
  84.6459992 111.6114990  88.3779997  84.8149992 110.4654990  89.3519997
  84.4045141 110.8348907  88.6792079  82.4509992 111.6294990  81.8409997
  81.5019992 111.7354990  81.8929997  82.8029992 112.4504990  82.1859997
  82.3686214 111.7549361  81.8947317  87.8269992 106.8564990  88.3119997
  87.4009992 106.6284990  89.1379997  88.4079992 106.1174990  88.1289997
  87.8471587 106.7254084  88.4004111  90.4859992 111.4084990  90.7809997
  89.8839992 110.8524990  90.2859997  90.7669992 112.0754990  90.1549997
  90.4415757 111.4225755  90.6285657  94.5329992 112.2644990  77.5869997
  95.2769992 112.8504990  77.4469997  93.8389992 112.8334990  77.9199997
  94.5409809 112.4215830  77.6128572  78.6079992  98.6414990  90.1879997
  77.7149992  98.9794990  90.1209997  78.5089992  97.7854990  90.6059997
  78.4725241  98.5720941  90.2352982  90.8959992 106.4574990  79.6119997
  90.6189992 105.7294990  80.1679997  91.8229992 106.5764990  79.8179997
  90.9834181 106.3740068  79.7158972  78.2589992 110.4454990  88.6229997
  78.4759992 109.5134990  88.5919997  78.5059992 110.7204990  89.5069997
  78.3220543 110.3550877  88.7381412  83.0579992 108.4674990  78.2889997
  83.2049992 107.9474990  79.0789997  83.0549992 109.3744990  78.5949997
  83.0777300 108.5188975  78.4385877  79.5109992 105.7194990  78.7989997
  78.8249992 106.0724990  79.3659997  80.0339992 106.4824990  78.5529997
  79.4879033 105.8708757  78.8432644  87.3419992  98.3824990  89.0779997
  88.0409992  98.4564990  89.7279997  86.9619992  97.5174990  89.2329997
  87.3862095  98.2757402  89.1877982  88.1269992  98.0344990  80.1749997
  88.3469992  98.5054990  79.3719997  88.6849992  98.4284990  80.8459997
  88.2325851  98.1523272  80.1556134  85.7959992 110.1644990  79.0379997
  84.9789992 110.6614990  79.0909997  86.3249992 110.6404990  78.3979997
  85.7557898 110.2968123  78.9587274  85.3269992  99.7624990  81.0099997
  86.1389992 100.2664990  81.0559997  85.0819992  99.6174990  81.9239997
  85.4051091  99.8119366  81.1398552  85.8629992 100.7484990  90.1949997
  85.9819992 101.3224990  90.9519997  86.5179992 100.0604990  90.3099997
  85.9678684 100.7340205  90.3141656  86.2109992  96.8434990  81.9479997
  85.8639992  97.4604990  82.5929997  86.8689992  97.3444990  81.4669997
  86.2525290  96.9956384  81.9711635  81.8679992  97.9064990  78.6359997
  81.7849992  98.7944990  78.9819997  82.7579992  97.6414990  78.8669997
  81.9769751  97.9922482  78.7146066  92.0669992  98.6554990  91.0299997
  91.1509992  98.9174990  90.9419997  92.4029992  98.6524990  90.1329997
  91.9869789  98.6909637  90.8967829  90.6689992 102.4054990  85.1259997
  89.8719992 101.9904990  84.7969997  91.1139992 101.7154990  85.6169997
  90.6200317 102.2553197  85.1473557  80.1269992 108.3334990  77.6959997
  80.7189992 109.0334990  77.9719997  80.5859992 107.9004990  76.9769997
  80.2701172 108.3707371  77.6365163  78.4429992 100.9984990  76.8119997
  78.3979992 101.9374990  76.9909997  77.5549992 100.7624990  76.5419997
  78.3168472 101.0951946  76.8000282  91.7559992 111.6614990  86.7479997
  91.5999992 112.3404990  86.0909997  92.6879992 111.7334990  86.9509997
  91.8607328 111.7641586  86.6855529  79.2509992  95.7794990  85.4849997
  79.0219992  95.8384990  84.5579997  78.8079992  94.9884990  85.7919997
  79.1597387  95.6806412  85.3995223  78.1809992 109.7204990  81.6459997
  77.3489992 110.1924990  81.6729997  78.7269992 110.2304990  81.0469997
  78.1408710 109.8540317  81.5687570  77.4699992 112.3324990  92.9759997
  78.0099992 112.1164990  93.7349997  76.9879992 111.5274990  92.7859997
  77.4789101 112.1940216  93.0544364  82.0669992 111.2524990  94.5959997
  82.8349992 110.7934990  94.9369997  82.0459992 111.0264990  93.6659997
  82.1692135 111.1591680  94.5169473  88.6439992 109.6324990  93.3249997
  88.2929992 108.7754990  93.5679997  89.3699992 109.7744990  93.9319997
  88.6941590 109.5345189  93.4402889  77.3769992 106.1434990  93.9299997
  77.5209992 105.2414990  93.6439997  76.6039992 106.4294990  93.4419997
  77.2922854 106.0586876  93.8249363  84.0319992 106.1124990  93.3629997
  83.7039992 106.3834990  92.5049997  84.1839992 105.1714990  93.2749997
  84.0076970 106.0223694  93.2337953  87.0699992 107.5334990  75.7979997
  86.8019992 107.7144990  76.6989997  86.8639992 106.6084990  75.6669997
  87.0054251 107.4331528  75.9036809  89.7669992 106.0284990  90.7459997
  90.5119992 106.6174990  90.6259997  89.0089992 106.6104990  90.8089997
  89.7665185 106.1877000  90.7380940  78.2089992 103.3434990  93.3499997
  78.6169992 102.4864990  93.2289997  77.9489992 103.3574990  94.2709997
  78.2297082 103.2280596  93.4579469  82.1559992 102.3524990  90.7239997
  81.5379992 103.0264990  91.0049997  82.4999992 102.6734990  89.8909997
  82.1178181 102.4883233  90.6498266  87.1759992 104.8234990  94.0019997
  88.1289992 104.9074990  93.9739997  87.0159992 104.1114990  94.6209997
  87.2848161 104.7387198  94.0818689  82.4959992  99.7074990  91.8069997
  82.6459992  98.9784990  91.2039997  82.4979992 100.4844990  91.2479997
  82.5167664  99.7128971  91.6490525  82.9079992  98.0764990  89.2989997
  83.4439992  98.5284990  88.6469997  82.0559992  97.9684990  88.8769997
  82.8661648  98.1237883  89.1526395  84.4899992 103.5164990  89.5389997
  85.2409992 103.3604990  88.9659997  84.1509992 104.3684990  89.2629997
  84.5469052 103.6102745  89.4233469  88.9059992 101.3314990  94.5669997
  89.0979992 100.4004990  94.4559997  89.7629992 101.7564990  94.5569997
  89.0482320 101.2614743  94.5504433  90.2219992 104.1204990  92.6449997
  89.9409992 104.8294990  92.0669997  91.1649992 104.0474990  92.4939997
  90.3109272 104.2076704  92.5454976  80.9739992 100.9054990  93.7179997
  80.2069992 100.3724990  93.5079997  81.6529992 100.5954990  93.1189997
  80.9608292 100.7906360  93.6082693  83.7139992  95.5334990  89.7309997
  83.6159992  96.4794990  89.6249997  82.9709992  95.1604990  89.2549997
  83.6002363  95.6125987  89.6522029  84.9779992  99.8544990  93.2939997
  84.7419992  99.6354990  94.1959997  84.1949992  99.6474990  92.7849997
  84.8398444  99.7965688  93.3484518  87.6939992  98.9824990  92.3699997
  86.7459992  99.0144990  92.5019997  88.0059992  98.3564990  93.0239997
  87.6065293  98.9022934  92.4764130  89.3279992  97.6164990  94.3749997
  89.2309992  96.6644990  94.3689997  89.0059992  97.8844990  95.2359997
  89.2712229  97.5224706  94.4905108  79.1549992  98.8254990  93.4229997
  79.3659992  98.1194990  92.8119997  79.0429992  98.3884990  94.2669997
  79.1687674  98.6696376  93.4534199  83.9359992  94.8274990  92.4019997
  84.6469992  94.1874990  92.3879997  83.8349992  95.0934990  91.4879997
  84.0196732  94.7758451  92.2765475  84.2889992  96.5094990  94.4559997
  84.1579992  96.0344990  93.6349997  83.6899992  97.2544990  94.3999997
  84.1901524  96.5451968  94.3361553  76.0529992 113.4224990  82.1919997
  75.4059992 112.9604990  81.6589997  76.4079992 112.7504990  82.7749997
  76.0123861 113.2684707  82.1977939  76.9229992 111.5024990  83.9969997
  76.5889992 110.6224990  84.1689997  77.1449992 111.8484990  84.8609997
  76.9072677 111.4287365  84.1374252  94.4719992 112.3124990  86.9769997
  94.4499992 112.4974990  87.9159997  95.1619992 112.8804990  86.6359997
  94.5623439 112.4146898  87.0594774  94.0349992 111.8794990  89.8989997
  93.5479992 111.1434990  89.5279997  94.5839992 111.4854990  90.5769997
  94.0426101 111.7256267  89.9399034  92.4859992 107.6694990  94.5369997
  91.6199992 107.5644990  94.9309997  92.8619992 108.4274990  94.9839997
  92.4183768 107.7576151  94.6513258  93.7869992 105.9254990  80.0509997
  94.6369992 106.3464990  80.1789997  93.7919992 105.1854990  80.6589997
  93.9039745 105.8831347  80.1506479  94.1809992 103.9794990  81.8749997
  93.4549992 103.4994990  82.2729997  94.7619992 104.1844990  82.6069997
  94.1602504 103.9415592  82.0284199  93.9399992 106.7644990  86.8229997
  94.7739992 106.3864990  86.5419997  94.0519992 107.7074990  86.7039997
  94.0691917 106.8402954  86.7684844  92.4259992 109.6424990  89.1299997
  91.7789992 109.9674990  89.7549997  91.9089992 109.2014990  88.4549997
  92.2674068 109.6274726  89.1244918  91.9679992 102.5004990  82.4379997
  91.8179992 101.5554990  82.4179997  91.6139992 102.7814990  83.2819997
  91.8996351 102.4091656  82.5493202  77.0029992 104.5784990  86.4479997
  77.1869992 104.4964990  85.5129997  77.8519992 104.4544990  86.8719997
  77.1430259 104.5504915  86.3771771  92.8239992 104.4704990  92.0769997
  93.4069992 103.7354990  92.2679997  93.3879992 105.2424990  92.1229997
  92.9800326 104.4742746  92.1093579  94.3209992 102.3734990  92.7609997
  93.4569992 101.9944990  92.5959997  94.9249992 101.6344990  92.6869997
  94.2844912 102.2217937  92.7284360  91.6779992 100.0824990  80.8999997
  91.9579992  99.1754990  81.0249997  92.4369992 100.5164990  80.5109997
  91.8189471 100.0170654  80.8645052  92.2899992 100.6644990  86.3359997
  93.2229992 100.8764990  86.3019997  92.0549992 100.7654990  87.2589997
  92.3858357 100.7071303  86.4560232  92.3189992 101.4014990  89.1119997
  91.4759992 101.6694990  89.4779997  92.7619992 102.2234990  88.9009997
  92.2634358 101.5493294  89.1335999  76.5999992  99.8484990  92.5889997
  77.5199992  99.7264990  92.8249997  76.1509992  99.0984990  92.9779997
  76.6651561  99.7303720  92.6739015  94.6019992  95.3814990  94.4659997
  94.9519992  94.7274990  93.8599997  94.7489992  96.2184990  94.0259997
  94.6697192  95.4052545  94.3236712  92.2919992  97.3454990  80.9489997
  92.4739992  96.8964990  81.7739997  91.6919992  96.7614990  80.4849997
  92.2358187  97.2050563  80.9992721  77.8219992  98.1614990  85.4799997
  78.2669992  97.3694990  85.7819997  78.2879992  98.8774990  85.9109997
  77.9459059  98.1499485  85.5796061  76.1259992 101.1604990  86.5489997
  76.6179992 100.9394990  85.7589997  76.4879992 102.0004990  86.8299997
  76.2423428 101.2438220  86.4787918  94.1219992  97.4904990  92.8149997
  93.2049992  97.7614990  92.7789997  94.2449992  96.9554990  92.0309997
  94.0130828  97.4552711  92.7040767  76.4389992  97.4184990  80.6039997
  75.5139992  97.6264990  80.4739997  76.8929992  97.9024990  79.9139997
  76.3737401  97.5123895  80.4929433  91.2099992 112.4024990  82.5489997
  91.8619992 112.0544990  81.9409997  91.7209992 112.8904990  83.1949997
  91.3682872 112.4208248  82.5530964  76.4029992  96.1564990  88.9479997
  75.7379992  95.9104990  89.5909997  75.9599992  96.7784990  88.3709997
  76.2521168  96.2069225  88.9579830  78.5949992 109.3314990  93.0919997
  77.7739992 109.5064990  92.6319997  78.3429992 109.2584990  94.0129997
  78.4486173 109.3455806  93.1534954  81.5489992 110.3054990  89.3509997
  81.1239992 111.1154990  89.0679997  82.4529992 110.3914990  89.0489997
  81.6131002 110.4278728  89.2714798  85.8599992 111.7044990  92.3099997
  86.0449992 111.3714990  93.1879997  86.7069992 112.0144990  91.9879997
  85.9997291 111.7008214  92.3866140  88.2049992 112.9904990  91.5539997
  88.8819992 112.3574990  91.3139997  88.5269992 113.3914990  92.3619997
  88.3411280 112.9580638  91.6303190  93.1229992  95.5804990  90.6339997
  92.3099992  95.9054990  90.2459997  93.3559992  94.8194990  90.1009997
  93.0432566  95.5221570  90.5089196  78.9509992 113.5624990  89.3979997
  78.2299992 114.0024990  88.9469997  78.5849992 113.3114990  90.2469997
  78.8029785 113.5887691  89.4509849  81.4179992 113.1624990  88.4279997
  80.5529992 113.2344990  88.8319997  81.3629992 113.7094990  87.6439997
  81.2922066 113.2462678  88.3773371  86.1289992 113.0504990  87.6039997
  85.6719992 113.5794990  86.9499997  86.2909992 113.6534990  88.3289997
  86.0883919 113.2043990  87.6125740  88.4559992 111.9284990  88.5489997
  87.5519992 112.0934990  88.2829997  88.8849992 112.7814990  88.4829997
  88.3902017 112.0664184  88.5036495  91.0599992 113.4984990  88.8439997
  90.8789992 114.4144990  88.6329997  91.2369992 113.0874990  87.9969997
  91.0591377 113.5683365  88.7007178  78.3659992 112.1854990  86.3089997
  78.3469992 111.7594990  87.1659997  79.1699992 111.8664990  85.8999997
  78.4721393 112.0840297  86.3710155  80.5069992 110.8954990  84.9639997
  80.2879992 109.9784990  85.1329997  81.3309992 111.0354990  85.4299997
  80.5884637 110.7889586  85.0501414  83.0439992 111.3654990  85.8119997
  83.2569992 110.4774990  85.5249997  83.1089992 111.3304990  86.7669997
  83.0819075 111.2393318  85.9017355  86.5529992  97.0294990  84.9569997
  85.8779992  96.3994990  85.2119997  87.1169992  96.5454990  84.3539997
  86.5369558  96.8779283  84.9103451  91.6949992  95.1364990  85.0689997
  92.2989992  95.6844990  84.5679997  90.8259992  95.4554990  84.8289997
  91.6601126  95.2547070  84.9679180  93.4219992  96.2754990  83.4029997
  94.0339992  95.7614990  82.8759997  93.8049992  97.1524990  83.4259997
  93.5573867  96.3237613  83.3340888  78.8789992  95.6634990  82.7789997
  78.1019992  95.4284990  82.2709997  79.4099992  94.8664990  82.7879997
  78.8444443  95.5236721  82.7107200  77.7159992  95.4614990  78.5819997
  78.1549992  96.0724990  77.9909997  77.0819992  95.9994990  79.0559997
  77.6904103  95.6179233  78.5651376  83.4589992  95.5894990  82.5919997
  84.3329992  95.9784990  82.5619997  83.3229992  95.3744990  83.5149997
  83.5603125  95.6137120  82.7126523  89.0149992  95.6194990  84.2409997
  89.0919992  95.7154990  83.2919997  88.7399992  94.7124990  84.3699997
  88.9883407  95.5099188  84.1283532  90.3689992  95.6454990  79.9339997
  89.6659992  96.2604990  79.7239997  89.9239992  94.8084990  80.0649997
  90.2126550  95.6164679  79.9229819  77.6169992 111.4094990  79.4799997
  76.9319992 111.3714990  78.8119997  77.6199992 112.3214990  79.7679997
  77.5237358 111.5276744  79.4276145  79.5769992  97.3774990  77.0249997
  80.0679992  96.7474990  76.4969997  80.1999992  97.6734990  77.6879997
  79.7285459  97.3312419  77.0423667  84.6029992  97.6704990  79.4819997
  84.7809992  97.0234990  80.1649997  84.5489992  98.5044990  79.9489997
  84.6200678  97.6946615  79.6386283  93.1899992 112.1814990  80.5569997
  92.9959992 111.4334990  79.9919997  93.1509992 112.9394990  79.9729997
  93.1581907 112.1815770  80.4008077  78.8369992  96.1774990  92.2959997
  78.4709992  95.4114990  92.7389997  79.7499992  96.2064990  92.5829997
  78.9103225  96.0766917  92.3953441  80.8099992  95.5274990  93.8319997
  81.7089992  95.2534990  93.6469997  80.4239992  94.7854990  94.2959997
  80.8807237  95.3896520  93.8694693  79.4349992 112.3294990  76.5049997
  79.1669992 112.6154990  77.3779997  80.2059992 111.7834990  76.6569997
  79.5025600 112.2948341  76.6451482  89.2309992  94.8604990  94.0139997
  89.3079992  94.4344990  94.8679997  90.1249992  94.8734990  93.6719997
  89.3623315  94.8040320  94.0845052  92.4079992 110.9324990  92.7069997
  91.6259992 110.7464990  92.1869997  92.3359992 111.8624990  92.9239997
  92.2912975 111.0326973  92.6651822 106.8139992 104.8194990  82.7369997
 106.9029992 105.7634990  82.6049997 106.1749992 104.5444990  82.0789997
 106.7398319 104.9114984  82.6300276 105.7469992 104.0744990  86.1559997
 105.7079992 103.4284990  86.8609997 105.4239992 103.6074990  85.3849997
 105.6980199 103.9230089  86.1482865  98.1149992 103.6884990  87.7489997
  98.1559992 103.0634990  88.4729997  98.8179992 104.3124990  87.9309997
  98.2156054 103.6873262  87.8726311 109.4529992 107.0134990  84.4579997
 109.0119992 106.2934990  84.9079997 109.4399992 107.7344990  85.0879997
 109.3908398 107.0123187  84.6047734  99.0389992 108.1384990  86.2839997
  98.6689992 107.3364990  85.9149997  99.9799992 107.9704990  86.3309997
  99.1155630 108.0058680  86.2397873  95.6489992 101.7984990  81.6769997
  95.2009992 102.6444990  81.6589997  95.0879992 101.2194990  81.1619997
  95.5118546 101.8359004  81.6048874  96.3589992 103.9604990  83.8029997
  96.5729992 103.1904990  84.3299997  97.0969992 104.0504990  83.1999997
  96.4880073 103.8673546  83.7935786 106.5639992 112.1174990  84.6699997
 107.1839992 111.4414990  84.3969997 106.3559992 111.8994990  85.5779997
 106.6207360 111.9954792  84.7554387 104.1359992 106.5064990  86.5619997
 104.4399992 105.8204990  85.9679997 104.8579992 106.6254990  87.1799997
 104.2751152 106.4287201  86.5642106 112.7989992  98.1084990  87.4229997
 112.8479992  98.7184990  88.1589997 113.2249992  98.5694990  86.6999997
 112.8632851  98.2543266  87.4260532 107.2769992 100.9004990  86.8899997
 107.4189992  99.9544990  86.9099997 107.1709992 101.1074990  85.9609997
 107.2821158 100.7989722  86.7672241 100.4319992  99.0024990  84.1619997
 100.4749992  99.8624990  83.7439997  99.9739992  98.4494990  83.5289997
 100.3759613  99.0455689  84.0191276 108.1539992  99.1334990  82.5629997
 108.7999992  98.8044990  83.1879997 108.6639992  99.6504990  81.9399997
 108.3114392  99.1583710  82.5643248  97.0519992 101.3994990  84.9239997
  97.7059992 100.8494990  85.3559997  97.0759992 101.1254990  84.0079997
  97.1447022 101.2872005  84.8591698 102.2079992 102.9494990  84.1399997
 102.8239992 102.4224990  84.6489997 101.6219992 102.3094990  83.7359997
 102.2130652 102.7908919  84.1550277 113.1909992  99.5864990  89.6589997
 112.5019992 100.2444990  89.5639997 113.2059992  99.3884990  90.5959997
 113.0987756  99.6497614  89.7725795  99.2419992  97.9204990  88.2359997
  99.0229992  98.4504990  87.4699997  98.5739992  98.1464990  88.8839997
  99.1217271  98.0236508  88.2186206 106.6109992 107.4204990  81.7799997
 106.3149992 107.0974990  80.9289997 106.2869992 108.3204990  81.8219997
 106.5266501 107.4979058  81.6690893 101.8109992 105.5954990  88.5239997
 101.0709992 106.1944990  88.6269997 102.5249992 106.1494990  88.2079997
 101.8063288 105.7522368  88.4953787 109.9179992  98.4244990  84.5439997
 109.7029992  97.6584990  85.0759997 110.5739992  98.8964990  85.0569997
 109.9772451  98.3834472  84.6861699  98.8359992  99.8124990  86.1889997
  99.4489992 100.4454990  86.5619997  99.3479992  99.3404990  85.5319997
  98.9891680  99.8354006  86.1512830 100.2179992 107.5604990  89.3109997
 100.2129992 108.4394990  88.9329997  99.3649992 107.4764990  89.7359997
 100.1019199 107.6695901  89.3166942  96.3399992 107.2314990  80.0929997
  96.0679992 107.4604990  79.2039997  96.3849992 108.0684990  80.5529997
  96.3088709 107.3761069  80.0336089 109.9649992 108.8524990  86.8059997
 109.0229992 108.9114990  86.9669997 110.2409992 109.7584990  86.6689997
 109.8735771 108.9830270  86.8094827 110.2649992  97.1394990  88.2229997
 109.5289992  97.7494990  88.1849997 110.9489992  97.5544990  87.6969997
 110.2565885  97.2791924  88.1466931 103.2679992  95.2254990  85.6889997
 103.1509992  94.2774990  85.6349997 102.4129992  95.5584990  85.9619997
 103.1363691  95.1405842  85.7185072 108.2169992 110.6334990  83.4309997
 108.6419992 109.9264990  82.9459997 108.5339992 111.4354990  83.0139997
 108.3180266 110.6450201  83.3082461 109.3759992 108.5344990  81.9399997
 109.1189992 107.8444990  81.3279997 109.4469992 108.0914990  82.7849997
 109.3504322 108.3801568  81.9705372 111.0619992 107.1014990  90.4169997
 111.2019992 106.5094990  89.6779997 111.2299992 107.9744990  90.0609997
 111.1038734 107.1384041  90.2676937 105.5349992 104.0634990  80.1889997
 104.8229992 104.5984990  79.8379997 106.2259992 104.1184990  79.5289997
 105.5308696 104.1442591  80.0516372 112.9039992 103.4414990  88.4829997
 112.2519992 104.1354990  88.5719997 113.3689992 103.6514990  87.6729997
 112.8775357 103.5649544  88.3857056 108.9409992 104.2724990  81.1409997
 108.2089992 104.5014990  81.7139997 109.3879992 103.5594990  81.5959997
 108.9012753 104.2073984  81.2809698 108.8379992 102.4474990  90.2089997
 108.9179992 103.2104990  90.7809997 108.2369992 102.7264990  89.5179997
 108.7677115 102.5897707  90.1939631 100.5859992 104.9034990  83.0239997
 100.2559992 104.5324990  82.2049997 101.1739992 104.2324990  83.3699997
 100.6204056 104.7621257  82.9589035 101.9529992 108.3314990  85.7049997
 101.8579992 107.7524990  84.9479997 102.6819992 107.9604990  86.2009997
 102.0386161 108.2020902  85.6685191 100.9529992 103.6714990  86.6569997
 101.5179992 103.7934990  85.8939997 101.2709992 104.3094990  87.2959997
 101.0733430 103.7744448  86.6389094 107.2619992 109.1754990  87.3909997
 107.0209992 109.8374990  88.0389997 107.0639992 108.3404990  87.8159997
 107.2022662 109.1532704  87.5371008 101.8329992 108.0714990  91.3739997
 101.5209992 108.8534990  91.8299997 101.1829992 107.9184990  90.6879997
 101.7024643 108.1578019  91.3436657  98.7529992 104.2694990  90.6029997
  98.8229992 104.9204990  91.3009997  97.8619992 104.3724990  90.2679997
  98.6421802 104.3724769  90.6532231 105.5379992 110.1714990  82.2619997
 106.0119992 110.4674990  83.0389997 104.9749992 110.9104990  82.0279997
 105.5268460 110.3118336  82.3367626 100.0719992 110.1424990  92.1379997
 100.0799992 110.0064990  91.1899997  99.1559992 110.0254990  92.3899997
  99.9492512 110.1080664  92.0423179 111.5099992  95.1854990  78.6389997
 110.6099992  95.3234990  78.9339997 111.7619992  96.0164990  78.2369997
 111.4207355  95.3168200  78.6250539  99.5759992 103.9724990  80.6129997
  99.2839992 104.7404990  80.1219997  98.9019992 103.3134990  80.4499997
  99.4448843 103.9884537  80.5237695 112.6999992 109.5514990  77.0159997
 112.7729992 110.4904990  77.1859997 113.6049992 109.2464990  76.9589997
 112.8324168 109.6388531  77.0315736  95.6689992 106.3354990  89.4279997
  95.1679992 106.3074990  88.6129997  95.6749992 105.4304990  89.7379997
  95.6011690 106.2092234  89.3582770  95.4199992 109.1164990  86.3119997
  96.3659992 108.9714990  86.2929997  95.3069992 109.9004990  86.8489997
  95.5343578 109.2026708  86.3820300 113.6169992 109.7824990  91.9939997
 113.5679992 108.8264990  91.9569997 112.7909992 110.0494990  92.3959997
 113.4985767 109.6878841  92.0433133 104.5959992 109.3564990  90.8699997
 104.6829992 110.1824990  91.3449997 103.7319992 109.0264990  91.1189997
 104.4911944 109.4249871  90.9686558 105.0099992 113.1284990  80.6759997
 104.9349992 113.0074990  79.7299997 105.0429992 114.0774990  80.7949997
 105.0041862 113.2402492  80.5624840  98.6639992 111.9174990  82.4569997
  98.8159992 111.5694990  83.3359997  97.8129992 111.5604990  82.2019997
  98.5697899 111.8216749  82.5427322 107.7809992 112.2084990  80.4279997
 106.8459992 112.3084990  80.6069997 108.0609992 111.4984990  81.0059997
 107.6909270 112.1262300  80.5305984 110.7689992 101.2754990  92.4739997
 110.3619992 101.7554990  91.7539997 110.8099992 100.3694990  92.1669997
 110.7187178 101.2188609  92.3337441  97.9179992 107.6594990  90.4709997
  98.1339992 107.2974990  91.3309997  97.0629992 107.2844990  90.2609997
  97.8319349 107.5592914  90.5602134 100.5369992  96.1294990  86.4669997
  99.6749992  96.0424990  86.0589997 100.5149992  96.9854990  86.8939997
 100.4160953  96.2333558  86.4689262 105.1999992  95.8514990  89.8409997
 105.6199992  95.4364990  90.5939997 104.2669992  95.6724990  89.9579997
 105.1313736  95.7704921  89.9598950 108.5259992  99.6064990  90.6949997
 108.0119992  99.4814990  91.4919997 108.3709992 100.5194990  90.4499997
 108.4346643  99.7127068  90.7710624 100.6279992 101.0944990  87.5619997
  99.9859992 101.0544990  88.2709997 100.6649992 102.0214990  87.3239997
 100.5451659 101.2142540  87.6268463 100.6249992 101.3154990  82.4739997
  99.7319992 100.9754990  82.4149997 101.0759992 100.9384990  81.7179997
 100.5637185 101.2180220  82.3637698 106.1609992 101.7314990  81.2909997
 105.7519992 102.5464990  80.9989997 106.8809992 101.5914990  80.6759997
 106.2023946 101.8239963  81.1679616 105.2629992 101.9074990  92.7789997
 104.6999992 101.2024990  93.0989997 106.0889992 101.7864990  93.2459997
 105.2976423 101.7945614  92.8860168 107.1649992 101.1774990  84.1049997
 106.9699992 101.7834990  83.3899997 107.3469992 100.3444990  83.6699997
 107.1629272 101.1477955  83.9484075  98.3779992 101.4154990  89.4289997
  98.3399992 101.8154990  90.2969997  97.8869992 100.5984990  89.5189997
  98.3064246 101.3598842  89.5601171  94.9859992  98.5314990  83.2789997
  95.6169992  98.5024990  83.9989997  95.4359992  98.1064990  82.5489997
  95.1330905  98.4700839  83.2787479  96.2599992  99.2774990  78.7029997
  96.7349992  99.8684990  78.1179997  95.5429992  99.8074990  79.0499997
  96.2280406  99.4301011  78.6698495 106.4289992 102.8154990  88.7759997
 106.7529992 102.1844990  88.1329997 105.9889992 102.2814990  89.4369997
 106.4138707 102.6568261  88.7773195 103.2069992  98.7434990  83.5599997
 102.2959992  98.8004990  83.8489997 103.7119992  98.6834990  84.3709997
 103.1506873  98.7431838  83.7091190  98.0349992 100.3724990  82.3869997
  97.1459992 100.4714990  82.0469997  98.3309992  99.5304990  82.0409997
  97.9534001 100.2722473  82.2937318 101.6879992 100.3724990  80.0429997
 102.6199992 100.5014990  80.2209997 101.4729992 101.0414990  79.3939997
 101.7864245 100.4806452  79.9795602 107.6119992  97.9784990  86.8239997
 106.9349992  98.1094990  87.4879997 107.1259992  97.8234990  86.0139997
 107.4537265  97.9754665  86.8053380 100.3619992 101.5664990  77.6099997
  99.8199992 101.1874990  76.9189997 101.1959992 101.7614990  77.1809997
 100.4004283 101.5409383  77.4574298 110.8989992 113.6494990  93.1009997
 111.0989992 114.0734990  92.2659997 111.5549992 113.9934990  93.7079997
 111.0149916 113.7539784  93.0687890  98.4969992 106.1234990  92.7089997
  99.2289992 106.3784990  93.2699997  97.7169992 106.3284990  93.2239997
  98.4917684 106.1861457  92.8554774 104.5269992 101.5304990  85.4469997
 105.0909992 100.9844990  84.8999997 104.3789992 101.0094990  86.2359997
 104.5843037 101.3851798  85.4787212  99.5289992  97.6674990  81.8649997
  99.2109992  96.7644990  81.8299997 100.3099992  97.6694990  81.3129997
  99.5911560  97.5441148  81.7854975 103.1529992  99.9194990  87.8609997
 102.3179992 100.3734990  87.9709997 103.6769992 100.1954990  88.6129997
 103.1095070 100.0189677  87.9777134 103.6969992 106.1324990  79.5459997
 102.9519992 105.6244990  79.2229997 103.5629992 106.1814990  80.4919997
 103.5768633 106.0695714  79.6297563 110.8469992 105.2654990  88.3319997
 111.4889992 105.7214990  87.7889997 110.0169992 105.3784990  87.8699997
 110.8227352 105.3433223  88.1950234 105.2169992 106.3164990  90.7829997
 104.8709992 105.9344990  91.5889997 105.0169992 107.2494990  90.8539997
 105.1425400 106.3903489  90.9030401 108.3129992 100.8134990  79.4059997
 109.2049992 100.6754990  79.7249997 108.3699992 101.6044990  78.8689997
 108.4427380 100.9014777  79.3770981  98.8219992 105.4274990  85.3149997
  99.5669992 105.4244990  84.7139997  98.8999992 104.6034990  85.7969997
  98.9344158 105.3157928  85.2979136 105.8229992 107.5904990  78.5709997
 105.5279992 108.4174990  78.9529997 105.1199992 106.9714990  78.7669997
 105.6875855 107.6199458  78.6497634  95.8299992 103.8874990  90.6299997
  96.0529992 103.4694990  91.4619997  95.2279992 103.2754990  90.2079997
  95.7790802 103.7475216  90.6867561 102.8469992 103.4044990  92.8429997
 102.5509992 103.2394990  91.9479997 103.7779992 103.1844990  92.8329997
 102.9323909 103.3521274  92.7190110 107.4669992 108.7784990  90.7329997
 106.5659992 108.9614990  90.4649997 107.5009992 109.0374990  91.6539997
 107.3483021 108.8385505  90.8208206 113.1979992 101.0224990  79.0999997
 112.6439992 100.6264990  78.4279997 113.2989992 101.9334990  78.8229997
 113.1357084 101.0913565  78.9704381 113.1609992 106.8234990  91.9369997
 112.3099992 107.0614990  91.5699997 113.7519992 106.8064990  91.1839997
 113.1242468 106.8538251  91.7848902 111.4929992 109.8084990  79.5649997
 111.1209992 108.9834990  79.8749997 111.7709992 109.6254990  78.6679997
 111.4795997 109.6706160  79.4861551 108.6539992 104.6164990  86.5869997
 107.7259992 104.3854990  86.5599997 109.1049992 103.8394990  86.2569997
 108.5878165 104.4797785  86.5386772 101.1969992 108.9454990  82.7199997
 101.7239992 109.7184990  82.5189997 100.3169992 109.1694990  82.4179997
 101.1501793 109.0816652  82.6516304 102.6239992 106.6084990  82.2959997
 102.3829992 107.5334990  82.3379997 101.8839992 106.1494990  82.6919997
 102.4908934 106.6730881  82.3553191 103.1389992 110.7574990  88.6109997
 103.5019992 111.6114990  88.3779997 103.6709992 110.4654990  89.3519997
 103.2605141 110.8348907  88.6792079 101.3069992 111.6294990  81.8409997
 100.3579992 111.7354990  81.8929997 101.6589992 112.4504990  82.1859997
 101.2246214 111.7549361  81.8947317 106.6829992 106.8564990  88.3119997
 106.2569992 106.6284990  89.1379997 107.2639992 106.1174990  88.1289997
 106.7031587 106.7254084  88.4004111 108.8859992 107.7854990  77.3859997
 109.2389992 107.4054990  78.1899997 107.9369992 107.6914990  77.4719997
 108.8060985 107.7207330  77.5077738 109.3419992 111.4084990  90.7809997
 108.7399992 110.8524990  90.2859997 109.6229992 112.0754990  90.1549997
 109.2975757 111.4225755  90.6285657 113.3889992 112.2644990  77.5869997
 114.1329992 112.8504990  77.4469997 112.6949992 112.8334990  77.9199997
 113.3969809 112.4215830  77.6128572  97.4639992  98.6414990  90.1879997
  96.5709992  98.9794990  90.1209997  97.3649992  97.7854990  90.6059997
  97.3285241  98.5720941  90.2352982 109.7519992 106.4574990  79.6119997
 109.4749992 105.7294990  80.1679997 110.6789992 106.5764990  79.8179997
 109.8394181 106.3740068  79.7158972  97.1149992 110.4454990  88.6229997
  97.3319992 109.5134990  88.5919997  97.3619992 110.7204990  89.5069997
  97.1780543 110.3550877  88.7381412 101.9139992 108.4674990  78.2889997
 102.0609992 107.9474990  79.0789997 101.9109992 109.3744990  78.5949997
 101.9337300 108.5188975  78.4385877 106.1979992  98.3824990  89.0779997
 106.8969992  98.4564990  89.7279997 105.8179992  97.5174990  89.2329997
 106.2422095  98.2757402  89.1877982 106.9829992  98.0344990  80.1749997
 107.2029992  98.5054990  79.3719997 107.5409992  98.4284990  80.8459997
 107.0885851  98.1523272  80.1556134 104.1829992  99.7624990  81.0099997
 104.9949992 100.2664990  81.0559997 103.9379992  99.6174990  81.9239997
 104.2611091  99.8119366  81.1398552 104.7189992 100.7484990  90.1949997
 104.8379992 101.3224990  90.9519997 105.3739992 100.0604990  90.3099997
 104.8238684 100.7340205  90.3141656 105.0669992  96.8434990  81.9479997
 104.7199992  97.4604990  82.5929997 105.7249992  97.3444990  81.4669997
 105.1085290  96.9956384  81.9711635 101.9899992 111.2084990  79.0199997
 102.1509992 112.0084990  78.5189997 101.7929992 111.5154990  79.9049997
 101.9853919 111.3594140  79.0710988 110.9229992  98.6554990  91.0299997
 110.0069992  98.9174990  90.9419997 111.2589992  98.6524990  90.1329997
 110.8429789  98.6909637  90.8967829 109.5249992 102.4054990  85.1259997
 108.7279992 101.9904990  84.7969997 109.9699992 101.7154990  85.6169997
 109.4760317 102.2553197  85.1473557  98.9829992 108.3334990  77.6959997
  99.5749992 109.0334990  77.9719997  99.4419992 107.9004990  76.9769997
  99.1261172 108.3707371  77.6365163  97.2989992 100.9984990  76.8119997
  97.2539992 101.9374990  76.9909997  96.4109992 100.7624990  76.5419997
  97.1728472 101.0951946  76.8000282 110.6119992 111.6614990  86.7479997
 110.4559992 112.3404990  86.0909997 111.5439992 111.7334990  86.9509997
 110.7167328 111.7641586  86.6855529  98.1069992  95.7794990  85.4849997
  97.8779992  95.8384990  84.5579997  97.6639992  94.9884990  85.7919997
  98.0157387  95.6806412  85.3995223  97.0369992 109.7204990  81.6459997
  96.2049992 110.1924990  81.6729997  97.5829992 110.2304990  81.0469997
  96.9968710 109.8540317  81.5687570  96.3259992 112.3324990  92.9759997
  96.8659992 112.1164990  93.7349997  95.8439992 111.5274990  92.7859997
  96.3349101 112.1940216  93.0544364 100.9229992 111.2524990  94.5959997
 101.6909992 110.7934990  94.9369997 100.9019992 111.0264990  93.6659997
 101.0252135 111.1591680  94.5169473 107.4999992 109.6324990  93.3249997
 107.1489992 108.7754990  93.5679997 108.2259992 109.7744990  93.9319997
 107.5501590 109.5345189  93.4402889  96.2329992 106.1434990  93.9299997
  96.3769992 105.2414990  93.6439997  95.4599992 106.4294990  93.4419997
  96.1482854 106.0586876  93.8249363 102.8879992 106.1124990  93.3629997
 102.5599992 106.3834990  92.5049997 103.0399992 105.1714990  93.2749997
 102.8636970 106.0223694  93.2337953 108.6229992 106.0284990  90.7459997
 109.3679992 106.6174990  90.6259997 107.8649992 106.6104990  90.8089997
 108.6225185 106.1877000  90.7380940  97.0649992 103.3434990  93.3499997
  97.4729992 102.4864990  93.2289997  96.8049992 103.3574990  94.2709997
  97.0857082 103.2280596  93.4579469 101.7229992 104.4594990  78.3679997
 101.2639992 103.9754990  79.0539997 101.9779992 103.7904990  77.7319997
 101.6946178 104.3028511  78.3759785 101.0119992 102.3524990  90.7239997
 100.3939992 103.0264990  91.0049997 101.3559992 102.6734990  89.8909997
 100.9738181 102.4883233  90.6498266 102.7939992 102.7024990  76.6309997
 102.6139992 102.5474990  75.7029997 103.7439992 102.8104990  76.6749997
 102.8978016 102.6959264  76.5102123 106.0319992 104.8234990  94.0019997
 106.9849992 104.9074990  93.9739997 105.8719992 104.1114990  94.6209997
 106.1408161 104.7387198  94.0818689 101.3519992  99.7074990  91.8069997
 101.5019992  98.9784990  91.2039997 101.3539992 100.4844990  91.2479997
 101.3727664  99.7128971  91.6490525 101.7639992  98.0764990  89.2989997
 102.2999992  98.5284990  88.6469997 100.9119992  97.9684990  88.8769997
 101.7221648  98.1237883  89.1526395 103.3459992 103.5164990  89.5389997
 104.0969992 103.3604990  88.9659997 103.0069992 104.3684990  89.2629997
 103.4029052 103.6102745  89.4233469 107.7619992 101.3314990  94.5669997
 107.9539992 100.4004990  94.4559997 108.6189992 101.7564990  94.5569997
 107.9042320 101.2614743  94.5504433 109.0779992 104.1204990  92.6449997
 108.7969992 104.8294990  92.0669997 110.0209992 104.0474990  92.4939997
 109.1669272 104.2076704  92.5454976  99.8299992 100.9054990  93.7179997
  99.0629992 100.3724990  93.5079997 100.5089992 100.5954990  93.1189997
  99.8168292 100.7906360  93.6082693 102.5699992  95.5334990  89.7309997
 102.4719992  96.4794990  89.6249997 101.8269992  95.1604990  89.2549997
 102.4562363  95.6125987  89.6522029 103.8339992  99.8544990  93.2939997
 103.5979992  99.6354990  94.1959997 103.0509992  99.6474990  92.7849997
 103.6958444  99.7965688  93.3484518 106.5499992  98.9824990  92.3699997
 105.6019992  99.0144990  92.5019997 106.8619992  98.3564990  93.0239997
 106.4625293  98.9022934  92.4764130 108.1839992  97.6164990  94.3749997
 108.0869992  96.6644990  94.3689997 107.8619992  97.8844990  95.2359997
 108.1272229  97.5224706  94.4905108  98.0109992  98.8254990  93.4229997
  98.2219992  98.1194990  92.8119997  97.8989992  98.3884990  94.2669997
  98.0247674  98.6696376  93.4534199 102.7919992  94.8274990  92.4019997
 103.5029992  94.1874990  92.3879997 102.6909992  95.0934990  91.4879997
 102.8756732  94.7758451  92.2765475 103.1449992  96.5094990  94.4559997
 103.0139992  96.0344990  93.6349997 102.5459992  97.2544990  94.3999997
 103.0461524  96.5451968  94.3361553 102.6919992 113.3924990  77.6319997
 103.6249992 113.5504990  77.7759997 102.4269992 114.0684990  77.0069997
 102.7839846 113.5054567  77.5672930  96.2599992 108.0294990  77.1149997
  97.1739992 108.1084990  77.3879997  96.2669992 107.3424990  76.4479997
  96.3860769 107.9474735  77.0622366  94.9089992 113.4224990  82.1919997
  94.2619992 112.9604990  81.6589997  95.2639992 112.7504990  82.7749997
  94.8683861 113.2684707  82.1977939  95.7789992 111.5024990  83.9969997
  95.4449992 110.6224990  84.1689997  96.0009992 111.8484990  84.8609997
  95.7632677 111.4287365  84.1374252 113.3279992 112.3124990  86.9769997
 113.3059992 112.4974990  87.9159997 114.0179992 112.8804990  86.6359997
 113.4183439 112.4146898  87.0594774 112.8909992 111.8794990  89.8989997
 112.4039992 111.1434990  89.5279997 113.4399992 111.4854990  90.5769997
 112.8986101 111.7256267  89.9399034 111.3419992 107.6694990  94.5369997
 110.4759992 107.5644990  94.9309997 111.7179992 108.4274990  94.9839997
 111.2743768 107.7576151  94.6513258 112.6429992 105.9254990  80.0509997
 113.4929992 106.3464990  80.1789997 112.6479992 105.1854990  80.6589997
 112.7599745 105.8831347  80.1506479 113.0369992 103.9794990  81.8749997
 112.3109992 103.4994990  82.2729997 113.6179992 104.1844990  82.6069997
 113.0162504 103.9415592  82.0284199 112.7959992 106.7644990  86.8229997
 113.6299992 106.3864990  86.5419997 112.9079992 107.7074990  86.7039997
 112.9251917 106.8402954  86.7684844 111.2819992 109.6424990  89.1299997
 110.6349992 109.9674990  89.7549997 110.7649992 109.2014990  88.4549997
 111.1234068 109.6274726  89.1244918 113.3049992 103.8804990  78.2659997
 112.7839992 104.2364990  77.5469997 113.2719992 104.5554990  78.9439997
 113.2291525 104.0205273  78.2591408 110.8239992 102.5004990  82.4379997
 110.6739992 101.5554990  82.4179997 110.4699992 102.7814990  83.2819997
 110.7556351 102.4091656  82.5493202  95.8589992 104.5784990  86.4479997
  96.0429992 104.4964990  85.5129997  96.7079992 104.4544990  86.8719997
  95.9990259 104.5504915  86.3771771 111.6799992 104.4704990  92.0769997
 112.2629992 103.7354990  92.2679997 112.2439992 105.2424990  92.1229997
 111.8360326 104.4742746  92.1093579 113.1769992 102.3734990  92.7609997
 112.3129992 101.9944990  92.5959997 113.7809992 101.6344990  92.6869997
 113.1404912 102.2217937  92.7284360 110.5339992 100.0824990  80.8999997
 110.8139992  99.1754990  81.0249997 111.2929992 100.5164990  80.5109997
 110.6749471 100.0170654  80.8645052 111.1459992 100.6644990  86.3359997
 112.0789992 100.8764990  86.3019997 110.9109992 100.7654990  87.2589997
 111.2418357 100.7071303  86.4560232 111.1749992 101.4014990  89.1119997
 110.3319992 101.6694990  89.4779997 111.6179992 102.2234990  88.9009997
 111.1194358 101.5493294  89.1335999  95.4559992  99.8484990  92.5889997
  96.3759992  99.7264990  92.8249997  95.0069992  99.0984990  92.9779997
  95.5211561  99.7303720  92.6739015 113.4579992  95.3814990  94.4659997
 113.8079992  94.7274990  93.8599997 113.6049992  96.2184990  94.0259997
 113.5257192  95.4052545  94.3236712 111.1479992  97.3454990  80.9489997
 111.3299992  96.8964990  81.7739997 110.5479992  96.7614990  80.4849997
 111.0918187  97.2050563  80.9992721  96.6779992  98.1614990  85.4799997
  97.1229992  97.3694990  85.7819997  97.1439992  98.8774990  85.9109997
  96.8019059  98.1499485  85.5796061  94.9819992 101.1604990  86.5489997
  95.4739992 100.9394990  85.7589997  95.3439992 102.0004990  86.8299997
  95.0983429 101.2438220  86.4787918 112.9779992  97.4904990  92.8149997
 112.0609992  97.7614990  92.7789997 113.1009992  96.9554990  92.0309997
 112.8690828  97.4552711  92.7040767 113.0139992  97.4134990  77.4769997
 113.4269992  96.6924990  77.0009997 113.6959992  98.0824990  77.5349997
 113.1625712  97.4054304  77.4198247  95.2949992  97.4184990  80.6039997
  94.3699992  97.6264990  80.4739997  95.7489992  97.9024990  79.9139997
  95.2297401  97.5123895  80.4929433 110.0659992 112.4024990  82.5489997
 110.7179992 112.0544990  81.9409997 110.5769992 112.8904990  83.1949997
 110.2242872 112.4208248  82.5530964  95.2589992  96.1564990  88.9479997
  94.5939992  95.9104990  89.5909997  94.8159992  96.7784990  88.3709997
  95.1081168  96.2069225  88.9579830  97.4509992 109.3314990  93.0919997
  96.6299992 109.5064990  92.6319997  97.1989992 109.2584990  94.0129997
  97.3046173 109.3455806  93.1534954 100.4049992 110.3054990  89.3509997
  99.9799992 111.1154990  89.0679997 101.3089992 110.3914990  89.0489997
 100.4691002 110.4278728  89.2714798 104.7159992 111.7044990  92.3099997
 104.9009992 111.3714990  93.1879997 105.5629992 112.0144990  91.9879997
 104.8557291 111.7008214  92.3866140 107.0609992 112.9904990  91.5539997
 107.7379992 112.3574990  91.3139997 107.3829992 113.3914990  92.3619997
 107.1971280 112.9580638  91.6303190 111.9789992  95.5804990  90.6339997
 111.1659992  95.9054990  90.2459997 112.2119992  94.8194990  90.1009997
 111.8992566  95.5221570  90.5089196  97.8069992 113.5624990  89.3979997
  97.0859992 114.0024990  88.9469997  97.4409992 113.3114990  90.2469997
  97.6589785 113.5887691  89.4509849 100.2739992 113.1624990  88.4279997
  99.4089992 113.2344990  88.8319997 100.2189992 113.7094990  87.6439997
 100.1482066 113.2462678  88.3773371 104.9849992 113.0504990  87.6039997
 104.5279992 113.5794990  86.9499997 105.1469992 113.6534990  88.3289997
 104.9443919 113.2043990  87.6125740 107.3119992 111.9284990  88.5489997
 106.4079992 112.0934990  88.2829997 107.7409992 112.7814990  88.4829997
 107.2462017 112.0664184  88.5036495 109.9159992 113.4984990  88.8439997
 109.7349992 114.4144990  88.6329997 110.0929992 113.0874990  87.9969997
 109.9151377 113.5683365  88.7007178  97.2219992 112.1854990  86.3089997
  97.2029992 111.7594990  87.1659997  98.0259992 111.8664990  85.8999997
  97.3281393 112.0840297  86.3710155  99.3629992 110.8954990  84.9639997
  99.1439992 109.9784990  85.1329997 100.1869992 111.0354990  85.4299997
  99.4444637 110.7889586  85.0501414 101.8999992 111.3654990  85.8119997
 102.1129992 110.4774990  85.5249997 101.9649992 111.3304990  86.7669997
 101.9379075 111.2393318  85.9017355 105.4089992  97.0294990  84.9569997
 104.7339992  96.3994990  85.2119997 105.9729992  96.5454990  84.3539997
 105.3929558  96.8779283  84.9103451 110.5509992  95.1364990  85.0689997
 111.1549992  95.6844990  84.5679997 109.6819992  95.4554990  84.8289997
 110.5161126  95.2547070  84.9679180 112.2779992  96.2754990  83.4029997
 112.8899992  95.7614990  82.8759997 112.6609992  97.1524990  83.4259997
 112.4133867  96.3237613  83.3340888  97.7349992  95.6634990  82.7789997
  96.9579992  95.4284990  82.2709997  98.2659992  94.8664990  82.7879997
  97.7004443  95.5236721  82.7107200 102.3149992  95.5894990  82.5919997
 103.1889992  95.9784990  82.5619997 102.1789992  95.3744990  83.5149997
 102.4163125  95.6137120  82.7126523 107.8709992  95.6194990  84.2409997
 107.9479992  95.7154990  83.2919997 107.5959992  94.7124990  84.3699997
 107.8443407  95.5099188  84.1283532 109.2249992  95.6454990  79.9339997
 108.5219992  96.2604990  79.7239997 108.7799992  94.8084990  80.0649997
 109.0686550  95.6164679  79.9229819  96.4729992 111.4094990  79.4799997
  95.7879992 111.3714990  78.8119997  96.4759992 112.3214990  79.7679997
  96.3797358 111.5276744  79.4276145 112.0459992 112.1814990  80.5569997
 111.8519992 111.4334990  79.9919997 112.0069992 112.9394990  79.9729997
 112.0141907 112.1815770  80.4008077  97.6929992  96.1774990  92.2959997
  97.3269992  95.4114990  92.7389997  98.6059992  96.2064990  92.5829997
  97.7663225  96.0766917  92.3953441  99.6659992  95.5274990  93.8319997
 100.5649992  95.2534990  93.6469997  99.2799992  94.7854990  94.2959997
  99.7367237  95.3896520  93.8694693 108.0869992  94.8604990  94.0139997
 108.1639992  94.4344990  94.8679997 108.9809992  94.8734990  93.6719997
 108.2183315  94.8040320  94.0845052 111.2639992 110.9324990  92.7069997
 110.4819992 110.7464990  92.1869997 111.1919992 111.8624990  92.9239997
 111.1472975 111.0326973  92.6651822 125.6699992 104.8194990  82.7369997
 125.7589992 105.7634990  82.6049997 125.0309992 104.5444990  82.0789997
 125.5958319 104.9114984  82.6300276 124.6029992 104.0744990  86.1559997
 124.5639992 103.4284990  86.8609997 124.2799992 103.6074990  85.3849997
 124.5540199 103.9230089  86.1482865 116.9709992 103.6884990  87.7489997
 117.0119992 103.0634990  88.4729997 117.6739992 104.3124990  87.9309997
 117.0716054 103.6873262  87.8726311 128.3089992 107.0134990  84.4579997
 127.8679992 106.2934990  84.9079997 128.2959992 107.7344990  85.0879997
 128.2468398 107.0123187  84.6047734 117.8949992 108.1384990  86.2839997
 117.5249992 107.3364990  85.9149997 118.8359992 107.9704990  86.3309997
 117.9715630 108.0058680  86.2397873 114.5049992 101.7984990  81.6769997
 114.0569992 102.6444990  81.6589997 113.9439992 101.2194990  81.1619997
 114.3678546 101.8359004  81.6048874 115.2149992 103.9604990  83.8029997
 115.4289992 103.1904990  84.3299997 115.9529992 104.0504990  83.1999997
 115.3440073 103.8673546  83.7935786 125.4199992 112.1174990  84.6699997
 126.0399992 111.4414990  84.3969997 125.2119992 111.8994990  85.5779997
 125.4767360 111.9954792  84.7554387 122.9919992 106.5064990  86.5619997
 123.2959992 105.8204990  85.9679997 123.7139992 106.6254990  87.1799997
 123.1311152 106.4287201  86.5642106 131.6549992  98.1084990  87.4229997
 131.7039992  98.7184990  88.1589997 132.0809992  98.5694990  86.6999997
 131.7192851  98.2543266  87.4260532 126.1329992 100.9004990  86.8899997
 126.2749992  99.9544990  86.9099997 126.0269992 101.1074990  85.9609997
 126.1381158 100.7989722  86.7672241 119.2879992  99.0024990  84.1619997
 119.3309992  99.8624990  83.7439997 118.8299992  98.4494990  83.5289997
 119.2319613  99.0455689  84.0191276 127.0099992  99.1334990  82.5629997
 127.6559992  98.8044990  83.1879997 127.5199992  99.6504990  81.9399997
 127.1674392  99.1583710  82.5643248 115.9079992 101.3994990  84.9239997
 116.5619992 100.8494990  85.3559997 115.9319992 101.1254990  84.0079997
 116.0007022 101.2872005  84.8591698 121.0639992 102.9494990  84.1399997
 121.6799992 102.4224990  84.6489997 120.4779992 102.3094990  83.7359997
 121.0690652 102.7908919  84.1550277 132.0469992  99.5864990  89.6589997
 131.3579992 100.2444990  89.5639997 132.0619992  99.3884990  90.5959997
 131.9547756  99.6497614  89.7725795 118.0979992  97.9204990  88.2359997
 117.8789992  98.4504990  87.4699997 117.4299992  98.1464990  88.8839997
 117.9777271  98.0236508  88.2186206 125.4669992 107.4204990  81.7799997
 125.1709992 107.0974990  80.9289997 125.1429992 108.3204990  81.8219997
 125.3826501 107.4979058  81.6690893 120.6669992 105.5954990  88.5239997
 119.9269992 106.1944990  88.6269997 121.3809992 106.1494990  88.2079997
 120.6623288 105.7522368  88.4953787 128.7739992  98.4244990  84.5439997
 128.5589992  97.6584990  85.0759997 129.4299992  98.8964990  85.0569997
 128.8332451  98.3834472  84.6861699 117.6919992  99.8124990  86.1889997
 118.3049992 100.4454990  86.5619997 118.2039992  99.3404990  85.5319997
 117.8451680  99.8354006  86.1512830 119.0739992 107.5604990  89.3109997
 119.0689992 108.4394990  88.9329997 118.2209992 107.4764990  89.7359997
 118.9579199 107.6695901  89.3166942 115.1959992 107.2314990  80.0929997
 114.9239992 107.4604990  79.2039997 115.2409992 108.0684990  80.5529997
 115.1648709 107.3761069  80.0336089 128.8209992 108.8524990  86.8059997
 127.8789992 108.9114990  86.9669997 129.0969992 109.7584990  86.6689997
 128.7295771 108.9830270  86.8094827 129.1209992  97.1394990  88.2229997
 128.3849992  97.7494990  88.1849997 129.8049992  97.5544990  87.6969997
 129.1125885  97.2791924  88.1466931 122.1239992  95.2254990  85.6889997
 122.0069992  94.2774990  85.6349997 121.2689992  95.5584990  85.9619997
 121.9923691  95.1405842  85.7185072 127.0729992 110.6334990  83.4309997
 127.4979992 109.9264990  82.9459997 127.3899992 111.4354990  83.0139997
 127.1740266 110.6450201  83.3082461 128.2319992 108.5344990  81.9399997
 127.9749992 107.8444990  81.3279997 128.3029992 108.0914990  82.7849997
 128.2064322 108.3801568  81.9705372 129.9179992 107.1014990  90.4169997
 130.0579992 106.5094990  89.6779997 130.0859992 107.9744990  90.0609997
 129.9598734 107.1384041  90.2676937 124.3909992 104.0634990  80.1889997
 123.6789992 104.5984990  79.8379997 125.0819992 104.1184990  79.5289997
 124.3868696 104.1442591  80.0516372 131.7599992 103.4414990  88.4829997
 131.1079992 104.1354990  88.5719997 132.2249992 103.6514990  87.6729997
 131.7335357 103.5649544  88.3857056 127.7969992 104.2724990  81.1409997
 127.0649992 104.5014990  81.7139997 128.2439992 103.5594990  81.5959997
 127.7572753 104.2073984  81.2809698 127.6939992 102.4474990  90.2089997
 127.7739992 103.2104990  90.7809997 127.0929992 102.7264990  89.5179997
 127.6237115 102.5897707  90.1939631 119.4419992 104.9034990  83.0239997
 119.1119992 104.5324990  82.2049997 120.0299992 104.2324990  83.3699997
 119.4764056 104.7621257  82.9589035 120.8089992 108.3314990  85.7049997
 120.7139992 107.7524990  84.9479997 121.5379992 107.9604990  86.2009997
 120.8946161 108.2020902  85.6685191 119.8089992 103.6714990  86.6569997
 120.3739992 103.7934990  85.8939997 120.1269992 104.3094990  87.2959997
 119.9293430 103.7744448  86.6389094 126.1179992 109.1754990  87.3909997
 125.8769992 109.8374990  88.0389997 125.9199992 108.3404990  87.8159997
 126.0582662 109.1532704  87.5371008 120.6889992 108.0714990  91.3739997
 120.3769992 108.8534990  91.8299997 120.0389992 107.9184990  90.6879997
 120.5584643 108.1578019  91.3436657 126.6679992 103.4354990  78.8259997
 127.2469992 103.5854990  79.5729997 127.0819992 103.9054990  78.1029997
 126.8033122 103.5196288  78.8305024 117.6089992 104.2694990  90.6029997
 117.6789992 104.9204990  91.3009997 116.7179992 104.3724990  90.2679997
 117.4981802 104.3724769  90.6532231 124.3939992 110.1714990  82.2619997
 124.8679992 110.4674990  83.0389997 123.8309992 110.9104990  82.0279997
 124.3828460 110.3118336  82.3367626 118.9279992 110.1424990  92.1379997
 118.9359992 110.0064990  91.1899997 118.0119992 110.0254990  92.3899997
 118.8052512 110.1080664  92.0423179 118.4319992 103.9724990  80.6129997
 118.1399992 104.7404990  80.1219997 117.7579992 103.3134990  80.4499997
 118.3008843 103.9884537  80.5237695 114.5249992 106.3354990  89.4279997
 114.0239992 106.3074990  88.6129997 114.5309992 105.4304990  89.7379997
 114.4571690 106.2092234  89.3582770 114.2759992 109.1164990  86.3119997
 115.2219992 108.9714990  86.2929997 114.1629992 109.9004990  86.8489997
 114.3903578 109.2026708  86.3820300 132.4729992 109.7824990  91.9939997
 132.4239992 108.8264990  91.9569997 131.6469992 110.0494990  92.3959997
 132.3545767 109.6878841  92.0433133 123.4519992 109.3564990  90.8699997
 123.5389992 110.1824990  91.3449997 122.5879992 109.0264990  91.1189997
 123.3471944 109.4249871  90.9686558 123.8659992 113.1284990  80.6759997
 123.7909992 113.0074990  79.7299997 123.8989992 114.0774990  80.7949997
 123.8601862 113.2402492  80.5624840 117.5199992 111.9174990  82.4569997
 117.6719992 111.5694990  83.3359997 116.6689992 111.5604990  82.2019997
 117.4257899 111.8216749  82.5427322 126.6369992 112.2084990  80.4279997
 125.7019992 112.3084990  80.6069997 126.9169992 111.4984990  81.0059997
 126.5469270 112.1262300  80.5305984 129.6249992 101.2754990  92.4739997
 129.2179992 101.7554990  91.7539997 129.6659992 100.3694990  92.1669997
 129.5747178 101.2188609  92.3337441 116.7739992 107.6594990  90.4709997
 116.9899992 107.2974990  91.3309997 115.9189992 107.2844990  90.2609997
 116.6879349 107.5592914  90.5602134 119.3929992  96.1294990  86.4669997
 118.5309992  96.0424990  86.0589997 119.3709992  96.9854990  86.8939997
 119.2720953  96.2333558  86.4689262 124.0559992  95.8514990  89.8409997
 124.4759992  95.4364990  90.5939997 123.1229992  95.6724990  89.9579997
 123.9873736  95.7704921  89.9598950 127.3819992  99.6064990  90.6949997
 126.8679992  99.4814990  91.4919997 127.2269992 100.5194990  90.4499997
 127.2906643  99.7127068  90.7710624 123.7179992  98.3434990  77.1259997
 123.4639992  98.3624990  78.0489997 123.4609992  97.4724990  76.8249997
 123.6485133  98.2283121  77.2115065 119.4839992 101.0944990  87.5619997
 118.8419992 101.0544990  88.2709997 119.5209992 102.0214990  87.3239997
 119.4011659 101.2142540  87.6268463 119.4809992 101.3154990  82.4739997
 118.5879992 100.9754990  82.4149997 119.9319992 100.9384990  81.7179997
 119.4197185 101.2180220  82.3637698 125.0169992 101.7314990  81.2909997
 124.6079992 102.5464990  80.9989997 125.7369992 101.5914990  80.6759997
 125.0583946 101.8239963  81.1679616 124.1189992 101.9074990  92.7789997
 123.5559992 101.2024990  93.0989997 124.9449992 101.7864990  93.2459997
 124.1536423 101.7945614  92.8860168 126.0209992 101.1774990  84.1049997
 125.8259992 101.7834990  83.3899997 126.2029992 100.3444990  83.6699997
 126.0189272 101.1477955  83.9484075 117.2339992 101.4154990  89.4289997
 117.1959992 101.8154990  90.2969997 116.7429992 100.5984990  89.5189997
 117.1624246 101.3598842  89.5601171 120.5999992  98.7894990  76.2269997
 120.1689992  98.3444990  76.9569997 119.8819992  99.1604990  75.7149997
 120.4439363  98.7787979  76.2576194 113.8419992  98.5314990  83.2789997
 114.4729992  98.5024990  83.9989997 114.2919992  98.1064990  82.5489997
 113.9890905  98.4700839  83.2787479 125.2849992 102.8154990  88.7759997
 125.6089992 102.1844990  88.1329997 124.8449992 102.2814990  89.4369997
 125.2698707 102.6568261  88.7773195 122.0629992  98.7434990  83.5599997
 121.1519992  98.8004990  83.8489997 122.5679992  98.6834990  84.3709997
 122.0066873  98.7431838  83.7091190 116.8909992 100.3724990  82.3869997
 116.0019992 100.4714990  82.0469997 117.1869992  99.5304990  82.0409997
 116.8094001 100.2722473  82.2937318 120.5439992 100.3724990  80.0429997
 121.4759992 100.5014990  80.2209997 120.3289992 101.0414990  79.3939997
 120.6424245 100.4806452  79.9795602 126.4679992  97.9784990  86.8239997
 125.7909992  98.1094990  87.4879997 125.9819992  97.8234990  86.0139997
 126.3097265  97.9754665  86.8053380 119.2179992 101.5664990  77.6099997
 118.6759992 101.1874990  76.9189997 120.0519992 101.7614990  77.1809997
 119.2564283 101.5409383  77.4574298 129.7549992 113.6494990  93.1009997
 129.9549992 114.0734990  92.2659997 130.4109992 113.9934990  93.7079997
 129.8709916 113.7539784  93.0687890 117.3529992 106.1234990  92.7089997
 118.0849992 106.3784990  93.2699997 116.5729992 106.3284990  93.2239997
 117.3477684 106.1861457  92.8554774 123.3829992 101.5304990  85.4469997
 123.9469992 100.9844990  84.8999997 123.2349992 101.0094990  86.2359997
 123.4403037 101.3851798  85.4787212 118.3849992  97.6674990  81.8649997
 118.0669992  96.7644990  81.8299997 119.1659992  97.6694990  81.3129997
 118.4471560  97.5441148  81.7854975 122.0089992  99.9194990  87.8609997
 121.1739992 100.3734990  87.9709997 122.5329992 100.1954990  88.6129997
 121.9655070 100.0189677  87.9777134 122.5529992 106.1324990  79.5459997
 121.8079992 105.6244990  79.2229997 122.4189992 106.1814990  80.4919997
 122.4328633 106.0695714  79.6297563 129.7029992 105.2654990  88.3319997
 130.3449992 105.7214990  87.7889997 128.8729992 105.3784990  87.8699997
 129.6787352 105.3433223  88.1950234 124.0729992 106.3164990  90.7829997
 123.7269992 105.9344990  91.5889997 123.8729992 107.2494990  90.8539997
 123.9985400 106.3903489  90.9030401 127.1689992 100.8134990  79.4059997
 128.0609992 100.6754990  79.7249997 127.2259992 101.6044990  78.8689997
 127.2987380 100.9014777  79.3770981 117.6779992 105.4274990  85.3149997
 118.4229992 105.4244990  84.7139997 117.7559992 104.6034990  85.7969997
 117.7904158 105.3157928  85.2979136 124.6789992 107.5904990  78.5709997
 124.3839992 108.4174990  78.9529997 123.9759992 106.9714990  78.7669997
 124.5435855 107.6199458  78.6497634 114.6859992 103.8874990  90.6299997
 114.9089992 103.4694990  91.4619997 114.0839992 103.2754990  90.2079997
 114.6350802 103.7475216  90.6867561 121.7029992 103.4044990  92.8429997
 121.4069992 103.2394990  91.9479997 122.6339992 103.1844990  92.8329997
 121.7883909 103.3521274  92.7190110 126.3229992 108.7784990  90.7329997
 125.4219992 108.9614990  90.4649997 126.3569992 109.0374990  91.6539997
 126.2043021 108.8385505  90.8208206 132.0539992 101.0224990  79.0999997
 131.4999992 100.6264990  78.4279997 132.1549992 101.9334990  78.8229997
 131.9917084 101.0913565  78.9704381 132.0169992 106.8234990  91.9369997
 131.1659992 107.0614990  91.5699997 132.6079992 106.8064990  91.1839997
 131.9802468 106.8538251  91.7848902 130.3489992 109.8084990  79.5649997
 129.9769992 108.9834990  79.8749997 130.6269992 109.6254990  78.6679997
 130.3355997 109.6706160  79.4861551 127.5099992 104.6164990  86.5869997
 126.5819992 104.3854990  86.5599997 127.9609992 103.8394990  86.2569997
 127.4438165 104.4797785  86.5386772 120.0529992 108.9454990  82.7199997
 120.5799992 109.7184990  82.5189997 119.1729992 109.1694990  82.4179997
 120.0061793 109.0816652  82.6516304 121.4799992 106.6084990  82.2959997
 121.2389992 107.5334990  82.3379997 120.7399992 106.1494990  82.6919997
 121.3468934 106.6730881  82.3553191 121.9949992 110.7574990  88.6109997
 122.3579992 111.6114990  88.3779997 122.5269992 110.4654990  89.3519997
 122.1165141 110.8348907  88.6792079 120.1629992 111.6294990  81.8409997
 119.2139992 111.7354990  81.8929997 120.5149992 112.4504990  82.1859997
 120.0806214 111.7549361  81.8947317 125.5389992 106.8564990  88.3119997
 125.1129992 106.6284990  89.1379997 126.1199992 106.1174990  88.1289997
 125.5591587 106.7254084  88.4004111 127.7419992 107.7854990  77.3859997
 128.0949992 107.4054990  78.1899997 126.7929992 107.6914990  77.4719997
 127.6620985 107.7207330  77.5077738 128.1979992 111.4084990  90.7809997
 127.5959992 110.8524990  90.2859997 128.4789992 112.0754990  90.1549997
 128.1535757 111.4225755  90.6285657 116.3199992  98.6414990  90.1879997
 115.4269992  98.9794990  90.1209997 116.2209992  97.7854990  90.6059997
 116.1845241  98.5720941  90.2352982 128.6079992 106.4574990  79.6119997
 128.3309992 105.7294990  80.1679997 129.5349992 106.5764990  79.8179997
 128.6954181 106.3740068  79.7158972 115.9709992 110.4454990  88.6229997
 116.1879992 109.5134990  88.5919997 116.2179992 110.7204990  89.5069997
 116.0340543 110.3550877  88.7381412 121.8329992 108.8974990  75.8329997
 122.0719992 108.1484990  75.2849997 121.5639992 108.5094990  76.6649997
 121.8292804 108.7426524  75.8706352 120.7699992 108.4674990  78.2889997
 120.9169992 107.9474990  79.0789997 120.7669992 109.3744990  78.5949997
 120.7897300 108.5188975  78.4385877 117.2229992 105.7194990  78.7989997
 116.5369992 106.0724990  79.3659997 117.7459992 106.4824990  78.5529997
 117.1999033 105.8708757  78.8432644 125.0539992  98.3824990  89.0779997
 125.7529992  98.4564990  89.7279997 124.6739992  97.5174990  89.2329997
 125.0982095  98.2757402  89.1877982 125.8389992  98.0344990  80.1749997
 126.0589992  98.5054990  79.3719997 126.3969992  98.4284990  80.8459997
 125.9445851  98.1523272  80.1556134 123.0389992  99.7624990  81.0099997
 123.8509992 100.2664990  81.0559997 122.7939992  99.6174990  81.9239997
 123.1171091  99.8119366  81.1398552 123.5749992 100.7484990  90.1949997
 123.6939992 101.3224990  90.9519997 124.2299992 100.0604990  90.3099997
 123.6798684 100.7340205  90.3141656 123.9229992  96.8434990  81.9479997
 123.5759992  97.4604990  82.5929997 124.5809992  97.3444990  81.4669997
 123.9645290  96.9956384  81.9711635 119.5799992  97.9064990  78.6359997
 119.4969992  98.7944990  78.9819997 120.4699992  97.6414990  78.8669997
 119.6889751  97.9922482  78.7146066 129.7789992  98.6554990  91.0299997
 128.8629992  98.9174990  90.9419997 130.1149992  98.6524990  90.1329997
 129.6989789  98.6909637  90.8967829 128.3809992 102.4054990  85.1259997
 127.5839992 101.9904990  84.7969997 128.8259992 101.7154990  85.6169997
 128.3320317 102.2553197  85.1473557 129.4679992 111.6614990  86.7479997
 129.3119992 112.3404990  86.0909997 130.3999992 111.7334990  86.9509997
 129.5727328 111.7641586  86.6855529 116.9629992  95.7794990  85.4849997
 116.7339992  95.8384990  84.5579997 116.5199992  94.9884990  85.7919997
 116.8717387  95.6806412  85.3995223 115.8929992 109.7204990  81.6459997
 115.0609992 110.1924990  81.6729997 116.4389992 110.2304990  81.0469997
 115.8528710 109.8540317  81.5687570 115.1819992 112.3324990  92.9759997
 115.7219992 112.1164990  93.7349997 114.6999992 111.5274990  92.7859997
 115.1909101 112.1940216  93.0544364 119.7789992 111.2524990  94.5959997
 120.5469992 110.7934990  94.9369997 119.7579992 111.0264990  93.6659997
 119.8812135 111.1591680  94.5169473 126.3559992 109.6324990  93.3249997
 126.0049992 108.7754990  93.5679997 127.0819992 109.7744990  93.9319997
 126.4061590 109.5345189  93.4402889 115.0889992 106.1434990  93.9299997
 115.2329992 105.2414990  93.6439997 114.3159992 106.4294990  93.4419997
 115.0042854 106.0586876  93.8249363 121.7439992 106.1124990  93.3629997
 121.4159992 106.3834990  92.5049997 121.8959992 105.1714990  93.2749997
 121.7196970 106.0223694  93.2337953 127.4789992 106.0284990  90.7459997
 128.2239992 106.6174990  90.6259997 126.7209992 106.6104990  90.8089997
 127.4785185 106.1877000  90.7380940 115.9209992 103.3434990  93.3499997
 116.3289992 102.4864990  93.2289997 115.6609992 103.3574990  94.2709997
 115.9417082 103.2280596  93.4579469 119.8679992 102.3524990  90.7239997
 119.2499992 103.0264990  91.0049997 120.2119992 102.6734990  89.8909997
 119.8298181 102.4883233  90.6498266 124.8879992 104.8234990  94.0019997
 125.8409992 104.9074990  93.9739997 124.7279992 104.1114990  94.6209997
 124.9968161 104.7387198  94.0818689 120.2079992  99.7074990  91.8069997
 120.3579992  98.9784990  91.2039997 120.2099992 100.4844990  91.2479997
 120.2287664  99.7128971  91.6490525 120.6199992  98.0764990  89.2989997
 121.1559992  98.5284990  88.6469997 119.7679992  97.9684990  88.8769997
 120.5781648  98.1237883  89.1526395 122.2019992 103.5164990  89.5389997
 122.9529992 103.3604990  88.9659997 121.8629992 104.3684990  89.2629997
 122.2589052 103.6102745  89.4233469 126.6179992 101.3314990  94.5669997
 126.8099992 100.4004990  94.4559997 127.4749992 101.7564990  94.5569997
 126.7602320 101.2614743  94.5504433 127.9339992 104.1204990  92.6449997
 127.6529992 104.8294990  92.0669997 128.8769992 104.0474990  92.4939997
 128.0229272 104.2076704  92.5454976 118.6859992 100.9054990  93.7179997
 117.9189992 100.3724990  93.5079997 119.3649992 100.5954990  93.1189997
 118.6728292 100.7906360  93.6082693 121.4259992  95.5334990  89.7309997
 121.3279992  96.4794990  89.6249997 120.6829992  95.1604990  89.2549997
 121.3122363  95.6125987  89.6522029 122.6899992  99.8544990  93.2939997
 122.4539992  99.6354990  94.1959997 121.9069992  99.6474990  92.7849997
 122.5518444  99.7965688  93.3484518 125.4059992  98.9824990  92.3699997
 124.4579992  99.0144990  92.5019997 125.7179992  98.3564990  93.0239997
 125.3185293  98.9022934  92.4764130 127.0399992  97.6164990  94.3749997
 126.9429992  96.6644990  94.3689997 126.7179992  97.8844990  95.2359997
 126.9832229  97.5224706  94.4905108 116.8669992  98.8254990  93.4229997
 117.0779992  98.1194990  92.8119997 116.7549992  98.3884990  94.2669997
 116.8807674  98.6696376  93.4534199 121.6479992  94.8274990  92.4019997
 122.3589992  94.1874990  92.3879997 121.5469992  95.0934990  91.4879997
 121.7316732  94.7758451  92.2765475 122.0009992  96.5094990  94.4559997
 121.8699992  96.0344990  93.6349997 121.4019992  97.2544990  94.3999997
 121.9021524  96.5451968  94.3361553 113.7649992 113.4224990  82.1919997
 113.1179992 112.9604990  81.6589997 114.1199992 112.7504990  82.7749997
 113.7243861 113.2684707  82.1977939 114.6349992 111.5024990  83.9969997
 114.3009992 110.6224990  84.1689997 114.8569992 111.8484990  84.8609997
 114.6192677 111.4287365  84.1374252 132.1839992 112.3124990  86.9769997
 132.1619992 112.4974990  87.9159997 132.8739992 112.8804990  86.6359997
 132.2743439 112.4146898  87.0594774 131.7469992 111.8794990  89.8989997
 131.2599992 111.1434990  89.5279997 132.2959992 111.4854990  90.5769997
 131.7546101 111.7256267  89.9399034 130.1979992 107.6694990  94.5369997
 129.3319992 107.5644990  94.9309997 130.5739992 108.4274990  94.9839997
 130.1303768 107.7576151  94.6513258 131.4989992 105.9254990  80.0509997
 132.3489992 106.3464990  80.1789997 131.5039992 105.1854990  80.6589997
 131.6159745 105.8831347  80.1506479 131.8929992 103.9794990  81.8749997
 131.1669992 103.4994990  82.2729997 132.4739992 104.1844990  82.6069997
 131.8722504 103.9415592  82.0284199 131.6519992 106.7644990  86.8229997
 132.4859992 106.3864990  86.5419997 131.7639992 107.7074990  86.7039997
 131.7811917 106.8402954  86.7684844 130.1379992 109.6424990  89.1299997
 129.4909992 109.9674990  89.7549997 129.6209992 109.2014990  88.4549997
 129.9794068 109.6274726  89.1244918 129.6799992 102.5004990  82.4379997
 129.5299992 101.5554990  82.4179997 129.3259992 102.7814990  83.2819997
 129.6116351 102.4091656  82.5493202 114.7149992 104.5784990  86.4479997
 114.8989992 104.4964990  85.5129997 115.5639992 104.4544990  86.8719997
 114.8550259 104.5504915  86.3771771 130.5359992 104.4704990  92.0769997
 131.1189992 103.7354990  92.2679997 131.0999992 105.2424990  92.1229997
 130.6920326 104.4742746  92.1093579 132.0329992 102.3734990  92.7609997
 131.1689992 101.9944990  92.5959997 132.6369992 101.6344990  92.6869997
 131.9964912 102.2217937  92.7284360 129.3899992 100.0824990  80.8999997
 129.6699992  99.1754990  81.0249997 130.1489992 100.5164990  80.5109997
 129.5309471 100.0170654  80.8645051 130.0019992 100.6644990  86.3359997
 130.9349992 100.8764990  86.3019997 129.7669992 100.7654990  87.2589997
 130.0978357 100.7071303  86.4560232 130.0309992 101.4014990  89.1119997
 129.1879992 101.6694990  89.4779997 130.4739992 102.2234990  88.9009997
 129.9754358 101.5493294  89.1335999 114.3119992  99.8484990  92.5889997
 115.2319992  99.7264990  92.8249997 113.8629992  99.0984990  92.9779997
 114.3771561  99.7303720  92.6739015 132.3139992  95.3814990  94.4659997
 132.6639992  94.7274990  93.8599997 132.4609992  96.2184990  94.0259997
 132.3817192  95.4052545  94.3236712 130.0039992  97.3454990  80.9489997
 130.1859992  96.8964990  81.7739997 129.4039992  96.7614990  80.4849997
 129.9478187  97.2050563  80.9992721 115.5339992  98.1614990  85.4799997
 115.9789992  97.3694990  85.7819997 115.9999992  98.8774990  85.9109997
 115.6579059  98.1499485  85.5796061 113.8379992 101.1604990  86.5489997
 114.3299992 100.9394990  85.7589997 114.1999992 102.0004990  86.8299997
 113.9543429 101.2438220  86.4787918 131.8339992  97.4904990  92.8149997
 130.9169992  97.7614990  92.7789997 131.9569992  96.9554990  92.0309997
 131.7250828  97.4552711  92.7040767 114.1509992  97.4184990  80.6039997
 113.2259992  97.6264990  80.4739997 114.6049992  97.9024990  79.9139997
 114.0857401  97.5123895  80.4929433 128.9219992 112.4024990  82.5489997
 129.5739992 112.0544990  81.9409997 129.4329992 112.8904990  83.1949997
 129.0802872 112.4208248  82.5530964 114.1149992  96.1564990  88.9479997
 113.4499992  95.9104990  89.5909997 113.6719992  96.7784990  88.3709997
 113.9641168  96.2069225  88.9579830 116.3069992 109.3314990  93.0919997
 115.4859992 109.5064990  92.6319997 116.0549992 109.2584990  94.0129997
 116.1606173 109.3455806  93.1534954 119.2609992 110.3054990  89.3509997
 118.8359992 111.1154990  89.0679997 120.1649992 110.3914990  89.0489997
 119.3251002 110.4278728  89.2714798 123.5719992 111.7044990  92.3099997
 123.7569992 111.3714990  93.1879997 124.4189992 112.0144990  91.9879997
 123.7117291 111.7008214  92.3866140 125.9169992 112.9904990  91.5539997
 126.5939992 112.3574990  91.3139997 126.2389992 113.3914990  92.3619997
 126.0531280 112.9580638  91.6303190 130.8349992  95.5804990  90.6339997
 130.0219992  95.9054990  90.2459997 131.0679992  94.8194990  90.1009997
 130.7552566  95.5221570  90.5089196 116.6629992 113.5624990  89.3979997
 115.9419992 114.0024990  88.9469997 116.2969992 113.3114990  90.2469997
 116.5149785 113.5887691  89.4509849 119.1299992 113.1624990  88.4279997
 118.2649992 113.2344990  88.8319997 119.0749992 113.7094990  87.6439997
 119.0042066 113.2462678  88.3773371 123.8409992 113.0504990  87.6039997
 123.3839992 113.5794990  86.9499997 124.0029992 113.6534990  88.3289997
 123.8003919 113.2043990  87.6125740 126.1679992 111.9284990  88.5489997
 125.2639992 112.0934990  88.2829997 126.5969992 112.7814990  88.4829997
 126.1022017 112.0664184  88.5036495 128.7719992 113.4984990  88.8439997
 128.5909992 114.4144990  88.6329997 128.9489992 113.0874990  87.9969997
 128.7711377 113.5683365  88.7007178 116.0779992 112.1854990  86.3089997
 116.0589992 111.7594990  87.1659997 116.8819992 111.8664990  85.8999997
 116.1841393 112.0840297  86.3710155 118.2189992 110.8954990  84.9639997
 117.9999992 109.9784990  85.1329997 119.0429992 111.0354990  85.4299997
 118.3004637 110.7889586  85.0501414 120.7559992 111.3654990  85.8119997
 120.9689992 110.4774990  85.5249997 120.8209992 111.3304990  86.7669997
 120.7939075 111.2393318  85.9017355 124.2649992  97.0294990  84.9569997
 123.5899992  96.3994990  85.2119997 124.8289992  96.5454990  84.3539997
 124.2489558  96.8779283  84.9103451 129.4069992  95.1364990  85.0689997
 130.0109992  95.6844990  84.5679997 128.5379992  95.4554990  84.8289997
 129.3721126  95.2547070  84.9679180 131.1339992  96.2754990  83.4029997
 131.7459992  95.7614990  82.8759997 131.5169992  97.1524990  83.4259997
 131.2693867  96.3237613  83.3340888 116.5909992  95.6634990  82.7789997
 115.8139992  95.4284990  82.2709997 117.1219992  94.8664990  82.7879997
 116.5564443  95.5236721  82.7107200 115.4279992  95.4614990  78.5819997
 115.8669992  96.0724990  77.9909997 114.7939992  95.9994990  79.0559997
 115.4024103  95.6179233  78.5651376 121.1709992  95.5894990  82.5919997
 122.0449992  95.9784990  82.5619997 121.0349992  95.3744990  83.5149997
 121.2723125  95.6137120  82.7126523 126.7269992  95.6194990  84.2409997
 126.8039992  95.7154990  83.2919997 126.4519992  94.7124990  84.3699997
 126.7003407  95.5099188  84.1283532 115.3289992 111.4094990  79.4799997
 114.6439992 111.3714990  78.8119997 115.3319992 112.3214990  79.7679997
 115.2357358 111.5276744  79.4276145 122.3149992  97.6704990  79.4819997
 122.4929992  97.0234990  80.1649997 122.2609992  98.5044990  79.9489997
 122.3320678  97.6946615  79.6386283 130.9019992 112.1814990  80.5569997
 130.7079992 111.4334990  79.9919997 130.8629992 112.9394990  79.9729997
 130.8701907 112.1815770  80.4008077 116.5489992  96.1774990  92.2959997
 116.1829992  95.4114990  92.7389997 117.4619992  96.2064990  92.5829997
 116.6223225  96.0766917  92.3953441 118.5219992  95.5274990  93.8319997
 119.4209992  95.2534990  93.6469997 118.1359992  94.7854990  94.2959997
 118.5927237  95.3896520  93.8694693 126.9429992  94.8604990  94.0139997
 127.0199992  94.4344990  94.8679997 127.8369992  94.8734990  93.6719997
 127.0743315  94.8040320  94.0845052 130.1199992 110.9324990  92.7069997
 129.3379992 110.7464990  92.1869997 130.0479992 111.8624990  92.9239997
 130.0032975 111.0326973  92.6651822 135.8269992 103.6884990  87.7489997
 135.8679992 103.0634990  88.4729997 136.5299992 104.3124990  87.9309997
 135.9276054 103.6873262  87.8726311 136.7509992 108.1384990  86.2839997
 136.3809992 107.3364990  85.9149997 137.6919992 107.9704990  86.3309997
 136.8275630 108.0058680  86.2397873 133.3609992 101.7984990  81.6769997
 132.9129992 102.6444990  81.6589997 132.7999992 101.2194990  81.1619997
 133.2238546 101.8359004  81.6048874 134.0709992 103.9604990  83.8029997
 134.2849992 103.1904990  84.3299997 134.8089992 104.0504990  83.1999997
 134.2000073 103.8673546  83.7935786 138.1439992  99.0024990  84.1619997
 138.1869992  99.8624990  83.7439997 137.6859992  98.4494990  83.5289997
 138.0879613  99.0455689  84.0191276 134.7639992 101.3994990  84.9239997
 135.4179992 100.8494990  85.3559997 134.7879992 101.1254990  84.0079997
 134.8567022 101.2872005  84.8591698 136.9539992  97.9204990  88.2359997
 136.7349992  98.4504990  87.4699997 136.2859992  98.1464990  88.8839997
 136.8337271  98.0236508  88.2186206 139.5229992 105.5954990  88.5239997
 138.7829992 106.1944990  88.6269997 140.2369992 106.1494990  88.2079997
 139.5183288 105.7522368  88.4953787 136.5479992  99.8124990  86.1889997
 137.1609992 100.4454990  86.5619997 137.0599992  99.3404990  85.5319997
 136.7011680  99.8354006  86.1512830 137.9299992 107.5604990  89.3109997
 137.9249992 108.4394990  88.9329997 137.0769992 107.4764990  89.7359997
 137.8139199 107.6695901  89.3166942 134.0519992 107.2314990  80.0929997
 133.7799992 107.4604990  79.2039997 134.0969992 108.0684990  80.5529997
 134.0208709 107.3761069  80.0336089 138.2979992 104.9034990  83.0239997
 137.9679992 104.5324990  82.2049997 138.8859992 104.2324990  83.3699997
 138.3324056 104.7621257  82.9589035 138.6649992 103.6714990  86.6569997
 139.2299992 103.7934990  85.8939997 138.9829992 104.3094990  87.2959997
 138.7853430 103.7744448  86.6389094 139.5449992 108.0714990  91.3739997
 139.2329992 108.8534990  91.8299997 138.8949992 107.9184990  90.6879997
 139.4144643 108.1578019  91.3436657 136.4649992 104.2694990  90.6029997
 136.5349992 104.9204990  91.3009997 135.5739992 104.3724990  90.2679997
 136.3541802 104.3724769  90.6532231 137.7839992 110.1424990  92.1379997
 137.7919992 110.0064990  91.1899997 136.8679992 110.0254990  92.3899997
 137.6612512 110.1080663  92.0423179 137.2879992 103.9724990  80.6129997
 136.9959992 104.7404990  80.1219997 136.6139992 103.3134990  80.4499997
 137.1568843 103.9884537  80.5237695 133.3809992 106.3354990  89.4279997
 132.8799992 106.3074990  88.6129997 133.3869992 105.4304990  89.7379997
 133.3131690 106.2092234  89.3582770 133.1319992 109.1164990  86.3119997
 134.0779992 108.9714990  86.2929997 133.0189992 109.9004990  86.8489997
 133.2463578 109.2026708  86.3820300 136.3759992 111.9174990  82.4569997
 136.5279992 111.5694990  83.3359997 135.5249992 111.5604990  82.2019997
 136.2817899 111.8216749  82.5427322 135.6299992 107.6594990  90.4709997
 135.8459992 107.2974990  91.3309997 134.7749992 107.2844990  90.2609997
 135.5439349 107.5592914  90.5602134 138.2489992  96.1294990  86.4669997
 137.3869992  96.0424990  86.0589997 138.2269992  96.9854990  86.8939997
 138.1280953  96.2333558  86.4689262 138.3399992 101.0944990  87.5619997
 137.6979992 101.0544990  88.2709997 138.3769992 102.0214990  87.3239997
 138.2571659 101.2142540  87.6268463 138.3369992 101.3154990  82.4739997
 137.4439992 100.9754990  82.4149997 138.7879992 100.9384990  81.7179997
 138.2757185 101.2180220  82.3637698 136.0899992 101.4154990  89.4289997
 136.0519992 101.8154990  90.2969997 135.5989992 100.5984990  89.5189997
 136.0184246 101.3598842  89.5601171 132.6979992  98.5314990  83.2789997
 133.3289992  98.5024990  83.9989997 133.1479992  98.1064990  82.5489997
 132.8450905  98.4700839  83.2787479 135.7469992 100.3724990  82.3869997
 134.8579992 100.4714990  82.0469997 136.0429992  99.5304990  82.0409997
 135.6654001 100.2722473  82.2937318 139.3999992 100.3724990  80.0429997
 140.3319992 100.5014990  80.2209997 139.1849992 101.0414990  79.3939997
 139.4984245 100.4806452  79.9795602 136.2089992 106.1234990  92.7089997
 136.9409992 106.3784990  93.2699997 135.4289992 106.3284990  93.2239997
 136.2037684 106.1861457  92.8554774 137.2409992  97.6674990  81.8649997
 136.9229992  96.7644990  81.8299997 138.0219992  97.6694990  81.3129997
 137.3031560  97.5441148  81.7854975 136.5339992 105.4274990  85.3149997
 137.2789992 105.4244990  84.7139997 136.6119992 104.6034990  85.7969997
 136.6464158 105.3157928  85.2979136 133.5419992 103.8874990  90.6299997
 133.7649992 103.4694990  91.4619997 132.9399992 103.2754990  90.2079997
 133.4910802 103.7475216  90.6867561 138.9089992 108.9454990  82.7199997
 139.4359992 109.7184990  82.5189997 138.0289992 109.1694990  82.4179997
 138.8621793 109.0816652  82.6516304 139.0189992 111.6294990  81.8409997
 138.0699992 111.7354990  81.8929997 139.3709992 112.4504990  82.1859997
 138.9366214 111.7549361  81.8947317 135.1759992  98.6414990  90.1879997
 134.2829992  98.9794990  90.1209997 135.0769992  97.7854990  90.6059997
 135.0405241  98.5720941  90.2352982 134.8269992 110.4454990  88.6229997
 135.0439992 109.5134990  88.5919997 135.0739992 110.7204990  89.5069997
 134.8900543 110.3550877  88.7381412 136.0789992 105.7194990  78.7989997
 135.3929992 106.0724990  79.3659997 136.6019992 106.4824990  78.5529997
 136.0559033 105.8708757  78.8432644 138.4359992  97.9064990  78.6359997
 138.3529992  98.7944990  78.9819997 139.3259992  97.6414990  78.8669997
 138.5449751  97.9922482  78.7146066 135.8189992  95.7794990  85.4849997
 135.5899992  95.8384990  84.5579997 135.3759992  94.9884990  85.7919997
 135.7277387  95.6806412  85.3995223 134.7489992 109.7204990  81.6459997
 133.9169992 110.1924990  81.6729997 135.2949992 110.2304990  81.0469997
 134.7088710 109.8540317  81.5687570 134.0379992 112.3324990  92.9759997
 134.5779992 112.1164990  93.7349997 133.5559992 111.5274990  92.7859997
 134.0469101 112.1940216  93.0544364 138.6349992 111.2524990  94.5959997
 139.4029992 110.7934990  94.9369997 138.6139992 111.0264990  93.6659997
 138.7372135 111.1591680  94.5169473 133.9449992 106.1434990  93.9299997
 134.0889992 105.2414990  93.6439997 133.1719992 106.4294990  93.4419997
 133.8602854 106.0586876  93.8249363 134.7769992 103.3434990  93.3499997
 135.1849992 102.4864990  93.2289997 134.5169992 103.3574990  94.2709997
 134.7977082 103.2280596  93.4579469 139.4349992 104.4594990  78.3679997
 138.9759992 103.9754990  79.0539997 139.6899992 103.7904990  77.7319997
 139.4066178 104.3028511  78.3759785 138.7239992 102.3524990  90.7239997
 138.1059992 103.0264990  91.0049997 139.0679992 102.6734990  89.8909997
 138.6858181 102.4883233  90.6498266 139.0639992  99.7074990  91.8069997
 139.2139992  98.9784990  91.2039997 139.0659992 100.4844990  91.2479997
 139.0847664  99.7128971  91.6490525 139.4759992  98.0764990  89.2989997
 140.0119992  98.5284990  88.6469997 138.6239992  97.9684990  88.8769997
 139.4341648  98.1237883  89.1526395 137.5419992 100.9054990  93.7179997
 136.7749992 100.3724990  93.5079997 138.2209992 100.5954990  93.1189997
 137.5288292 100.7906360  93.6082693 135.7229992  98.8254990  93.4229997
 135.9339992  98.1194990  92.8119997 135.6109992  98.3884990  94.2669997
 135.7367674  98.6696376  93.4534199 133.9719992 108.0294990  77.1149997
 134.8859992 108.1084990  77.3879997 133.9789992 107.3424990  76.4479997
 134.0980769 107.9474734  77.0622366 132.6209992 113.4224990  82.1919997
 131.9739992 112.9604990  81.6589997 132.9759992 112.7504990  82.7749997
 132.5803861 113.2684707  82.1977939 133.4909992 111.5024990  83.9969997
 133.1569992 110.6224990  84.1689997 133.7129992 111.8484990  84.8609997
 133.4752677 111.4287366  84.1374252 133.5709992 104.5784990  86.4479997
 133.7549992 104.4964990  85.5129997 134.4199992 104.4544990  86.8719997
 133.7110259 104.5504915  86.3771771 133.1679992  99.8484990  92.5889997
 134.0879992  99.7264990  92.8249997 132.7189992  99.0984990  92.9779997
 133.2331561  99.7303720  92.6739015 134.3899992  98.1614990  85.4799997
 134.8349992  97.3694990  85.7819997 134.8559992  98.8774990  85.9109997
 134.5139059  98.1499485  85.5796061 132.6939992 101.1604990  86.5489997
 133.1859992 100.9394990  85.7589997 133.0559992 102.0004990  86.8299997
 132.8103429 101.2438220  86.4787918 132.9709992  96.1564990  88.9479997
 132.3059992  95.9104990  89.5909997 132.5279992  96.7784990  88.3709997
 132.8201168  96.2069225  88.9579830 135.1629992 109.3314990  93.0919997
 134.3419992 109.5064990  92.6319997 134.9109992 109.2584990  94.0129997
 135.0166173 109.3455806  93.1534954 138.1169992 110.3054990  89.3509997
 137.6919992 111.1154990  89.0679997 139.0209992 110.3914990  89.0489997
 138.1811002 110.4278728  89.2714798 135.5189992 113.5624990  89.3979997
 134.7979992 114.0024990  88.9469997 135.1529992 113.3114990  90.2469997
 135.3709785 113.5887691  89.4509849 137.9859992 113.1624990  88.4279997
 137.1209992 113.2344990  88.8319997 137.9309992 113.7094990  87.6439997
 137.8602066 113.2462678  88.3773371 134.9339992 112.1854990  86.3089997
 134.9149992 111.7594990  87.1659997 135.7379992 111.8664990  85.8999997
 135.0401393 112.0840297  86.3710155 137.0749992 110.8954990  84.9639997
 136.8559992 109.9784990  85.1329997 137.8989992 111.0354990  85.4299997
 137.1564637 110.7889586  85.0501414 135.4469992  95.6634990  82.7789997
 134.6699992  95.4284990  82.2709997 135.9779992  94.8664990  82.7879997
 135.4124443  95.5236721  82.7107200 134.1849992 111.4094990  79.4799997
 133.4999992 111.3714990  78.8119997 134.1879992 112.3214990  79.7679997
 134.0917358 111.5276744  79.4276145 135.4049992  96.1774990  92.2959997
 135.0389992  95.4114990  92.7389997 136.3179992  96.2064990  92.5829997
 135.4783225  96.0766917  92.3953441 137.3779992  95.5274990  93.8319997
 138.2769992  95.2534990  93.6469997 136.9919992  94.7854990  94.2959997
 137.4487237  95.3896520  93.8694693  12.5339992 123.6754990  82.7369997
  12.6229992 124.6194990  82.6049997  11.8949992 123.4004990  82.0789997
  12.4598319 123.7674984  82.6300276  11.4669992 122.9304990  86.1559997
  11.4279992 122.2844990  86.8609997  11.1439992 122.4634990  85.3849997
  11.4180199 122.7790089  86.1482865   3.8349992 122.5444990  87.7489997
   3.8759992 121.9194990  88.4729997   4.5379992 123.1684990  87.9309997
   3.9356054 122.5433262  87.8726311  15.1729992 125.8694990  84.4579997
  14.7319992 125.1494990  84.9079997  15.1599992 126.5904990  85.0879997
  15.1108398 125.8683187  84.6047734   4.7589992 126.9944990  86.2839997
   4.3889992 126.1924990  85.9149997   5.6999992 126.8264990  86.3309997
   4.8355630 126.8618680  86.2397873   1.3689992 120.6544990  81.6769997
   0.9209992 121.5004990  81.6589997   0.8079992 120.0754990  81.1619997
   1.2318546 120.6919004  81.6048874   2.0789992 122.8164990  83.8029997
   2.2929992 122.0464990  84.3299997   2.8169992 122.9064990  83.1999997
   2.2080073 122.7233546  83.7935786  12.2839992 130.9734990  84.6699997
  12.9039992 130.2974990  84.3969997  12.0759992 130.7554990  85.5779997
  12.3407360 130.8514792  84.7554387   9.8559992 125.3624990  86.5619997
  10.1599992 124.6764990  85.9679997  10.5779992 125.4814990  87.1799997
   9.9951152 125.2847201  86.5642106  18.5189992 116.9644990  87.4229997
  18.5679992 117.5744990  88.1589997  18.9449992 117.4254990  86.6999997
  18.5832851 117.1103266  87.4260532  12.9969992 119.7564990  86.8899997
  13.1389992 118.8104990  86.9099997  12.8909992 119.9634990  85.9609997
  13.0021158 119.6549722  86.7672241   6.1519992 117.8584990  84.1619997
   6.1949992 118.7184990  83.7439997   5.6939992 117.3054990  83.5289997
   6.0959613 117.9015689  84.0191276  13.8739992 117.9894990  82.5629997
  14.5199992 117.6604990  83.1879997  14.3839992 118.5064990  81.9399997
  14.0314392 118.0143710  82.5643248   2.7719992 120.2554990  84.9239997
   3.4259992 119.7054990  85.3559997   2.7959992 119.9814990  84.0079997
   2.8647022 120.1432005  84.8591698   7.9279992 121.8054990  84.1399997
   8.5439992 121.2784990  84.6489997   7.3419992 121.1654990  83.7359997
   7.9330652 121.6468919  84.1550277  18.9109992 118.4424990  89.6589997
  18.2219992 119.1004990  89.5639997  18.9259992 118.2444990  90.5959997
  18.8187756 118.5057614  89.7725795   4.9619992 116.7764990  88.2359997
   4.7429992 117.3064990  87.4699997   4.2939992 117.0024990  88.8839997
   4.8417271 116.8796508  88.2186206  12.3309992 126.2764990  81.7799997
  12.0349992 125.9534990  80.9289997  12.0069992 127.1764990  81.8219997
  12.2466501 126.3539058  81.6690893   7.5309992 124.4514990  88.5239997
   6.7909992 125.0504990  88.6269997   8.2449992 125.0054990  88.2079997
   7.5263288 124.6082368  88.4953787  15.6379992 117.2804990  84.5439997
  15.4229992 116.5144990  85.0759997  16.2939992 117.7524990  85.0569997
  15.6972451 117.2394472  84.6861699   4.5559992 118.6684990  86.1889997
   5.1689992 119.3014990  86.5619997   5.0679992 118.1964990  85.5319997
   4.7091680 118.6914006  86.1512830   5.9379992 126.4164990  89.3109997
   5.9329992 127.2954990  88.9329997   5.0849992 126.3324990  89.7359997
   5.8219199 126.5255901  89.3166942   2.0599992 126.0874990  80.0929997
   1.7879992 126.3164990  79.2039997   2.1049992 126.9244990  80.5529997
   2.0288709 126.2321069  80.0336089  15.6849992 127.7084990  86.8059997
  14.7429992 127.7674990  86.9669997  15.9609992 128.6144990  86.6689997
  15.5935771 127.8390270  86.8094827  15.9849992 115.9954990  88.2229997
  15.2489992 116.6054990  88.1849997  16.6689992 116.4104990  87.6969997
  15.9765885 116.1351924  88.1466931   8.9879992 114.0814990  85.6889997
   8.8709992 113.1334990  85.6349997   8.1329992 114.4144990  85.9619997
   8.8563691 113.9965842  85.7185072  13.9369992 129.4894990  83.4309997
  14.3619992 128.7824990  82.9459997  14.2539992 130.2914990  83.0139997
  14.0380266 129.5010201  83.3082461  15.0959992 127.3904990  81.9399997
  14.8389992 126.7004990  81.3279997  15.1669992 126.9474990  82.7849997
  15.0704322 127.2361568  81.9705372  16.7819992 125.9574990  90.4169997
  16.9219992 125.3654990  89.6779997  16.9499992 126.8304990  90.0609997
  16.8238734 125.9944041  90.2676937  11.2549992 122.9194990  80.1889997
  10.5429992 123.4544990  79.8379997  11.9459992 122.9744990  79.5289997
  11.2508696 123.0002591  80.0516372  18.6239992 122.2974990  88.4829997
  17.9719992 122.9914990  88.5719997  19.0889992 122.5074990  87.6729997
  18.5975357 122.4209544  88.3857056  14.6609992 123.1284990  81.1409997
  13.9289992 123.3574990  81.7139997  15.1079992 122.4154990  81.5959997
  14.6212753 123.0633984  81.2809698  14.5579992 121.3034990  90.2089997
  14.6379992 122.0664990  90.7809997  13.9569992 121.5824990  89.5179997
  14.4877115 121.4457707  90.1939631   6.3059992 123.7594990  83.0239997
   5.9759992 123.3884990  82.2049997   6.8939992 123.0884990  83.3699997
   6.3404056 123.6181257  82.9589035   7.6729992 127.1874990  85.7049997
   7.5779992 126.6084990  84.9479997   8.4019992 126.8164990  86.2009997
   7.7586161 127.0580902  85.6685191   6.6729992 122.5274990  86.6569997
   7.2379992 122.6494990  85.8939997   6.9909992 123.1654990  87.2959997
   6.7933430 122.6304448  86.6389094  12.9819992 128.0314990  87.3909997
  12.7409992 128.6934990  88.0389997  12.7839992 127.1964990  87.8159997
  12.9222662 128.0092704  87.5371008   7.5529992 126.9274990  91.3739997
   7.2409992 127.7094990  91.8299997   6.9029992 126.7744990  90.6879997
   7.4224643 127.0138019  91.3436657   4.4729992 123.1254990  90.6029997
   4.5429992 123.7764990  91.3009997   3.5819992 123.2284990  90.2679997
   4.3621802 123.2284769  90.6532231  11.2579992 129.0274990  82.2619997
  11.7319992 129.3234990  83.0389997  10.6949992 129.7664990  82.0279997
  11.2468460 129.1678336  82.3367626   5.7919992 128.9984990  92.1379997
   5.7999992 128.8624990  91.1899997   4.8759992 128.8814990  92.3899997
   5.6692512 128.9640663  92.0423179   5.2959992 122.8284990  80.6129997
   5.0039992 123.5964990  80.1219997   4.6219992 122.1694990  80.4499997
   5.1648843 122.8444537  80.5237695   1.3889992 125.1914990  89.4279997
   0.8879992 125.1634990  88.6129997   1.3949992 124.2864990  89.7379997
   1.3211690 125.0652234  89.3582770   1.1399992 127.9724990  86.3119997
   2.0859992 127.8274990  86.2929997   1.0269992 128.7564990  86.8489997
   1.2543578 128.0586708  86.3820300  19.3369992 128.6384990  91.9939997
  19.2879992 127.6824990  91.9569997  18.5109992 128.9054990  92.3959997
  19.2185767 128.5438841  92.0433133  10.3159992 128.2124990  90.8699997
  10.4029992 129.0384990  91.3449997   9.4519992 127.8824990  91.1189997
  10.2111944 128.2809871  90.9686558  10.7299992 131.9844990  80.6759997
  10.6549992 131.8634990  79.7299997  10.7629992 132.9334990  80.7949997
  10.7241862 132.0962492  80.5624840   4.3839992 130.7734990  82.4569997
   4.5359992 130.4254990  83.3359997   3.5329992 130.4164990  82.2019997
   4.2897899 130.6776749  82.5427322  13.5009992 131.0644990  80.4279997
  12.5659992 131.1644990  80.6069997  13.7809992 130.3544990  81.0059997
  13.4109270 130.9822300  80.5305984  16.4889992 120.1314990  92.4739997
  16.0819992 120.6114990  91.7539997  16.5299992 119.2254990  92.1669997
  16.4387178 120.0748609  92.3337441   3.6379992 126.5154990  90.4709997
   3.8539992 126.1534990  91.3309997   2.7829992 126.1404990  90.2609997
   3.5519349 126.4152914  90.5602134   6.2569992 114.9854990  86.4669997
   5.3949992 114.8984990  86.0589997   6.2349992 115.8414990  86.8939997
   6.1360953 115.0893558  86.4689262  10.9199992 114.7074990  89.8409997
  11.3399992 114.2924990  90.5939997   9.9869992 114.5284990  89.9579997
  10.8513736 114.6264921  89.9598950  14.2459992 118.4624990  90.6949997
  13.7319992 118.3374990  91.4919997  14.0909992 119.3754990  90.4499997
  14.1546643 118.5687068  90.7710624  15.0089992 123.3234990  76.4559997
  15.0509992 123.1014990  75.5259997  15.8579992 123.7224990  76.6459997
  15.1295253 123.3470510  76.3543804   6.3479992 119.9504990  87.5619997
   5.7059992 119.9104990  88.2709997   6.3849992 120.8774990  87.3239997
   6.2651659 120.0702540  87.6268463   6.3449992 120.1714990  82.4739997
   5.4519992 119.8314990  82.4149997   6.7959992 119.7944990  81.7179997
   6.2837185 120.0740220  82.3637698  11.8809992 120.5874990  81.2909997
  11.4719992 121.4024990  80.9989997  12.6009992 120.4474990  80.6759997
  11.9223946 120.6799963  81.1679616  10.9829992 120.7634990  92.7789997
  10.4199992 120.0584990  93.0989997  11.8089992 120.6424990  93.2459997
  11.0176423 120.6505614  92.8860168  12.8849992 120.0334990  84.1049997
  12.6899992 120.6394990  83.3899997  13.0669992 119.2004990  83.6699997
  12.8829272 120.0037955  83.9484075   4.0979992 120.2714990  89.4289997
   4.0599992 120.6714990  90.2969997   3.6069992 119.4544990  89.5189997
   4.0264246 120.2158842  89.5601171   0.7059992 117.3874990  83.2789997
   1.3369992 117.3584990  83.9989997   1.1559992 116.9624990  82.5489997
   0.8530905 117.3260839  83.2787479   1.9799992 118.1334990  78.7029997
   2.4549992 118.7244990  78.1179997   1.2629992 118.6634990  79.0499997
   1.9480406 118.2861011  78.6698495  12.1489992 121.6714990  88.7759997
  12.4729992 121.0404990  88.1329997  11.7089992 121.1374990  89.4369997
  12.1338707 121.5128261  88.7773195   8.9269992 117.5994990  83.5599997
   8.0159992 117.6564990  83.8489997   9.4319992 117.5394990  84.3709997
   8.8706873 117.5991838  83.7091190   3.7549992 119.2284990  82.3869997
   2.8659992 119.3274990  82.0469997   4.0509992 118.3864990  82.0409997
   3.6734001 119.1282473  82.2937318   7.4079992 119.2284990  80.0429997
   8.3399992 119.3574990  80.2209997   7.1929992 119.8974990  79.3939997
   7.5064245 119.3366452  79.9795602  13.3319992 116.8344990  86.8239997
  12.6549992 116.9654990  87.4879997  12.8459992 116.6794990  86.0139997
  13.1737265 116.8314665  86.8053380   6.0819992 120.4224990  77.6099997
   5.5399992 120.0434990  76.9189997   6.9159992 120.6174990  77.1809997
   6.1204283 120.3969383  77.4574298  16.6189992 132.5054990  93.1009997
  16.8189992 132.9294990  92.2659997  17.2749992 132.8494990  93.7079997
  16.7349916 132.6099784  93.0687890   4.2169992 124.9794990  92.7089997
   4.9489992 125.2344990  93.2699997   3.4369992 125.1844990  93.2239997
   4.2117684 125.0421457  92.8554774  10.2469992 120.3864990  85.4469997
  10.8109992 119.8404990  84.8999997  10.0989992 119.8654990  86.2359997
  10.3043037 120.2411798  85.4787212   5.2489992 116.5234990  81.8649997
   4.9309992 115.6204990  81.8299997   6.0299992 116.5254990  81.3129997
   5.3111560 116.4001148  81.7854975   8.8729992 118.7754990  87.8609997
   8.0379992 119.2294990  87.9709997   9.3969992 119.0514990  88.6129997
   8.8295070 118.8749677  87.9777134   9.4169992 124.9884990  79.5459997
   8.6719992 124.4804990  79.2229997   9.2829992 125.0374990  80.4919997
   9.2968633 124.9255714  79.6297563  16.5669992 124.1214990  88.3319997
  17.2089992 124.5774990  87.7889997  15.7369992 124.2344990  87.8699997
  16.5427352 124.1993223  88.1950234  10.9369992 125.1724990  90.7829997
  10.5909992 124.7904990  91.5889997  10.7369992 126.1054990  90.8539997
  10.8625400 125.2463489  90.9030401   4.5419992 124.2834990  85.3149997
   5.2869992 124.2804990  84.7139997   4.6199992 123.4594990  85.7969997
   4.6544158 124.1717928  85.2979136   1.5499992 122.7434990  90.6299997
   1.7729992 122.3254990  91.4619997   0.9479992 122.1314990  90.2079997
   1.4990802 122.6035216  90.6867561   8.5669992 122.2604990  92.8429997
   8.2709992 122.0954990  91.9479997   9.4979992 122.0404990  92.8329997
   8.6523909 122.2081274  92.7190110  13.1869992 127.6344990  90.7329997
  12.2859992 127.8174990  90.4649997  13.2209992 127.8934990  91.6539997
  13.0683021 127.6945505  90.8208206  18.9179992 119.8784990  79.0999997
  18.3639992 119.4824990  78.4279997  19.0189992 120.7894990  78.8229997
  18.8557084 119.9473565  78.9704381  18.8809992 125.6794990  91.9369997
  18.0299992 125.9174990  91.5699997  19.4719992 125.6624990  91.1839997
  18.8442468 125.7098251  91.7848902  17.2129992 128.6644990  79.5649997
  16.8409992 127.8394990  79.8749997  17.4909992 128.4814990  78.6679997
  17.1995997 128.5266160  79.4861551  14.3739992 123.4724990  86.5869997
  13.4459992 123.2414990  86.5599997  14.8249992 122.6954990  86.2569997
  14.3078165 123.3357785  86.5386772   6.9169992 127.8014990  82.7199997
   7.4439992 128.5744990  82.5189997   6.0369992 128.0254990  82.4179997
   6.8701793 127.9376652  82.6516304   2.6719992 122.6634990  77.3069997
   3.2879992 123.2904990  77.6859997   1.8099992 122.9794990  77.5779997
   2.6398195 122.7920810  77.3955369   8.3439992 125.4644990  82.2959997
   8.1029992 126.3894990  82.3379997   7.6039992 125.0054990  82.6919997
   8.2108934 125.5290881  82.3553191   8.8589992 129.6134990  88.6109997
   9.2219992 130.4674990  88.3779997   9.3909992 129.3214990  89.3519997
   8.9805141 129.6908907  88.6792079   7.0269992 130.4854990  81.8409997
   6.0779992 130.5914990  81.8929997   7.3789992 131.3064990  82.1859997
   6.9446214 130.6109361  81.8947317  12.4029992 125.7124990  88.3119997
  11.9769992 125.4844990  89.1379997  12.9839992 124.9734990  88.1289997
  12.4231587 125.5814084  88.4004111  14.6059992 126.6414990  77.3859997
  14.9589992 126.2614990  78.1899997  13.6569992 126.5474990  77.4719997
  14.5260985 126.5767330  77.5077738  15.0619992 130.2644990  90.7809997
  14.4599992 129.7084990  90.2859997  15.3429992 130.9314990  90.1549997
  15.0175757 130.2785755  90.6285657  19.1089992 131.1204990  77.5869997
  19.8529992 131.7064990  77.4469997  18.4149992 131.6894990  77.9199997
  19.1169809 131.2775830  77.6128572   3.1839992 117.4974990  90.1879997
   2.2909992 117.8354990  90.1209997   3.0849992 116.6414990  90.6059997
   3.0485241 117.4280941  90.2352982  15.4719992 125.3134990  79.6119997
  15.1949992 124.5854990  80.1679997  16.3989992 125.4324990  79.8179997
  15.5594181 125.2300068  79.7158972   2.8349992 129.3014990  88.6229997
   3.0519992 128.3694990  88.5919997   3.0819992 129.5764990  89.5069997
   2.8980543 129.2110877  88.7381412  11.9179992 117.2384990  89.0779997
  12.6169992 117.3124990  89.7279997  11.5379992 116.3734990  89.2329997
  11.9622095 117.1317402  89.1877982  12.7029992 116.8904990  80.1749997
  12.9229992 117.3614990  79.3719997  13.2609992 117.2844990  80.8459997
  12.8085851 117.0083272  80.1556134   9.9029992 118.6184990  81.0099997
  10.7149992 119.1224990  81.0559997   9.6579992 118.4734990  81.9239997
   9.9811091 118.6679366  81.1398552  10.4389992 119.6044990  90.1949997
  10.5579992 120.1784990  90.9519997  11.0939992 118.9164990  90.3099997
  10.5438684 119.5900205  90.3141656  10.7869992 115.6994990  81.9479997
  10.4399992 116.3164990  82.5929997  11.4449992 116.2004990  81.4669997
  10.8285290 115.8516384  81.9711635   7.7099992 130.0644990  79.0199997
   7.8709992 130.8644990  78.5189997   7.5129992 130.3714990  79.9049997
   7.7053919 130.2154140  79.0710988  16.6429992 117.5114990  91.0299997
  15.7269992 117.7734990  90.9419997  16.9789992 117.5084990  90.1329997
  16.5629789 117.5469637  90.8967829  15.2449992 121.2614990  85.1259997
  14.4479992 120.8464990  84.7969997  15.6899992 120.5714990  85.6169997
  15.1960317 121.1113197  85.1473556   3.0189992 119.8544990  76.8119997
   2.9739992 120.7934990  76.9909997   2.1309992 119.6184990  76.5419997
   2.8928472 119.9511946  76.8000282  16.3319992 130.5174990  86.7479997
  16.1759992 131.1964990  86.0909997  17.2639992 130.5894990  86.9509997
  16.4367328 130.6201586  86.6855529   3.8269992 114.6354990  85.4849997
   3.5979992 114.6944990  84.5579997   3.3839992 113.8444990  85.7919997
   3.7357387 114.5366412  85.3995223   2.7569992 128.5764990  81.6459997
   1.9249992 129.0484990  81.6729997   3.3029992 129.0864990  81.0469997
   2.7168710 128.7100317  81.5687570   2.0459992 131.1884990  92.9759997
   2.5859992 130.9724990  93.7349997   1.5639992 130.3834990  92.7859997
   2.0549101 131.0500216  93.0544364   6.6429992 130.1084990  94.5959997
   7.4109992 129.6494990  94.9369997   6.6219992 129.8824990  93.6659997
   6.7452135 130.0151680  94.5169473  13.2199992 128.4884990  93.3249997
  12.8689992 127.6314990  93.5679997  13.9459992 128.6304990  93.9319997
  13.2701590 128.3905189  93.4402889   1.9529992 124.9994990  93.9299997
   2.0969992 124.0974990  93.6439997   1.1799992 125.2854990  93.4419997
   1.8682854 124.9146876  93.8249363   8.6079992 124.9684990  93.3629997
   8.2799992 125.2394990  92.5049997   8.7599992 124.0274990  93.2749997
   8.5836970 124.8783694  93.2337953  14.3429992 124.8844990  90.7459997
  15.0879992 125.4734990  90.6259997  13.5849992 125.4664990  90.8089997
  14.3425185 125.0437000  90.7380940   2.7849992 122.1994990  93.3499997
   3.1929992 121.3424990  93.2289997   2.5249992 122.2134990  94.2709997
   2.8057082 122.0840596  93.4579469   7.4429992 123.3154990  78.3679997
   6.9839992 122.8314990  79.0539997   7.6979992 122.6464990  77.7319997
   7.4146178 123.1588511  78.3759785   6.7319992 121.2084990  90.7239997
   6.1139992 121.8824990  91.0049997   7.0759992 121.5294990  89.8909997
   6.6938181 121.3443233  90.6498266   8.5139992 121.5584990  76.6309997
   8.3339992 121.4034990  75.7029997   9.4639992 121.6664990  76.6749997
   8.6178016 121.5519264  76.5102123  11.7519992 123.6794990  94.0019997
  12.7049992 123.7634990  93.9739997  11.5919992 122.9674990  94.6209997
  11.8608161 123.5947198  94.0818689   7.0719992 118.5634990  91.8069997
   7.2219992 117.8344990  91.2039997   7.0739992 119.3404990  91.2479997
   7.0927664 118.5688971  91.6490525   7.4839992 116.9324990  89.2989997
   8.0199992 117.3844990  88.6469997   6.6319992 116.8244990  88.8769997
   7.4421648 116.9797883  89.1526395   9.0659992 122.3724990  89.5389997
   9.8169992 122.2164990  88.9659997   8.7269992 123.2244990  89.2629997
   9.1229052 122.4662745  89.4233469  13.4819992 120.1874990  94.5669997
  13.6739992 119.2564990  94.4559997  14.3389992 120.6124990  94.5569997
  13.6242320 120.1174743  94.5504433  14.7979992 122.9764990  92.6449997
  14.5169992 123.6854990  92.0669997  15.7409992 122.9034990  92.4939997
  14.8869272 123.0636704  92.5454976   5.5499992 119.7614990  93.7179997
   4.7829992 119.2284990  93.5079997   6.2289992 119.4514990  93.1189997
   5.5368292 119.6466360  93.6082693   8.2899992 114.3894990  89.7309997
   8.1919992 115.3354990  89.6249997   7.5469992 114.0164990  89.2549997
   8.1762363 114.4685987  89.6522029   9.5539992 118.7104990  93.2939997
   9.3179992 118.4914990  94.1959997   8.7709992 118.5034990  92.7849997
   9.4158444 118.6525688  93.3484518  12.2699992 117.8384990  92.3699997
  11.3219992 117.8704990  92.5019997  12.5819992 117.2124990  93.0239997
  12.1825293 117.7582934  92.4764130  13.9039992 116.4724990  94.3749997
  13.8069992 115.5204990  94.3689997  13.5819992 116.7404990  95.2359997
  13.8472229 116.3784706  94.4905108   3.7309992 117.6814990  93.4229997
   3.9419992 116.9754990  92.8119997   3.6189992 117.2444990  94.2669997
   3.7447674 117.5256376  93.4534199   8.5119992 113.6834990  92.4019997
   9.2229992 113.0434990  92.3879997   8.4109992 113.9494990  91.4879997
   8.5956732 113.6318451  92.2765475   8.8649992 115.3654990  94.4559997
   8.7339992 114.8904990  93.6349997   8.2659992 116.1104990  94.3999997
   8.7661524 115.4011968  94.3361553   1.9799992 126.8854990  77.1149997
   2.8939992 126.9644990  77.3879997   1.9869992 126.1984990  76.4479997
   2.1060769 126.8034735  77.0622366   0.6289992 132.2784990  82.1919997
  -0.0180008 131.8164990  81.6589997   0.9839992 131.6064990  82.7749997
   0.5883861 132.1244707  82.1977939   1.4989992 130.3584990  83.9969997
   1.1649992 129.4784990  84.1689997   1.7209992 130.7044990  84.8609997
   1.4832677 130.2847366  84.1374252  19.0479992 131.1684990  86.9769997
  19.0259992 131.3534990  87.9159997  19.7379992 131.7364990  86.6359997
  19.1383439 131.2706898  87.0594774  18.6109992 130.7354990  89.8989997
  18.1239992 129.9994990  89.5279997  19.1599992 130.3414990  90.5769997
  18.6186101 130.5816267  89.9399034  17.0619992 126.5254990  94.5369997
  16.1959992 126.4204990  94.9309997  17.4379992 127.2834990  94.9839997
  16.9943768 126.6136151  94.6513258  18.3629992 124.7814990  80.0509997
  19.2129992 125.2024990  80.1789997  18.3679992 124.0414990  80.6589997
  18.4799745 124.7391347  80.1506479  18.7569992 122.8354990  81.8749997
  18.0309992 122.3554990  82.2729997  19.3379992 123.0404990  82.6069997
  18.7362504 122.7975592  82.0284199  18.5159992 125.6204990  86.8229997
  19.3499992 125.2424990  86.5419997  18.6279992 126.5634990  86.7039997
  18.6451917 125.6962954  86.7684844  17.0019992 128.4984990  89.1299997
  16.3549992 128.8234990  89.7549997  16.4849992 128.0574990  88.4549997
  16.8434068 128.4834726  89.1244918  19.0249992 122.7364990  78.2659997
  18.5039992 123.0924990  77.5469997  18.9919992 123.4114990  78.9439997
  18.9491525 122.8765273  78.2591408  16.5439992 121.3564990  82.4379997
  16.3939992 120.4114990  82.4179997  16.1899992 121.6374990  83.2819997
  16.4756351 121.2651656  82.5493202   1.5789992 123.4344990  86.4479997
   1.7629992 123.3524990  85.5129997   2.4279992 123.3104990  86.8719997
   1.7190259 123.4064915  86.3771771  17.3999992 123.3264990  92.0769997
  17.9829992 122.5914990  92.2679997  17.9639992 124.0984990  92.1229997
  17.5560326 123.3302746  92.1093579  18.8969992 121.2294990  92.7609997
  18.0329992 120.8504990  92.5959997  19.5009992 120.4904990  92.6869997
  18.8604912 121.0777937  92.7284360  16.2539992 118.9384990  80.8999997
  16.5339992 118.0314990  81.0249997  17.0129992 119.3724990  80.5109997
  16.3949471 118.8730654  80.8645052  16.8659992 119.5204990  86.3359997
  17.7989992 119.7324990  86.3019997  16.6309992 119.6214990  87.2589997
  16.9618357 119.5631303  86.4560232  16.8949992 120.2574990  89.1119997
  16.0519992 120.5254990  89.4779997  17.3379992 121.0794990  88.9009997
  16.8394358 120.4053294  89.1335999   1.1759992 118.7044990  92.5889997
   2.0959992 118.5824990  92.8249997   0.7269992 117.9544990  92.9779997
   1.2411561 118.5863720  92.6739015  19.1779992 114.2374990  94.4659997
  19.5279992 113.5834990  93.8599997  19.3249992 115.0744990  94.0259997
  19.2457192 114.2612545  94.3236712  16.8679992 116.2014990  80.9489997
  17.0499992 115.7524990  81.7739997  16.2679992 115.6174990  80.4849997
  16.8118187 116.0610563  80.9992721   2.3979992 117.0174990  85.4799997
   2.8429992 116.2254990  85.7819997   2.8639992 117.7334990  85.9109997
   2.5219059 117.0059485  85.5796061   0.7019992 120.0164990  86.5489997
   1.1939992 119.7954990  85.7589997   1.0639992 120.8564990  86.8299997
   0.8183429 120.0998220  86.4787918  18.6979992 116.3464990  92.8149997
  17.7809992 116.6174990  92.7789997  18.8209992 115.8114990  92.0309997
  18.5890828 116.3112711  92.7040767   1.0149992 116.2744990  80.6039997
   0.0899992 116.4824990  80.4739997   1.4689992 116.7584990  79.9139997
   0.9497401 116.3683895  80.4929433  15.7859992 131.2584990  82.5489997
  16.4379992 130.9104990  81.9409997  16.2969992 131.7464990  83.1949997
  15.9442872 131.2768248  82.5530964   0.9789992 115.0124990  88.9479997
   0.3139992 114.7664990  89.5909997   0.5359992 115.6344990  88.3709997
   0.8281168 115.0629225  88.9579830   3.1709992 128.1874990  93.0919997
   2.3499992 128.3624990  92.6319997   2.9189992 128.1144990  94.0129997
   3.0246173 128.2015806  93.1534954   6.1249992 129.1614990  89.3509997
   5.6999992 129.9714990  89.0679997   7.0289992 129.2474990  89.0489997
   6.1891002 129.2838728  89.2714798  10.4359992 130.5604990  92.3099997
  10.6209992 130.2274990  93.1879997  11.2829992 130.8704990  91.9879997
  10.5757291 130.5568214  92.3866140  12.7809992 131.8464990  91.5539997
  13.4579992 131.2134990  91.3139997  13.1029992 132.2474990  92.3619997
  12.9171280 131.8140638  91.6303190  17.6989992 114.4364990  90.6339997
  16.8859992 114.7614990  90.2459997  17.9319992 113.6754990  90.1009997
  17.6192566 114.3781570  90.5089196   3.5269992 132.4184990  89.3979997
   2.8059992 132.8584990  88.9469997   3.1609992 132.1674990  90.2469997
   3.3789785 132.4447691  89.4509849   5.9939992 132.0184990  88.4279997
   5.1289992 132.0904990  88.8319997   5.9389992 132.5654990  87.6439997
   5.8682066 132.1022678  88.3773371  10.7049992 131.9064990  87.6039997
  10.2479992 132.4354990  86.9499997  10.8669992 132.5094990  88.3289997
  10.6643919 132.0603990  87.6125740  13.0319992 130.7844990  88.5489997
  12.1279992 130.9494990  88.2829997  13.4609992 131.6374990  88.4829997
  12.9662017 130.9224184  88.5036495  15.6359992 132.3544990  88.8439997
  15.4549992 133.2704990  88.6329997  15.8129992 131.9434990  87.9969997
  15.6351377 132.4243365  88.7007178   2.9419992 131.0414990  86.3089997
   2.9229992 130.6154990  87.1659997   3.7459992 130.7224990  85.8999997
   3.0481393 130.9400297  86.3710155   5.0829992 129.7514990  84.9639997
   4.8639992 128.8344990  85.1329997   5.9069992 129.8914990  85.4299997
   5.1644637 129.6449586  85.0501414   7.6199992 130.2214990  85.8119997
   7.8329992 129.3334990  85.5249997   7.6849992 130.1864990  86.7669997
   7.6579075 130.0953318  85.9017355  11.1289992 115.8854990  84.9569997
  10.4539992 115.2554990  85.2119997  11.6929992 115.4014990  84.3539997
  11.1129558 115.7339283  84.9103451  16.2709992 113.9924990  85.0689997
  16.8749992 114.5404990  84.5679997  15.4019992 114.3114990  84.8289997
  16.2361126 114.1107070  84.9679180  17.9979992 115.1314990  83.4029997
  18.6099992 114.6174990  82.8759997  18.3809992 116.0084990  83.4259997
  18.1333867 115.1797613  83.3340888   3.4549992 114.5194990  82.7789997
   2.6779992 114.2844990  82.2709997   3.9859992 113.7224990  82.7879997
   3.4204443 114.3796721  82.7107200   2.2919992 114.3174990  78.5819997
   2.7309992 114.9284990  77.9909997   1.6579992 114.8554990  79.0559997
   2.2664104 114.4739233  78.5651376   8.0349992 114.4454990  82.5919997
   8.9089992 114.8344990  82.5619997   7.8989992 114.2304990  83.5149997
   8.1363125 114.4697120  82.7126523  13.5909992 114.4754990  84.2409997
  13.6679992 114.5714990  83.2919997  13.3159992 113.5684990  84.3699997
  13.5643407 114.3659188  84.1283532  14.9449992 114.5014990  79.9339997
  14.2419992 115.1164990  79.7239997  14.4999992 113.6644990  80.0649997
  14.7886550 114.4724679  79.9229819   2.1929992 130.2654990  79.4799997
   1.5079992 130.2274990  78.8119997   2.1959992 131.1774990  79.7679997
   2.0997358 130.3836744  79.4276145  17.7659992 131.0374990  80.5569997
  17.5719992 130.2894990  79.9919997  17.7269992 131.7954990  79.9729997
  17.7341907 131.0375770  80.4008077   3.4129992 115.0334990  92.2959997
   3.0469992 114.2674990  92.7389997   4.3259992 115.0624990  92.5829997
   3.4863225 114.9326917  92.3953441   5.3859992 114.3834990  93.8319997
   6.2849992 114.1094990  93.6469997   4.9999992 113.6414990  94.2959997
   5.4567237 114.2456520  93.8694693  13.8069992 113.7164990  94.0139997
  13.8839992 113.2904990  94.8679997  14.7009992 113.7294990  93.6719997
  13.9383315 113.6600320  94.0845052  16.9839992 129.7884990  92.7069997
  16.2019992 129.6024990  92.1869997  16.9119992 130.7184990  92.9239997
  16.8672975 129.8886973  92.6651822  31.3899992 123.6754990  82.7369997
  31.4789992 124.6194990  82.6049997  30.7509992 123.4004990  82.0789997
  31.3158319 123.7674984  82.6300276  30.3229992 122.9304990  86.1559997
  30.2839992 122.2844990  86.8609997  29.9999992 122.4634990  85.3849997
  30.2740199 122.7790089  86.1482865  22.6909992 122.5444990  87.7489997
  22.7319992 121.9194990  88.4729997  23.3939992 123.1684990  87.9309997
  22.7916054 122.5433262  87.8726311  34.0289992 125.8694990  84.4579997
  33.5879992 125.1494990  84.9079997  34.0159992 126.5904990  85.0879997
  33.9668398 125.8683187  84.6047734  23.6149992 126.9944990  86.2839997
  23.2449992 126.1924990  85.9149997  24.5559992 126.8264990  86.3309997
  23.6915630 126.8618680  86.2397873  20.2249992 120.6544990  81.6769997
  19.7769992 121.5004990  81.6589997  19.6639992 120.0754990  81.1619997
  20.0878546 120.6919004  81.6048874  20.9349992 122.8164990  83.8029997
  21.1489992 122.0464990  84.3299997  21.6729992 122.9064990  83.1999997
  21.0640073 122.7233546  83.7935786  31.1399992 130.9734990  84.6699997
  31.7599992 130.2974990  84.3969997  30.9319992 130.7554990  85.5779997
  31.1967360 130.8514792  84.7554387  28.7119992 125.3624990  86.5619997
  29.0159992 124.6764990  85.9679997  29.4339992 125.4814990  87.1799997
  28.8511152 125.2847201  86.5642106  37.3749992 116.9644990  87.4229997
  37.4239992 117.5744990  88.1589997  37.8009992 117.4254990  86.6999997
  37.4392851 117.1103266  87.4260532  31.8529992 119.7564990  86.8899997
  31.9949992 118.8104990  86.9099997  31.7469992 119.9634990  85.9609997
  31.8581158 119.6549722  86.7672241  25.0079992 117.8584990  84.1619997
  25.0509992 118.7184990  83.7439997  24.5499992 117.3054990  83.5289997
  24.9519613 117.9015689  84.0191276  32.7299992 117.9894990  82.5629997
  33.3759992 117.6604990  83.1879997  33.2399992 118.5064990  81.9399997
  32.8874392 118.0143710  82.5643248  21.6279992 120.2554990  84.9239997
  22.2819992 119.7054990  85.3559997  21.6519992 119.9814990  84.0079997
  21.7207022 120.1432005  84.8591698  26.7839992 121.8054990  84.1399997
  27.3999992 121.2784990  84.6489997  26.1979992 121.1654990  83.7359997
  26.7890652 121.6468919  84.1550277  37.7669992 118.4424990  89.6589997
  37.0779992 119.1004990  89.5639997  37.7819992 118.2444990  90.5959997
  37.6747756 118.5057614  89.7725795  23.8179992 116.7764990  88.2359997
  23.5989992 117.3064990  87.4699997  23.1499992 117.0024990  88.8839997
  23.6977271 116.8796508  88.2186206  31.1869992 126.2764990  81.7799997
  30.8909992 125.9534990  80.9289997  30.8629992 127.1764990  81.8219997
  31.1026501 126.3539058  81.6690893  26.3869992 124.4514990  88.5239997
  25.6469992 125.0504990  88.6269997  27.1009992 125.0054990  88.2079997
  26.3823288 124.6082368  88.4953787  34.4939992 117.2804990  84.5439997
  34.2789992 116.5144990  85.0759997  35.1499992 117.7524990  85.0569997
  34.5532451 117.2394472  84.6861699  23.4119992 118.6684990  86.1889997
  24.0249992 119.3014990  86.5619997  23.9239992 118.1964990  85.5319997
  23.5651680 118.6914006  86.1512830  24.7939992 126.4164990  89.3109997
  24.7889992 127.2954990  88.9329997  23.9409992 126.3324990  89.7359997
  24.6779199 126.5255901  89.3166942  20.9159992 126.0874990  80.0929997
  20.6439992 126.3164990  79.2039997  20.9609992 126.9244990  80.5529997
  20.8848709 126.2321069  80.0336089  34.5409992 127.7084990  86.8059997
  33.5989992 127.7674990  86.9669997  34.8169992 128.6144990  86.6689997
  34.4495771 127.8390270  86.8094827  34.8409992 115.9954990  88.2229997
  34.1049992 116.6054990  88.1849997  35.5249992 116.4104990  87.6969997
  34.8325885 116.1351924  88.1466931  27.8439992 114.0814990  85.6889997
  27.7269992 113.1334990  85.6349997  26.9889992 114.4144990  85.9619997
  27.7123691 113.9965842  85.7185072  32.7929992 129.4894990  83.4309997
  33.2179992 128.7824990  82.9459997  33.1099992 130.2914990  83.0139997
  32.8940266 129.5010201  83.3082461  33.9519992 127.3904990  81.9399997
  33.6949992 126.7004990  81.3279997  34.0229992 126.9474990  82.7849997
  33.9264322 127.2361568  81.9705372  35.6379992 125.9574990  90.4169997
  35.7779992 125.3654990  89.6779997  35.8059992 126.8304990  90.0609997
  35.6798734 125.9944041  90.2676937  30.1109992 122.9194990  80.1889997
  29.3989992 123.4544990  79.8379997  30.8019992 122.9744990  79.5289997
  30.1068696 123.0002591  80.0516372  37.4799992 122.2974990  88.4829997
  36.8279992 122.9914990  88.5719997  37.9449992 122.5074990  87.6729997
  37.4535357 122.4209544  88.3857056  33.5169992 123.1284990  81.1409997
  32.7849992 123.3574990  81.7139997  33.9639992 122.4154990  81.5959997
  33.4772753 123.0633984  81.2809698  33.4139992 121.3034990  90.2089997
  33.4939992 122.0664990  90.7809997  32.8129992 121.5824990  89.5179997
  33.3437115 121.4457707  90.1939631  25.1619992 123.7594990  83.0239997
  24.8319992 123.3884990  82.2049997  25.7499992 123.0884990  83.3699997
  25.1964056 123.6181257  82.9589035  26.5289992 127.1874990  85.7049997
  26.4339992 126.6084990  84.9479997  27.2579992 126.8164990  86.2009997
  26.6146161 127.0580902  85.6685191  25.5289992 122.5274990  86.6569997
  26.0939992 122.6494990  85.8939997  25.8469992 123.1654990  87.2959997
  25.6493430 122.6304448  86.6389094  31.8379992 128.0314990  87.3909997
  31.5969992 128.6934990  88.0389997  31.6399992 127.1964990  87.8159997
  31.7782662 128.0092704  87.5371008  26.4089992 126.9274990  91.3739997
  26.0969992 127.7094990  91.8299997  25.7589992 126.7744990  90.6879997
  26.2784643 127.0138019  91.3436657  32.3879992 122.2914990  78.8259997
  32.9669992 122.4414990  79.5729997  32.8019992 122.7614990  78.1029997
  32.5233122 122.3756288  78.8305024  23.3289992 123.1254990  90.6029997
  23.3989992 123.7764990  91.3009997  22.4379992 123.2284990  90.2679997
  23.2181802 123.2284769  90.6532231  30.1139992 129.0274990  82.2619997
  30.5879992 129.3234990  83.0389997  29.5509992 129.7664990  82.0279997
  30.1028460 129.1678336  82.3367626  24.6479992 128.9984990  92.1379997
  24.6559992 128.8624990  91.1899997  23.7319992 128.8814990  92.3899997
  24.5252512 128.9640663  92.0423179  36.0859992 114.0414990  78.6389997
  35.1859992 114.1794990  78.9339997  36.3379992 114.8724990  78.2369997
  35.9967355 114.1728200  78.6250539  24.1519992 122.8284990  80.6129997
  23.8599992 123.5964990  80.1219997  23.4779992 122.1694990  80.4499997
  24.0208843 122.8444537  80.5237695  20.2449992 125.1914990  89.4279997
  19.7439992 125.1634990  88.6129997  20.2509992 124.2864990  89.7379997
  20.1771690 125.0652234  89.3582770  19.9959992 127.9724990  86.3119997
  20.9419992 127.8274990  86.2929997  19.8829992 128.7564990  86.8489997
  20.1103578 128.0586708  86.3820300  38.1929992 128.6384990  91.9939997
  38.1439992 127.6824990  91.9569997  37.3669992 128.9054990  92.3959997
  38.0745767 128.5438841  92.0433133  29.1719992 128.2124990  90.8699997
  29.2589992 129.0384990  91.3449997  28.3079992 127.8824990  91.1189997
  29.0671944 128.2809871  90.9686558  29.5859992 131.9844990  80.6759997
  29.5109992 131.8634990  79.7299997  29.6189992 132.9334990  80.7949997
  29.5801862 132.0962492  80.5624840  23.2399992 130.7734990  82.4569997
  23.3919992 130.4254990  83.3359997  22.3889992 130.4164990  82.2019997
  23.1457899 130.6776749  82.5427322  32.6879992 131.1384990  77.6789997
  33.0629992 130.3944990  77.2079997  32.6919992 130.8684990  78.5969997
  32.7398969 131.0000920  77.7386475  32.3569992 131.0644990  80.4279997
  31.4219992 131.1644990  80.6069997  32.6369992 130.3544990  81.0059997
  32.2669270 130.9822300  80.5305984  35.3449992 120.1314990  92.4739997
  34.9379992 120.6114990  91.7539997  35.3859992 119.2254990  92.1669997
  35.2947178 120.0748609  92.3337441  22.4939992 126.5154990  90.4709997
  22.7099992 126.1534990  91.3309997  21.6389992 126.1404990  90.2609997
  22.4079349 126.4152914  90.5602134  25.1129992 114.9854990  86.4669997
  24.2509992 114.8984990  86.0589997  25.0909992 115.8414990  86.8939997
  24.9920953 115.0893558  86.4689262  29.7759992 114.7074990  89.8409997
  30.1959992 114.2924990  90.5939997  28.8429992 114.5284990  89.9579997
  29.7073736 114.6264921  89.9598950  33.1019992 118.4624990  90.6949997
  32.5879992 118.3374990  91.4919997  32.9469992 119.3754990  90.4499997
  33.0106643 118.5687068  90.7710624  33.8649992 123.3234990  76.4559997
  33.9069992 123.1014990  75.5259997  34.7139992 123.7224990  76.6459997
  33.9855253 123.3470510  76.3543804  25.2039992 119.9504990  87.5619997
  24.5619992 119.9104990  88.2709997  25.2409992 120.8774990  87.3239997
  25.1211659 120.0702540  87.6268463  25.2009992 120.1714990  82.4739997
  24.3079992 119.8314990  82.4149997  25.6519992 119.7944990  81.7179997
  25.1397185 120.0740220  82.3637698  30.7369992 120.5874990  81.2909997
  30.3279992 121.4024990  80.9989997  31.4569992 120.4474990  80.6759997
  30.7783946 120.6799963  81.1679616  29.8389992 120.7634990  92.7789997
  29.2759992 120.0584990  93.0989997  30.6649992 120.6424990  93.2459997
  29.8736423 120.6505614  92.8860168  31.7409992 120.0334990  84.1049997
  31.5459992 120.6394990  83.3899997  31.9229992 119.2004990  83.6699997
  31.7389272 120.0037955  83.9484075  22.9539992 120.2714990  89.4289997
  22.9159992 120.6714990  90.2969997  22.4629992 119.4544990  89.5189997
  22.8824246 120.2158842  89.5601171  19.5619992 117.3874990  83.2789997
  20.1929992 117.3584990  83.9989997  20.0119992 116.9624990  82.5489997
  19.7090905 117.3260839  83.2787479  20.8359992 118.1334990  78.7029997
  21.3109992 118.7244990  78.1179997  20.1189992 118.6634990  79.0499997
  20.8040406 118.2861011  78.6698495  31.0049992 121.6714990  88.7759997
  31.3289992 121.0404990  88.1329997  30.5649992 121.1374990  89.4369997
  30.9898707 121.5128261  88.7773195  27.7829992 117.5994990  83.5599997
  26.8719992 117.6564990  83.8489997  28.2879992 117.5394990  84.3709997
  27.7266873 117.5991838  83.7091190  22.6109992 119.2284990  82.3869997
  21.7219992 119.3274990  82.0469997  22.9069992 118.3864990  82.0409997
  22.5294001 119.1282473  82.2937318  26.2639992 119.2284990  80.0429997
  27.1959992 119.3574990  80.2209997  26.0489992 119.8974990  79.3939997
  26.3624245 119.3366452  79.9795602  32.1879992 116.8344990  86.8239997
  31.5109992 116.9654990  87.4879997  31.7019992 116.6794990  86.0139997
  32.0297265 116.8314665  86.8053380  35.4749992 132.5054990  93.1009997
  35.6749992 132.9294990  92.2659997  36.1309992 132.8494990  93.7079997
  35.5909916 132.6099784  93.0687890  23.0729992 124.9794990  92.7089997
  23.8049992 125.2344990  93.2699997  22.2929992 125.1844990  93.2239997
  23.0677684 125.0421457  92.8554774  29.1029992 120.3864990  85.4469997
  29.6669992 119.8404990  84.8999997  28.9549992 119.8654990  86.2359997
  29.1603037 120.2411798  85.4787212  24.1049992 116.5234990  81.8649997
  23.7869992 115.6204990  81.8299997  24.8859992 116.5254990  81.3129997
  24.1671560 116.4001148  81.7854975  27.7289992 118.7754990  87.8609997
  26.8939992 119.2294990  87.9709997  28.2529992 119.0514990  88.6129997
  27.6855070 118.8749677  87.9777134  28.2729992 124.9884990  79.5459997
  27.5279992 124.4804990  79.2229997  28.1389992 125.0374990  80.4919997
  28.1528633 124.9255714  79.6297563  35.4229992 124.1214990  88.3319997
  36.0649992 124.5774990  87.7889997  34.5929992 124.2344990  87.8699997
  35.3987352 124.1993223  88.1950234  32.1709992 117.8024990  77.7449997
  31.2319992 117.9134990  77.5939997  32.4679992 118.6584990  78.0509997
  32.0826371 117.9335327  77.7657362  29.7929992 125.1724990  90.7829997
  29.4469992 124.7904990  91.5889997  29.5929992 126.1054990  90.8539997
  29.7185400 125.2463489  90.9030401  32.8889992 119.6694990  79.4059997
  33.7809992 119.5314990  79.7249997  32.9459992 120.4604990  78.8689997
  33.0187380 119.7574777  79.3770981  23.3979992 124.2834990  85.3149997
  24.1429992 124.2804990  84.7139997  23.4759992 123.4594990  85.7969997
  23.5104158 124.1717928  85.2979136  30.3989992 126.4464990  78.5709997
  30.1039992 127.2734990  78.9529997  29.6959992 125.8274990  78.7669997
  30.2635855 126.4759458  78.6497634  20.4059992 122.7434990  90.6299997
  20.6289992 122.3254990  91.4619997  19.8039992 122.1314990  90.2079997
  20.3550802 122.6035216  90.6867561  27.4229992 122.2604990  92.8429997
  27.1269992 122.0954990  91.9479997  28.3539992 122.0404990  92.8329997
  27.5083909 122.2081274  92.7190110  32.0429992 127.6344990  90.7329997
  31.1419992 127.8174990  90.4649997  32.0769992 127.8934990  91.6539997
  31.9243021 127.6945505  90.8208206  37.7739992 119.8784990  79.0999997
  37.2199992 119.4824990  78.4279997  37.8749992 120.7894990  78.8229997
  37.7117084 119.9473565  78.9704381  37.7369992 125.6794990  91.9369997
  36.8859992 125.9174990  91.5699997  38.3279992 125.6624990  91.1839997
  37.7002468 125.7098251  91.7848902  33.2299992 123.4724990  86.5869997
  32.3019992 123.2414990  86.5599997  33.6809992 122.6954990  86.2569997
  33.1638165 123.3357785  86.5386772  25.7729992 127.8014990  82.7199997
  26.2999992 128.5744990  82.5189997  24.8929992 128.0254990  82.4179997
  25.7261793 127.9376652  82.6516304  21.5279992 122.6634990  77.3069997
  22.1439992 123.2904990  77.6859997  20.6659992 122.9794990  77.5779997
  21.4958195 122.7920810  77.3955369  27.1999992 125.4644990  82.2959997
  26.9589992 126.3894990  82.3379997  26.4599992 125.0054990  82.6919997
  27.0668934 125.5290881  82.3553191  27.7149992 129.6134990  88.6109997
  28.0779992 130.4674990  88.3779997  28.2469992 129.3214990  89.3519997
  27.8365141 129.6908907  88.6792079  25.8829992 130.4854990  81.8409997
  24.9339992 130.5914990  81.8929997  26.2349992 131.3064990  82.1859997
  25.8006214 130.6109361  81.8947317  31.2589992 125.7124990  88.3119997
  30.8329992 125.4844990  89.1379997  31.8399992 124.9734990  88.1289997
  31.2791587 125.5814084  88.4004111  33.9179992 130.2644990  90.7809997
  33.3159992 129.7084990  90.2859997  34.1989992 130.9314990  90.1549997
  33.8735757 130.2785755  90.6285657  37.9649992 131.1204990  77.5869997
  38.7089992 131.7064990  77.4469997  37.2709992 131.6894990  77.9199997
  37.9729809 131.2775830  77.6128572  22.0399992 117.4974990  90.1879997
  21.1469992 117.8354990  90.1209997  21.9409992 116.6414990  90.6059997
  21.9045241 117.4280941  90.2352982  21.6909992 129.3014990  88.6229997
  21.9079992 128.3694990  88.5919997  21.9379992 129.5764990  89.5069997
  21.7540543 129.2110877  88.7381412  26.4899992 127.3234990  78.2889997
  26.6369992 126.8034990  79.0789997  26.4869992 128.2304990  78.5949997
  26.5097300 127.3748975  78.4385877  22.9429992 124.5754990  78.7989997
  22.2569992 124.9284990  79.3659997  23.4659992 125.3384990  78.5529997
  22.9199033 124.7268757  78.8432644  30.7739992 117.2384990  89.0779997
  31.4729992 117.3124990  89.7279997  30.3939992 116.3734990  89.2329997
  30.8182095 117.1317402  89.1877982  31.5589992 116.8904990  80.1749997
  31.7789992 117.3614990  79.3719997  32.1169992 117.2844990  80.8459997
  31.6645851 117.0083272  80.1556134  29.2279992 129.0204990  79.0379997
  28.4109992 129.5174990  79.0909997  29.7569992 129.4964990  78.3979997
  29.1877898 129.1528123  78.9587274  28.7589992 118.6184990  81.0099997
  29.5709992 119.1224990  81.0559997  28.5139992 118.4734990  81.9239997
  28.8371091 118.6679366  81.1398552  29.2949992 119.6044990  90.1949997
  29.4139992 120.1784990  90.9519997  29.9499992 118.9164990  90.3099997
  29.3998684 119.5900205  90.3141656  29.6429992 115.6994990  81.9479997
  29.2959992 116.3164990  82.5929997  30.3009992 116.2004990  81.4669997
  29.6845290 115.8516384  81.9711635  35.4989992 117.5114990  91.0299997
  34.5829992 117.7734990  90.9419997  35.8349992 117.5084990  90.1329997
  35.4189789 117.5469637  90.8967829  34.1009992 121.2614990  85.1259997
  33.3039992 120.8464990  84.7969997  34.5459992 120.5714990  85.6169997
  34.0520317 121.1113197  85.1473556  23.5589992 127.1894990  77.6959997
  24.1509992 127.8894990  77.9719997  24.0179992 126.7564990  76.9769997
  23.7021172 127.2267371  77.6365163  35.1879992 130.5174990  86.7479997
  35.0319992 131.1964990  86.0909997  36.1199992 130.5894990  86.9509997
  35.2927328 130.6201586  86.6855529  22.6829992 114.6354990  85.4849997
  22.4539992 114.6944990  84.5579997  22.2399992 113.8444990  85.7919997
  22.5917387 114.5366412  85.3995223  21.6129992 128.5764990  81.6459997
  20.7809992 129.0484990  81.6729997  22.1589992 129.0864990  81.0469997
  21.5728710 128.7100317  81.5687570  20.9019992 131.1884990  92.9759997
  21.4419992 130.9724990  93.7349997  20.4199992 130.3834990  92.7859997
  20.9109101 131.0500216  93.0544364  25.4989992 130.1084990  94.5959997
  26.2669992 129.6494990  94.9369997  25.4779992 129.8824990  93.6659997
  25.6012135 130.0151680  94.5169473  32.0759992 128.4884990  93.3249997
  31.7249992 127.6314990  93.5679997  32.8019992 128.6304990  93.9319997
  32.1261590 128.3905189  93.4402889  20.8089992 124.9994990  93.9299997
  20.9529992 124.0974990  93.6439997  20.0359992 125.2854990  93.4419997
  20.7242854 124.9146876  93.8249363  25.1499992 125.3424990  76.0619997
  25.2139992 124.5484990  76.5929997  25.8029992 125.2244990  75.3729997
  25.2471168 125.2177747  76.0415119  27.4639992 124.9684990  93.3629997
  27.1359992 125.2394990  92.5049997  27.6159992 124.0274990  93.2749997
  27.4396970 124.8783694  93.2337953  30.5019992 126.3894990  75.7979997
  30.2339992 126.5704990  76.6989997  30.2959992 125.4644990  75.6669997
  30.4374251 126.2891528  75.9036809  33.1989992 124.8844990  90.7459997
  33.9439992 125.4734990  90.6259997  32.4409992 125.4664990  90.8089997
  33.1985185 125.0437000  90.7380940  21.6409992 122.1994990  93.3499997
  22.0489992 121.3424990  93.2289997  21.3809992 122.2134990  94.2709997
  21.6617082 122.0840596  93.4579469  26.2989992 123.3154990  78.3679997
  25.8399992 122.8314990  79.0539997  26.5539992 122.6464990  77.7319997
  26.2706178 123.1588511  78.3759785  25.5879992 121.2084990  90.7239997
  24.9699992 121.8824990  91.0049997  25.9319992 121.5294990  89.8909997
  25.5498181 121.3443233  90.6498266  30.6079992 123.6794990  94.0019997
  31.5609992 123.7634990  93.9739997  30.4479992 122.9674990  94.6209997
  30.7168161 123.5947198  94.0818689  25.9279992 118.5634990  91.8069997
  26.0779992 117.8344990  91.2039997  25.9299992 119.3404990  91.2479997
  25.9487664 118.5688971  91.6490525  26.3399992 116.9324990  89.2989997
  26.8759992 117.3844990  88.6469997  25.4879992 116.8244990  88.8769997
  26.2981648 116.9797883  89.1526395  27.9219992 122.3724990  89.5389997
  28.6729992 122.2164990  88.9659997  27.5829992 123.2244990  89.2629997
  27.9789052 122.4662745  89.4233469  32.3379992 120.1874990  94.5669997
  32.5299992 119.2564990  94.4559997  33.1949992 120.6124990  94.5569997
  32.4802320 120.1174743  94.5504433  33.6539992 122.9764990  92.6449997
  33.3729992 123.6854990  92.0669997  34.5969992 122.9034990  92.4939997
  33.7429272 123.0636704  92.5454976  24.4059992 119.7614990  93.7179997
  23.6389992 119.2284990  93.5079997  25.0849992 119.4514990  93.1189997
  24.3928292 119.6466360  93.6082693  27.1459992 114.3894990  89.7309997
  27.0479992 115.3354990  89.6249997  26.4029992 114.0164990  89.2549997
  27.0322363 114.4685987  89.6522029  28.4099992 118.7104990  93.2939997
  28.1739992 118.4914990  94.1959997  27.6269992 118.5034990  92.7849997
  28.2718444 118.6525688  93.3484518  31.1259992 117.8384990  92.3699997
  30.1779992 117.8704990  92.5019997  31.4379992 117.2124990  93.0239997
  31.0385293 117.7582934  92.4764130  32.7599992 116.4724990  94.3749997
  32.6629992 115.5204990  94.3689997  32.4379992 116.7404990  95.2359997
  32.7032229 116.3784706  94.4905108  22.5869992 117.6814990  93.4229997
  22.7979992 116.9754990  92.8119997  22.4749992 117.2444990  94.2669997
  22.6007674 117.5256376  93.4534199  27.3679992 113.6834990  92.4019997
  28.0789992 113.0434990  92.3879997  27.2669992 113.9494990  91.4879997
  27.4516732 113.6318451  92.2765475  27.7209992 115.3654990  94.4559997
  27.5899992 114.8904990  93.6349997  27.1219992 116.1104990  94.3999997
  27.6221524 115.4011968  94.3361553  19.4849992 132.2784990  82.1919997
  18.8379992 131.8164990  81.6589997  19.8399992 131.6064990  82.7749997
  19.4443861 132.1244707  82.1977939  20.3549992 130.3584990  83.9969997
  20.0209992 129.4784990  84.1689997  20.5769992 130.7044990  84.8609997
  20.3392677 130.2847366  84.1374252  37.9039992 131.1684990  86.9769997
  37.8819992 131.3534990  87.9159997  38.5939992 131.7364990  86.6359997
  37.9943439 131.2706898  87.0594774  37.4669992 130.7354990  89.8989997
  36.9799992 129.9994990  89.5279997  38.0159992 130.3414990  90.5769997
  37.4746101 130.5816267  89.9399034  35.9179992 126.5254990  94.5369997
  35.0519992 126.4204990  94.9309997  36.2939992 127.2834990  94.9839997
  35.8503768 126.6136151  94.6513258  37.6129992 122.8354990  81.8749997
  36.8869992 122.3554990  82.2729997  38.1939992 123.0404990  82.6069997
  37.5922504 122.7975592  82.0284199  37.3719992 125.6204990  86.8229997
  38.2059992 125.2424990  86.5419997  37.4839992 126.5634990  86.7039997
  37.5011917 125.6962954  86.7684844  35.8579992 128.4984990  89.1299997
  35.2109992 128.8234990  89.7549997  35.3409992 128.0574990  88.4549997
  35.6994068 128.4834726  89.1244918  37.8809992 122.7364990  78.2659997
  37.3599992 123.0924990  77.5469997  37.8479992 123.4114990  78.9439997
  37.8051525 122.8765273  78.2591408  35.3999992 121.3564990  82.4379997
  35.2499992 120.4114990  82.4179997  35.0459992 121.6374990  83.2819997
  35.3316351 121.2651656  82.5493202  20.4349992 123.4344990  86.4479997
  20.6189992 123.3524990  85.5129997  21.2839992 123.3104990  86.8719997
  20.5750259 123.4064915  86.3771771  36.2559992 123.3264990  92.0769997
  36.8389992 122.5914990  92.2679997  36.8199992 124.0984990  92.1229997
  36.4120326 123.3302746  92.1093579  37.7529992 121.2294990  92.7609997
  36.8889992 120.8504990  92.5959997  38.3569992 120.4904990  92.6869997
  37.7164912 121.0777937  92.7284360  35.1099992 118.9384990  80.8999997
  35.3899992 118.0314990  81.0249997  35.8689992 119.3724990  80.5109997
  35.2509471 118.8730654  80.8645052  35.7219992 119.5204990  86.3359997
  36.6549992 119.7324990  86.3019997  35.4869992 119.6214990  87.2589997
  35.8178357 119.5631303  86.4560232  35.7509992 120.2574990  89.1119997
  34.9079992 120.5254990  89.4779997  36.1939992 121.0794990  88.9009997
  35.6954358 120.4053294  89.1335999  20.0319992 118.7044990  92.5889997
  20.9519992 118.5824990  92.8249997  19.5829992 117.9544990  92.9779997
  20.0971561 118.5863720  92.6739015  38.0339992 114.2374990  94.4659997
  38.3839992 113.5834990  93.8599997  38.1809992 115.0744990  94.0259997
  38.1017192 114.2612545  94.3236712  35.7239992 116.2014990  80.9489997
  35.9059992 115.7524990  81.7739997  35.1239992 115.6174990  80.4849997
  35.6678187 116.0610563  80.9992721  21.2539992 117.0174990  85.4799997
  21.6989992 116.2254990  85.7819997  21.7199992 117.7334990  85.9109997
  21.3779059 117.0059485  85.5796061  19.5579992 120.0164990  86.5489997
  20.0499992 119.7954990  85.7589997  19.9199992 120.8564990  86.8299997
  19.6743429 120.0998220  86.4787918  37.5539992 116.3464990  92.8149997
  36.6369992 116.6174990  92.7789997  37.6769992 115.8114990  92.0309997
  37.4450828 116.3112711  92.7040767  19.8709992 116.2744990  80.6039997
  18.9459992 116.4824990  80.4739997  20.3249992 116.7584990  79.9139997
  19.8057401 116.3683895  80.4929433  34.6419992 131.2584990  82.5489997
  35.2939992 130.9104990  81.9409997  35.1529992 131.7464990  83.1949997
  34.8002872 131.2768248  82.5530964  19.8349992 115.0124990  88.9479997
  19.1699992 114.7664990  89.5909997  19.3919992 115.6344990  88.3709997
  19.6841168 115.0629225  88.9579830  22.0269992 128.1874990  93.0919997
  21.2059992 128.3624990  92.6319997  21.7749992 128.1144990  94.0129997
  21.8806173 128.2015806  93.1534954  24.9809992 129.1614990  89.3509997
  24.5559992 129.9714990  89.0679997  25.8849992 129.2474990  89.0489997
  25.0451002 129.2838728  89.2714798  29.2919992 130.5604990  92.3099997
  29.4769992 130.2274990  93.1879997  30.1389992 130.8704990  91.9879997
  29.4317291 130.5568214  92.3866140  31.6369992 131.8464990  91.5539997
  32.3139992 131.2134990  91.3139997  31.9589992 132.2474990  92.3619997
  31.7731280 131.8140638  91.6303190  36.5549992 114.4364990  90.6339997
  35.7419992 114.7614990  90.2459997  36.7879992 113.6754990  90.1009997
  36.4752566 114.3781570  90.5089196  22.3829992 132.4184990  89.3979997
  21.6619992 132.8584990  88.9469997  22.0169992 132.1674990  90.2469997
  22.2349785 132.4447691  89.4509849  24.8499992 132.0184990  88.4279997
  23.9849992 132.0904990  88.8319997  24.7949992 132.5654990  87.6439997
  24.7242066 132.1022678  88.3773371  29.5609992 131.9064990  87.6039997
  29.1039992 132.4354990  86.9499997  29.7229992 132.5094990  88.3289997
  29.5203919 132.0603990  87.6125740  31.8879992 130.7844990  88.5489997
  30.9839992 130.9494990  88.2829997  32.3169992 131.6374990  88.4829997
  31.8222017 130.9224184  88.5036495  34.4919992 132.3544990  88.8439997
  34.3109992 133.2704990  88.6329997  34.6689992 131.9434990  87.9969997
  34.4911377 132.4243365  88.7007178  21.7979992 131.0414990  86.3089997
  21.7789992 130.6154990  87.1659997  22.6019992 130.7224990  85.8999997
  21.9041393 130.9400297  86.3710155  23.9389992 129.7514990  84.9639997
  23.7199992 128.8344990  85.1329997  24.7629992 129.8914990  85.4299997
  24.0204637 129.6449586  85.0501414  26.4759992 130.2214990  85.8119997
  26.6889992 129.3334990  85.5249997  26.5409992 130.1864990  86.7669997
  26.5139075 130.0953318  85.9017355  29.9849992 115.8854990  84.9569997
  29.3099992 115.2554990  85.2119997  30.5489992 115.4014990  84.3539997
  29.9689558 115.7339283  84.9103451  35.1269992 113.9924990  85.0689997
  35.7309992 114.5404990  84.5679997  34.2579992 114.3114990  84.8289997
  35.0921126 114.1107070  84.9679180  36.8539992 115.1314990  83.4029997
  37.4659992 114.6174990  82.8759997  37.2369992 116.0084990  83.4259997
  36.9893867 115.1797613  83.3340888  22.3109992 114.5194990  82.7789997
  21.5339992 114.2844990  82.2709997  22.8419992 113.7224990  82.7879997
  22.2764443 114.3796721  82.7107200  21.1479992 114.3174990  78.5819997
  21.5869992 114.9284990  77.9909997  20.5139992 114.8554990  79.0559997
  21.1224104 114.4739233  78.5651376  26.8909992 114.4454990  82.5919997
  27.7649992 114.8344990  82.5619997  26.7549992 114.2304990  83.5149997
  26.9923125 114.4697120  82.7126523  32.4469992 114.4754990  84.2409997
  32.5239992 114.5714990  83.2919997  32.1719992 113.5684990  84.3699997
  32.4203407 114.3659188  84.1283532  33.8009992 114.5014990  79.9339997
  33.0979992 115.1164990  79.7239997  33.3559992 113.6644990  80.0649997
  33.6446550 114.4724679  79.9229819  21.0489992 130.2654990  79.4799997
  20.3639992 130.2274990  78.8119997  21.0519992 131.1774990  79.7679997
  20.9557358 130.3836744  79.4276145  28.0349992 116.5264990  79.4819997
  28.2129992 115.8794990  80.1649997  27.9809992 117.3604990  79.9489997
  28.0520678 116.5506615  79.6386283  36.6219992 131.0374990  80.5569997
  36.4279992 130.2894990  79.9919997  36.5829992 131.7954990  79.9729997
  36.5901907 131.0375770  80.4008077  22.2689992 115.0334990  92.2959997
  21.9029992 114.2674990  92.7389997  23.1819992 115.0624990  92.5829997
  22.3423225 114.9326917  92.3953441  24.2419992 114.3834990  93.8319997
  25.1409992 114.1094990  93.6469997  23.8559992 113.6414990  94.2959997
  24.3127237 114.2456520  93.8694693  32.6629992 113.7164990  94.0139997
  32.7399992 113.2904990  94.8679997  33.5569992 113.7294990  93.6719997
  32.7943315 113.6600320  94.0845052  35.8399992 129.7884990  92.7069997
  35.0579992 129.6024990  92.1869997  35.7679992 130.7184990  92.9239997
  35.7232975 129.8886973  92.6651822  50.2459992 123.6754990  82.7369997
  50.3349992 124.6194990  82.6049997  49.6069992 123.4004990  82.0789997
  50.1718319 123.7674984  82.6300276  49.1789992 122.9304990  86.1559997
  49.1399992 122.2844990  86.8609997  48.8559992 122.4634990  85.3849997
  49.1300199 122.7790089  86.1482865  41.5469992 122.5444990  87.7489997
  41.5879992 121.9194990  88.4729997  42.2499992 123.1684990  87.9309997
  41.6476054 122.5433262  87.8726311  52.8849992 125.8694990  84.4579997
  52.4439992 125.1494990  84.9079997  52.8719992 126.5904990  85.0879997
  52.8228398 125.8683187  84.6047734  42.4709992 126.9944990  86.2839997
  42.1009992 126.1924990  85.9149997  43.4119992 126.8264990  86.3309997
  42.5475630 126.8618680  86.2397873  39.0809992 120.6544990  81.6769997
  38.6329992 121.5004990  81.6589997  38.5199992 120.0754990  81.1619997
  38.9438546 120.6919004  81.6048874  39.7909992 122.8164990  83.8029997
  40.0049992 122.0464990  84.3299997  40.5289992 122.9064990  83.1999997
  39.9200073 122.7233546  83.7935786  49.9959992 130.9734990  84.6699997
  50.6159992 130.2974990  84.3969997  49.7879992 130.7554990  85.5779997
  50.0527360 130.8514792  84.7554387  47.5679992 125.3624990  86.5619997
  47.8719992 124.6764990  85.9679997  48.2899992 125.4814990  87.1799997
  47.7071152 125.2847201  86.5642106  56.2309992 116.9644990  87.4229997
  56.2799992 117.5744990  88.1589997  56.6569992 117.4254990  86.6999997
  56.2952851 117.1103266  87.4260532  50.7089992 119.7564990  86.8899997
  50.8509992 118.8104990  86.9099997  50.6029992 119.9634990  85.9609997
  50.7141158 119.6549722  86.7672241  43.8639992 117.8584990  84.1619997
  43.9069992 118.7184990  83.7439997  43.4059992 117.3054990  83.5289997
  43.8079613 117.9015689  84.0191276  51.5859992 117.9894990  82.5629997
  52.2319992 117.6604990  83.1879997  52.0959992 118.5064990  81.9399997
  51.7434392 118.0143710  82.5643248  40.4839992 120.2554990  84.9239997
  41.1379992 119.7054990  85.3559997  40.5079992 119.9814990  84.0079997
  40.5767022 120.1432005  84.8591698  45.6399992 121.8054990  84.1399997
  46.2559992 121.2784990  84.6489997  45.0539992 121.1654990  83.7359997
  45.6450652 121.6468919  84.1550277  56.6229992 118.4424990  89.6589997
  55.9339992 119.1004990  89.5639997  56.6379992 118.2444990  90.5959997
  56.5307756 118.5057614  89.7725795  42.6739992 116.7764990  88.2359997
  42.4549992 117.3064990  87.4699997  42.0059992 117.0024990  88.8839997
  42.5537271 116.8796508  88.2186206  50.0429992 126.2764990  81.7799997
  49.7469992 125.9534990  80.9289997  49.7189992 127.1764990  81.8219997
  49.9586501 126.3539058  81.6690893  45.2429992 124.4514990  88.5239997
  44.5029992 125.0504990  88.6269997  45.9569992 125.0054990  88.2079997
  45.2383288 124.6082368  88.4953787  53.3499992 117.2804990  84.5439997
  53.1349992 116.5144990  85.0759997  54.0059992 117.7524990  85.0569997
  53.4092451 117.2394472  84.6861699  42.2679992 118.6684990  86.1889997
  42.8809992 119.3014990  86.5619997  42.7799992 118.1964990  85.5319997
  42.4211680 118.6914006  86.1512830  43.6499992 126.4164990  89.3109997
  43.6449992 127.2954990  88.9329997  42.7969992 126.3324990  89.7359997
  43.5339199 126.5255901  89.3166942  39.7719992 126.0874990  80.0929997
  39.4999992 126.3164990  79.2039997  39.8169992 126.9244990  80.5529997
  39.7408709 126.2321069  80.0336089  53.3969992 127.7084990  86.8059997
  52.4549992 127.7674990  86.9669997  53.6729992 128.6144990  86.6689997
  53.3055771 127.8390270  86.8094827  53.6969992 115.9954990  88.2229997
  52.9609992 116.6054990  88.1849997  54.3809992 116.4104990  87.6969997
  53.6885885 116.1351924  88.1466931  46.6999992 114.0814990  85.6889997
  46.5829992 113.1334990  85.6349997  45.8449992 114.4144990  85.9619997
  46.5683691 113.9965842  85.7185072  51.6489992 129.4894990  83.4309997
  52.0739992 128.7824990  82.9459997  51.9659992 130.2914990  83.0139997
  51.7500266 129.5010201  83.3082461  52.8079992 127.3904990  81.9399997
  52.5509992 126.7004990  81.3279997  52.8789992 126.9474990  82.7849997
  52.7824322 127.2361568  81.9705372  54.4939992 125.9574990  90.4169997
  54.6339992 125.3654990  89.6779997  54.6619992 126.8304990  90.0609997
  54.5358734 125.9944041  90.2676937  48.9669992 122.9194990  80.1889997
  48.2549992 123.4544990  79.8379997  49.6579992 122.9744990  79.5289997
  48.9628696 123.0002591  80.0516372  49.0209992 121.3764990  77.2279997
  49.7219992 121.3994990  77.8789997  49.3229992 120.7484990  76.5719997
  49.1578282 121.2947350  77.2284478  56.3359992 122.2974990  88.4829997
  55.6839992 122.9914990  88.5719997  56.8009992 122.5074990  87.6729997
  56.3095357 122.4209544  88.3857056  52.3729992 123.1284990  81.1409997
  51.6409992 123.3574990  81.7139997  52.8199992 122.4154990  81.5959997
  52.3332753 123.0633984  81.2809698  52.2699992 121.3034990  90.2089997
  52.3499992 122.0664990  90.7809997  51.6689992 121.5824990  89.5179997
  52.1997115 121.4457707  90.1939631  44.0179992 123.7594990  83.0239997
  43.6879992 123.3884990  82.2049997  44.6059992 123.0884990  83.3699997
  44.0524056 123.6181257  82.9589035  45.3849992 127.1874990  85.7049997
  45.2899992 126.6084990  84.9479997  46.1139992 126.8164990  86.2009997
  45.4706161 127.0580902  85.6685192  44.3849992 122.5274990  86.6569997
  44.9499992 122.6494990  85.8939997  44.7029992 123.1654990  87.2959997
  44.5053430 122.6304448  86.6389094  50.6939992 128.0314990  87.3909997
  50.4529992 128.6934990  88.0389997  50.4959992 127.1964990  87.8159997
  50.6342662 128.0092704  87.5371008  45.2649992 126.9274990  91.3739997
  44.9529992 127.7094990  91.8299997  44.6149992 126.7744990  90.6879997
  45.1344643 127.0138019  91.3436657  42.1849992 123.1254990  90.6029997
  42.2549992 123.7764990  91.3009997  41.2939992 123.2284990  90.2679997
  42.0741802 123.2284769  90.6532231  48.9699992 129.0274990  82.2619997
  49.4439992 129.3234990  83.0389997  48.4069992 129.7664990  82.0279997
  48.9588460 129.1678336  82.3367626  43.5039992 128.9984990  92.1379997
  43.5119992 128.8624990  91.1899997  42.5879992 128.8814990  92.3899997
  43.3812512 128.9640663  92.0423179  54.9419992 114.0414990  78.6389997
  54.0419992 114.1794990  78.9339997  55.1939992 114.8724990  78.2369997
  54.8527355 114.1728200  78.6250539  43.0079992 122.8284990  80.6129997
  42.7159992 123.5964990  80.1219997  42.3339992 122.1694990  80.4499997
  42.8768843 122.8444537  80.5237695  56.1319992 128.4074990  77.0159997
  56.2049992 129.3464990  77.1859997  57.0369992 128.1024990  76.9589997
  56.2644168 128.4948531  77.0315736  39.1009992 125.1914990  89.4279997
  38.5999992 125.1634990  88.6129997  39.1069992 124.2864990  89.7379997
  39.0331690 125.0652234  89.3582770  38.8519992 127.9724990  86.3119997
  39.7979992 127.8274990  86.2929997  38.7389992 128.7564990  86.8489997
  38.9663578 128.0586708  86.3820300  57.0489992 128.6384990  91.9939997
  56.9999992 127.6824990  91.9569997  56.2229992 128.9054990  92.3959997
  56.9305767 128.5438841  92.0433133  48.0279992 128.2124990  90.8699997
  48.1149992 129.0384990  91.3449997  47.1639992 127.8824990  91.1189997
  47.9231944 128.2809871  90.9686558  48.4419992 131.9844990  80.6759997
  48.3669992 131.8634990  79.7299997  48.4749992 132.9334990  80.7949997
  48.4361862 132.0962492  80.5624840  42.0959992 130.7734990  82.4569997
  42.2479992 130.4254990  83.3359997  41.2449992 130.4164990  82.2019997
  42.0017899 130.6776749  82.5427322  51.5439992 131.1384990  77.6789997
  51.9189992 130.3944990  77.2079997  51.5479992 130.8684990  78.5969997
  51.5958969 131.0000920  77.7386475  51.2129992 131.0644990  80.4279997
  50.2779992 131.1644990  80.6069997  51.4929992 130.3544990  81.0059997
  51.1229270 130.9822300  80.5305984  54.2009992 120.1314990  92.4739997
  53.7939992 120.6114990  91.7539997  54.2419992 119.2254990  92.1669997
  54.1507178 120.0748609  92.3337441  41.3499992 126.5154990  90.4709997
  41.5659992 126.1534990  91.3309997  40.4949992 126.1404990  90.2609997
  41.2639349 126.4152914  90.5602134  43.9689992 114.9854990  86.4669997
  43.1069992 114.8984990  86.0589997  43.9469992 115.8414990  86.8939997
  43.8480953 115.0893558  86.4689262  48.6319992 114.7074990  89.8409997
  49.0519992 114.2924990  90.5939997  47.6989992 114.5284990  89.9579997
  48.5633736 114.6264921  89.9598950  51.9579992 118.4624990  90.6949997
  51.4439992 118.3374990  91.4919997  51.8029992 119.3754990  90.4499997
  51.8666643 118.5687068  90.7710624  48.2939992 117.1994990  77.1259997
  48.0399992 117.2184990  78.0489997  48.0369992 116.3284990  76.8249997
  48.2245133 117.0843121  77.2115065  44.0599992 119.9504990  87.5619997
  43.4179992 119.9104990  88.2709997  44.0969992 120.8774990  87.3239997
  43.9771659 120.0702540  87.6268463  44.0569992 120.1714990  82.4739997
  43.1639992 119.8314990  82.4149997  44.5079992 119.7944990  81.7179997
  43.9957185 120.0740220  82.3637698  49.5929992 120.5874990  81.2909997
  49.1839992 121.4024990  80.9989997  50.3129992 120.4474990  80.6759997
  49.6343946 120.6799963  81.1679616  48.6949992 120.7634990  92.7789997
  48.1319992 120.0584990  93.0989997  49.5209992 120.6424990  93.2459997
  48.7296423 120.6505614  92.8860168  50.5969992 120.0334990  84.1049997
  50.4019992 120.6394990  83.3899997  50.7789992 119.2004990  83.6699997
  50.5949272 120.0037955  83.9484075  41.8099992 120.2714990  89.4289997
  41.7719992 120.6714990  90.2969997  41.3189992 119.4544990  89.5189997
  41.7384246 120.2158842  89.5601171  38.4179992 117.3874990  83.2789997
  39.0489992 117.3584990  83.9989997  38.8679992 116.9624990  82.5489997
  38.5650905 117.3260839  83.2787479  49.8609992 121.6714990  88.7759997
  50.1849992 121.0404990  88.1329997  49.4209992 121.1374990  89.4369997
  49.8458707 121.5128261  88.7773195  46.6389992 117.5994990  83.5599997
  45.7279992 117.6564990  83.8489997  47.1439992 117.5394990  84.3709997
  46.5826873 117.5991838  83.7091190  41.4669992 119.2284990  82.3869997
  40.5779992 119.3274990  82.0469997  41.7629992 118.3864990  82.0409997
  41.3854001 119.1282473  82.2937318  45.1199992 119.2284990  80.0429997
  46.0519992 119.3574990  80.2209997  44.9049992 119.8974990  79.3939997
  45.2184245 119.3366452  79.9795602  51.0439992 116.8344990  86.8239997
  50.3669992 116.9654990  87.4879997  50.5579992 116.6794990  86.0139997
  50.8857265 116.8314665  86.8053380  43.7939992 120.4224990  77.6099997
  43.2519992 120.0434990  76.9189997  44.6279992 120.6174990  77.1809997
  43.8324283 120.3969383  77.4574298  54.3309992 132.5054990  93.1009997
  54.5309992 132.9294990  92.2659997  54.9869992 132.8494990  93.7079997
  54.4469916 132.6099784  93.0687890  41.9289992 124.9794990  92.7089997
  42.6609992 125.2344990  93.2699997  41.1489992 125.1844990  93.2239997
  41.9237684 125.0421457  92.8554774  47.9589992 120.3864990  85.4469997
  48.5229992 119.8404990  84.8999997  47.8109992 119.8654990  86.2359997
  48.0163037 120.2411798  85.4787212  42.9609992 116.5234990  81.8649997
  42.6429992 115.6204990  81.8299997  43.7419992 116.5254990  81.3129997
  43.0231560 116.4001148  81.7854975  46.5849992 118.7754990  87.8609997
  45.7499992 119.2294990  87.9709997  47.1089992 119.0514990  88.6129997
  46.5415070 118.8749677  87.9777134  47.1289992 124.9884990  79.5459997
  46.3839992 124.4804990  79.2229997  46.9949992 125.0374990  80.4919997
  47.0088633 124.9255714  79.6297563  54.2789992 124.1214990  88.3319997
  54.9209992 124.5774990  87.7889997  53.4489992 124.2344990  87.8699997
  54.2547352 124.1993223  88.1950234  48.6489992 125.1724990  90.7829997
  48.3029992 124.7904990  91.5889997  48.4489992 126.1054990  90.8539997
  48.5745400 125.2463489  90.9030401  51.7449992 119.6694990  79.4059997
  52.6369992 119.5314990  79.7249997  51.8019992 120.4604990  78.8689997
  51.8747380 119.7574777  79.3770981  42.2539992 124.2834990  85.3149997
  42.9989992 124.2804990  84.7139997  42.3319992 123.4594990  85.7969997
  42.3664158 124.1717928  85.2979136  49.2549992 126.4464990  78.5709997
  48.9599992 127.2734990  78.9529997  48.5519992 125.8274990  78.7669997
  49.1195855 126.4759458  78.6497634  39.2619992 122.7434990  90.6299997
  39.4849992 122.3254990  91.4619997  38.6599992 122.1314990  90.2079997
  39.2110802 122.6035216  90.6867561  46.2789992 122.2604990  92.8429997
  45.9829992 122.0954990  91.9479997  47.2099992 122.0404990  92.8329997
  46.3643909 122.2081274  92.7190110  50.8989992 127.6344990  90.7329997
  49.9979992 127.8174990  90.4649997  50.9329992 127.8934990  91.6539997
  50.7803021 127.6945505  90.8208206  56.6299992 119.8784990  79.0999997
  56.0759992 119.4824990  78.4279997  56.7309992 120.7894990  78.8229997
  56.5677084 119.9473565  78.9704381  56.5929992 125.6794990  91.9369997
  55.7419992 125.9174990  91.5699997  57.1839992 125.6624990  91.1839997
  56.5562468 125.7098251  91.7848902  54.9249992 128.6644990  79.5649997
  54.5529992 127.8394990  79.8749997  55.2029992 128.4814990  78.6679997
  54.9115997 128.5266160  79.4861551  52.0859992 123.4724990  86.5869997
  51.1579992 123.2414990  86.5599997  52.5369992 122.6954990  86.2569997
  52.0198165 123.3357785  86.5386772  44.6289992 127.8014990  82.7199997
  45.1559992 128.5744990  82.5189997  43.7489992 128.0254990  82.4179997
  44.5821793 127.9376652  82.6516304  46.0559992 125.4644990  82.2959997
  45.8149992 126.3894990  82.3379997  45.3159992 125.0054990  82.6919997
  45.9228934 125.5290881  82.3553191  46.5709992 129.6134990  88.6109997
  46.9339992 130.4674990  88.3779997  47.1029992 129.3214990  89.3519997
  46.6925141 129.6908907  88.6792079  44.7389992 130.4854990  81.8409997
  43.7899992 130.5914990  81.8929997  45.0909992 131.3064990  82.1859997
  44.6566214 130.6109361  81.8947317  50.1149992 125.7124990  88.3119997
  49.6889992 125.4844990  89.1379997  50.6959992 124.9734990  88.1289997
  50.1351587 125.5814084  88.4004111  52.7739992 130.2644990  90.7809997
  52.1719992 129.7084990  90.2859997  53.0549992 130.9314990  90.1549997
  52.7295757 130.2785755  90.6285657  56.8209992 131.1204990  77.5869997
  57.5649992 131.7064990  77.4469997  56.1269992 131.6894990  77.9199997
  56.8289809 131.2775830  77.6128572  40.8959992 117.4974990  90.1879997
  40.0029992 117.8354990  90.1209997  40.7969992 116.6414990  90.6059997
  40.7605241 117.4280941  90.2352982  53.1839992 125.3134990  79.6119997
  52.9069992 124.5854990  80.1679997  54.1109992 125.4324990  79.8179997
  53.2714181 125.2300068  79.7158972  40.5469992 129.3014990  88.6229997
  40.7639992 128.3694990  88.5919997  40.7939992 129.5764990  89.5069997
  40.6100543 129.2110877  88.7381412  45.3459992 127.3234990  78.2889997
  45.4929992 126.8034990  79.0789997  45.3429992 128.2304990  78.5949997
  45.3657300 127.3748975  78.4385877  49.6299992 117.2384990  89.0779997
  50.3289992 117.3124990  89.7279997  49.2499992 116.3734990  89.2329997
  49.6742095 117.1317402  89.1877982  50.4149992 116.8904990  80.1749997
  50.6349992 117.3614990  79.3719997  50.9729992 117.2844990  80.8459997
  50.5205851 117.0083272  80.1556134  48.0839992 129.0204990  79.0379997
  47.2669992 129.5174990  79.0909997  48.6129992 129.4964990  78.3979997
  48.0437898 129.1528123  78.9587274  47.6149992 118.6184990  81.0099997
  48.4269992 119.1224990  81.0559997  47.3699992 118.4734990  81.9239997
  47.6931091 118.6679366  81.1398552  48.1509992 119.6044990  90.1949997
  48.2699992 120.1784990  90.9519997  48.8059992 118.9164990  90.3099997
  48.2558684 119.5900205  90.3141656  48.4989992 115.6994990  81.9479997
  48.1519992 116.3164990  82.5929997  49.1569992 116.2004990  81.4669997
  48.5405290 115.8516384  81.9711635  54.3549992 117.5114990  91.0299997
  53.4389992 117.7734990  90.9419997  54.6909992 117.5084990  90.1329997
  54.2749789 117.5469637  90.8967829  52.9569992 121.2614990  85.1259997
  52.1599992 120.8464990  84.7969997  53.4019992 120.5714990  85.6169997
  52.9080317 121.1113197  85.1473556  42.4149992 127.1894990  77.6959997
  43.0069992 127.8894990  77.9719997  42.8739992 126.7564990  76.9769997
  42.5581172 127.2267370  77.6365163  54.0439992 130.5174990  86.7479997
  53.8879992 131.1964990  86.0909997  54.9759992 130.5894990  86.9509997
  54.1487328 130.6201586  86.6855529  41.5389992 114.6354990  85.4849997
  41.3099992 114.6944990  84.5579997  41.0959992 113.8444990  85.7919997
  41.4477387 114.5366412  85.3995223  40.4689992 128.5764990  81.6459997
  39.6369992 129.0484990  81.6729997  41.0149992 129.0864990  81.0469997
  40.4288710 128.7100317  81.5687570  39.7579992 131.1884990  92.9759997
  40.2979992 130.9724990  93.7349997  39.2759992 130.3834990  92.7859997
  39.7669101 131.0500216  93.0544364  44.3549992 130.1084990  94.5959997
  45.1229992 129.6494990  94.9369997  44.3339992 129.8824990  93.6659997
  44.4572135 130.0151680  94.5169473  50.9319992 128.4884990  93.3249997
  50.5809992 127.6314990  93.5679997  51.6579992 128.6304990  93.9319997
  50.9821590 128.3905189  93.4402889  39.6649992 124.9994990  93.9299997
  39.8089992 124.0974990  93.6439997  38.8919992 125.2854990  93.4419997
  39.5802854 124.9146876  93.8249363  46.3199992 124.9684990  93.3629997
  45.9919992 125.2394990  92.5049997  46.4719992 124.0274990  93.2749997
  46.2956970 124.8783694  93.2337953  52.0549992 124.8844990  90.7459997
  52.7999992 125.4734990  90.6259997  51.2969992 125.4664990  90.8089997
  52.0545185 125.0437000  90.7380940  40.4969992 122.1994990  93.3499997
  40.9049992 121.3424990  93.2289997  40.2369992 122.2134990  94.2709997
  40.5177082 122.0840596  93.4579469  45.1549992 123.3154990  78.3679997
  44.6959992 122.8314990  79.0539997  45.4099992 122.6464990  77.7319997
  45.1266178 123.1588511  78.3759785  44.4439992 121.2084990  90.7239997
  43.8259992 121.8824990  91.0049997  44.7879992 121.5294990  89.8909997
  44.4058181 121.3443233  90.6498266  49.4639992 123.6794990  94.0019997
  50.4169992 123.7634990  93.9739997  49.3039992 122.9674990  94.6209997
  49.5728161 123.5947198  94.0818689  44.7839992 118.5634990  91.8069997
  44.9339992 117.8344990  91.2039997  44.7859992 119.3404990  91.2479997
  44.8047664 118.5688971  91.6490525  45.1959992 116.9324990  89.2989997
  45.7319992 117.3844990  88.6469997  44.3439992 116.8244990  88.8769997
  45.1541648 116.9797883  89.1526395  46.7779992 122.3724990  89.5389997
  47.5289992 122.2164990  88.9659997  46.4389992 123.2244990  89.2629997
  46.8349052 122.4662745  89.4233469  51.1939992 120.1874990  94.5669997
  51.3859992 119.2564990  94.4559997  52.0509992 120.6124990  94.5569997
  51.3362320 120.1174743  94.5504433  52.5099992 122.9764990  92.6449997
  52.2289992 123.6854990  92.0669997  53.4529992 122.9034990  92.4939997
  52.5989272 123.0636704  92.5454976  43.2619992 119.7614990  93.7179997
  42.4949992 119.2284990  93.5079997  43.9409992 119.4514990  93.1189997
  43.2488292 119.6466360  93.6082693  46.0019992 114.3894990  89.7309997
  45.9039992 115.3354990  89.6249997  45.2589992 114.0164990  89.2549997
  45.8882363 114.4685987  89.6522029  47.2659992 118.7104990  93.2939997
  47.0299992 118.4914990  94.1959997  46.4829992 118.5034990  92.7849997
  47.1278444 118.6525688  93.3484518  49.9819992 117.8384990  92.3699997
  49.0339992 117.8704990  92.5019997  50.2939992 117.2124990  93.0239997
  49.8945293 117.7582934  92.4764130  51.6159992 116.4724990  94.3749997
  51.5189992 115.5204990  94.3689997  51.2939992 116.7404990  95.2359997
  51.5592229 116.3784706  94.4905108  41.4429992 117.6814990  93.4229997
  41.6539992 116.9754990  92.8119997  41.3309992 117.2444990  94.2669997
  41.4567674 117.5256376  93.4534199  46.2239992 113.6834990  92.4019997
  46.9349992 113.0434990  92.3879997  46.1229992 113.9494990  91.4879997
  46.3076732 113.6318451  92.2765475  46.5769992 115.3654990  94.4559997
  46.4459992 114.8904990  93.6349997  45.9779992 116.1104990  94.3999997
  46.4781524 115.4011968  94.3361553  39.6919992 126.8854990  77.1149997
  40.6059992 126.9644990  77.3879997  39.6989992 126.1984990  76.4479997
  39.8180769 126.8034735  77.0622366  38.3409992 132.2784990  82.1919997
  37.6939992 131.8164990  81.6589997  38.6959992 131.6064990  82.7749997
  38.3003861 132.1244707  82.1977939  39.2109992 130.3584990  83.9969997
  38.8769992 129.4784990  84.1689997  39.4329992 130.7044990  84.8609997
  39.1952677 130.2847366  84.1374252  56.7599992 131.1684990  86.9769997
  56.7379992 131.3534990  87.9159997  57.4499992 131.7364990  86.6359997
  56.8503439 131.2706898  87.0594774  56.3229992 130.7354990  89.8989997
  55.8359992 129.9994990  89.5279997  56.8719992 130.3414990  90.5769997
  56.3306101 130.5816267  89.9399034  54.7739992 126.5254990  94.5369997
  53.9079992 126.4204990  94.9309997  55.1499992 127.2834990  94.9839997
  54.7063768 126.6136151  94.6513258  56.0749992 124.7814990  80.0509997
  56.9249992 125.2024990  80.1789997  56.0799992 124.0414990  80.6589997
  56.1919745 124.7391347  80.1506479  56.4689992 122.8354990  81.8749997
  55.7429992 122.3554990  82.2729997  57.0499992 123.0404990  82.6069997
  56.4482504 122.7975592  82.0284199  56.2279992 125.6204990  86.8229997
  57.0619992 125.2424990  86.5419997  56.3399992 126.5634990  86.7039997
  56.3571917 125.6962954  86.7684844  54.7139992 128.4984990  89.1299997
  54.0669992 128.8234990  89.7549997  54.1969992 128.0574990  88.4549997
  54.5554068 128.4834726  89.1244918  54.2559992 121.3564990  82.4379997
  54.1059992 120.4114990  82.4179997  53.9019992 121.6374990  83.2819997
  54.1876351 121.2651656  82.5493202  39.2909992 123.4344990  86.4479997
  39.4749992 123.3524990  85.5129997  40.1399992 123.3104990  86.8719997
  39.4310259 123.4064915  86.3771771  55.1119992 123.3264990  92.0769997
  55.6949992 122.5914990  92.2679997  55.6759992 124.0984990  92.1229997
  55.2680326 123.3302746  92.1093579  56.6089992 121.2294990  92.7609997
  55.7449992 120.8504990  92.5959997  57.2129992 120.4904990  92.6869997
  56.5724912 121.0777937  92.7284360  53.9659992 118.9384990  80.8999997
  54.2459992 118.0314990  81.0249997  54.7249992 119.3724990  80.5109997
  54.1069471 118.8730654  80.8645052  54.5779992 119.5204990  86.3359997
  55.5109992 119.7324990  86.3019997  54.3429992 119.6214990  87.2589997
  54.6738357 119.5631303  86.4560232  54.6069992 120.2574990  89.1119997
  53.7639992 120.5254990  89.4779997  55.0499992 121.0794990  88.9009997
  54.5514358 120.4053294  89.1335999  38.8879992 118.7044990  92.5889997
  39.8079992 118.5824990  92.8249997  38.4389992 117.9544990  92.9779997
  38.9531561 118.5863720  92.6739015  56.8899992 114.2374990  94.4659997
  57.2399992 113.5834990  93.8599997  57.0369992 115.0744990  94.0259997
  56.9577192 114.2612545  94.3236712  54.5799992 116.2014990  80.9489997
  54.7619992 115.7524990  81.7739997  53.9799992 115.6174990  80.4849997
  54.5238187 116.0610563  80.9992721  40.1099992 117.0174990  85.4799997
  40.5549992 116.2254990  85.7819997  40.5759992 117.7334990  85.9109997
  40.2339059 117.0059485  85.5796061  38.4139992 120.0164990  86.5489997
  38.9059992 119.7954990  85.7589997  38.7759992 120.8564990  86.8299997
  38.5303429 120.0998220  86.4787918  56.4099992 116.3464990  92.8149997
  55.4929992 116.6174990  92.7789997  56.5329992 115.8114990  92.0309997
  56.3010828 116.3112711  92.7040767  38.7269992 116.2744990  80.6039997
  37.8019992 116.4824990  80.4739997  39.1809992 116.7584990  79.9139997
  38.6617401 116.3683895  80.4929433  53.4979992 131.2584990  82.5489997
  54.1499992 130.9104990  81.9409997  54.0089992 131.7464990  83.1949997
  53.6562872 131.2768248  82.5530964  38.6909992 115.0124990  88.9479997
  38.0259992 114.7664990  89.5909997  38.2479992 115.6344990  88.3709997
  38.5401168 115.0629225  88.9579830  40.8829992 128.1874990  93.0919997
  40.0619992 128.3624990  92.6319997  40.6309992 128.1144990  94.0129997
  40.7366173 128.2015806  93.1534954  43.8369992 129.1614990  89.3509997
  43.4119992 129.9714990  89.0679997  44.7409992 129.2474990  89.0489997
  43.9011002 129.2838728  89.2714798  48.1479992 130.5604990  92.3099997
  48.3329992 130.2274990  93.1879997  48.9949992 130.8704990  91.9879997
  48.2877291 130.5568214  92.3866140  50.4929992 131.8464990  91.5539997
  51.1699992 131.2134990  91.3139997  50.8149992 132.2474990  92.3619997
  50.6291280 131.8140638  91.6303190  55.4109992 114.4364990  90.6339997
  54.5979992 114.7614990  90.2459997  55.6439992 113.6754990  90.1009997
  55.3312566 114.3781570  90.5089196  41.2389992 132.4184990  89.3979997
  40.5179992 132.8584990  88.9469997  40.8729992 132.1674990  90.2469997
  41.0909785 132.4447691  89.4509849  43.7059992 132.0184990  88.4279997
  42.8409992 132.0904990  88.8319997  43.6509992 132.5654990  87.6439997
  43.5802066 132.1022678  88.3773371  48.4169992 131.9064990  87.6039997
  47.9599992 132.4354990  86.9499997  48.5789992 132.5094990  88.3289997
  48.3763919 132.0603990  87.6125740  50.7439992 130.7844990  88.5489997
  49.8399992 130.9494990  88.2829997  51.1729992 131.6374990  88.4829997
  50.6782017 130.9224184  88.5036495  53.3479992 132.3544990  88.8439997
  53.1669992 133.2704990  88.6329997  53.5249992 131.9434990  87.9969997
  53.3471377 132.4243365  88.7007178  40.6539992 131.0414990  86.3089997
  40.6349992 130.6154990  87.1659997  41.4579992 130.7224990  85.8999997
  40.7601393 130.9400297  86.3710155  42.7949992 129.7514990  84.9639997
  42.5759992 128.8344990  85.1329997  43.6189992 129.8914990  85.4299997
  42.8764637 129.6449586  85.0501414  45.3319992 130.2214990  85.8119997
  45.5449992 129.3334990  85.5249997  45.3969992 130.1864990  86.7669997
  45.3699075 130.0953318  85.9017355  48.8409992 115.8854990  84.9569997
  48.1659992 115.2554990  85.2119997  49.4049992 115.4014990  84.3539997
  48.8249558 115.7339283  84.9103451  53.9829992 113.9924990  85.0689997
  54.5869992 114.5404990  84.5679997  53.1139992 114.3114990  84.8289997
  53.9481126 114.1107070  84.9679180  55.7099992 115.1314990  83.4029997
  56.3219992 114.6174990  82.8759997  56.0929992 116.0084990  83.4259997
  55.8453867 115.1797613  83.3340888  41.1669992 114.5194990  82.7789997
  40.3899992 114.2844990  82.2709997  41.6979992 113.7224990  82.7879997
  41.1324443 114.3796721  82.7107200  40.0039992 114.3174990  78.5819997
  40.4429992 114.9284990  77.9909997  39.3699992 114.8554990  79.0559997
  39.9784104 114.4739233  78.5651376  45.7469992 114.4454990  82.5919997
  46.6209992 114.8344990  82.5619997  45.6109992 114.2304990  83.5149997
  45.8483125 114.4697120  82.7126523  51.3029992 114.4754990  84.2409997
  51.3799992 114.5714990  83.2919997  51.0279992 113.5684990  84.3699997
  51.2763407 114.3659188  84.1283532  52.6569992 114.5014990  79.9339997
  51.9539992 115.1164990  79.7239997  52.2119992 113.6644990  80.0649997
  52.5006550 114.4724679  79.9229819  39.9049992 130.2654990  79.4799997
  39.2199992 130.2274990  78.8119997  39.9079992 131.1774990  79.7679997
  39.8117358 130.3836744  79.4276145  46.8909992 116.5264990  79.4819997
  47.0689992 115.8794990  80.1649997  46.8369992 117.3604990  79.9489997
  46.9080678 116.5506615  79.6386283  48.7689992 131.4744990  77.8769997
  49.6349992 131.8414990  77.6989997  48.5219992 131.0354990  77.0639997
  48.8542041 131.4653648  77.7425958  55.4779992 131.0374990  80.5569997
  55.2839992 130.2894990  79.9919997  55.4389992 131.7954990  79.9729997
  55.4461907 131.0375770  80.4008077  41.1249992 115.0334990  92.2959997
  40.7589992 114.2674990  92.7389997  42.0379992 115.0624990  92.5829997
  41.1983225 114.9326917  92.3953441  43.0979992 114.3834990  93.8319997
  43.9969992 114.1094990  93.6469997  42.7119992 113.6414990  94.2959997
  43.1687237 114.2456520  93.8694693  51.5189992 113.7164990  94.0139997
  51.5959992 113.2904990  94.8679997  52.4129992 113.7294990  93.6719997
  51.6503315 113.6600320  94.0845052  54.6959992 129.7884990  92.7069997
  53.9139992 129.6024990  92.1869997  54.6239992 130.7184990  92.9239997
  54.5792975 129.8886973  92.6651823  69.1019992 123.6754990  82.7369997
  69.1909992 124.6194990  82.6049997  68.4629992 123.4004990  82.0789997
  69.0278319 123.7674984  82.6300276  68.0349992 122.9304990  86.1559997
  67.9959992 122.2844990  86.8609997  67.7119992 122.4634990  85.3849997
  67.9860199 122.7790089  86.1482865  60.4029992 122.5444990  87.7489997
  60.4439992 121.9194990  88.4729997  61.1059992 123.1684990  87.9309997
  60.5036054 122.5433262  87.8726311  71.7409992 125.8694990  84.4579997
  71.2999992 125.1494990  84.9079997  71.7279992 126.5904990  85.0879997
  71.6788398 125.8683187  84.6047734  61.3269992 126.9944990  86.2839997
  60.9569992 126.1924990  85.9149997  62.2679992 126.8264990  86.3309997
  61.4035630 126.8618680  86.2397873  57.9369992 120.6544990  81.6769997
  57.4889992 121.5004990  81.6589997  57.3759992 120.0754990  81.1619997
  57.7998546 120.6919004  81.6048874  58.6469992 122.8164990  83.8029997
  58.8609992 122.0464990  84.3299997  59.3849992 122.9064990  83.1999997
  58.7760073 122.7233546  83.7935786  68.8519992 130.9734990  84.6699997
  69.4719992 130.2974990  84.3969997  68.6439992 130.7554990  85.5779997
  68.9087360 130.8514792  84.7554387  66.4239992 125.3624990  86.5619997
  66.7279992 124.6764990  85.9679997  67.1459992 125.4814990  87.1799997
  66.5631152 125.2847201  86.5642106  75.0869992 116.9644990  87.4229997
  75.1359992 117.5744990  88.1589997  75.5129992 117.4254990  86.6999997
  75.1512851 117.1103266  87.4260532  69.5649992 119.7564990  86.8899997
  69.7069992 118.8104990  86.9099997  69.4589992 119.9634990  85.9609997
  69.5701158 119.6549722  86.7672241  62.7199992 117.8584990  84.1619997
  62.7629992 118.7184990  83.7439997  62.2619992 117.3054990  83.5289997
  62.6639613 117.9015689  84.0191276  70.4419992 117.9894990  82.5629997
  71.0879992 117.6604990  83.1879997  70.9519992 118.5064990  81.9399997
  70.5994392 118.0143710  82.5643248  59.3399992 120.2554990  84.9239997
  59.9939992 119.7054990  85.3559997  59.3639992 119.9814990  84.0079997
  59.4327022 120.1432005  84.8591698  64.4959992 121.8054990  84.1399997
  65.1119992 121.2784990  84.6489997  63.9099992 121.1654990  83.7359997
  64.5010652 121.6468919  84.1550277  75.4789992 118.4424990  89.6589997
  74.7899992 119.1004990  89.5639997  75.4939992 118.2444990  90.5959997
  75.3867756 118.5057614  89.7725795  61.5299992 116.7764990  88.2359997
  61.3109992 117.3064990  87.4699997  60.8619992 117.0024990  88.8839997
  61.4097271 116.8796508  88.2186206  68.8989992 126.2764990  81.7799997
  68.6029992 125.9534990  80.9289997  68.5749992 127.1764990  81.8219997
  68.8146501 126.3539058  81.6690893  64.0989992 124.4514990  88.5239997
  63.3589992 125.0504990  88.6269997  64.8129992 125.0054990  88.2079997
  64.0943288 124.6082368  88.4953787  72.2059992 117.2804990  84.5439997
  71.9909992 116.5144990  85.0759997  72.8619992 117.7524990  85.0569997
  72.2652451 117.2394472  84.6861699  61.1239992 118.6684990  86.1889997
  61.7369992 119.3014990  86.5619997  61.6359992 118.1964990  85.5319997
  61.2771680 118.6914006  86.1512830  62.5059992 126.4164990  89.3109997
  62.5009992 127.2954990  88.9329997  61.6529992 126.3324990  89.7359997
  62.3899199 126.5255901  89.3166942  58.6279992 126.0874990  80.0929997
  58.3559992 126.3164990  79.2039997  58.6729992 126.9244990  80.5529997
  58.5968709 126.2321069  80.0336089  72.2529992 127.7084990  86.8059997
  71.3109992 127.7674990  86.9669997  72.5289992 128.6144990  86.6689997
  72.1615771 127.8390270  86.8094827  72.5529992 115.9954990  88.2229997
  71.8169992 116.6054990  88.1849997  73.2369992 116.4104990  87.6969997
  72.5445885 116.1351924  88.1466931  65.5559992 114.0814990  85.6889997
  65.4389992 113.1334990  85.6349997  64.7009992 114.4144990  85.9619997
  65.4243691 113.9965842  85.7185072  70.5049992 129.4894990  83.4309997
  70.9299992 128.7824990  82.9459997  70.8219992 130.2914990  83.0139997
  70.6060266 129.5010201  83.3082461  71.6639992 127.3904990  81.9399997
  71.4069992 126.7004990  81.3279997  71.7349992 126.9474990  82.7849997
  71.6384322 127.2361568  81.9705372  73.3499992 125.9574990  90.4169997
  73.4899992 125.3654990  89.6779997  73.5179992 126.8304990  90.0609997
  73.3918734 125.9944041  90.2676937  67.8229992 122.9194990  80.1889997
  67.1109992 123.4544990  79.8379997  68.5139992 122.9744990  79.5289997
  67.8188696 123.0002591  80.0516372  75.1919992 122.2974990  88.4829997
  74.5399992 122.9914990  88.5719997  75.6569992 122.5074990  87.6729997
  75.1655357 122.4209544  88.3857056  71.2289992 123.1284990  81.1409997
  70.4969992 123.3574990  81.7139997  71.6759992 122.4154990  81.5959997
  71.1892753 123.0633984  81.2809698  71.1259992 121.3034990  90.2089997
  71.2059992 122.0664990  90.7809997  70.5249992 121.5824990  89.5179997
  71.0557115 121.4457707  90.1939631  62.8739992 123.7594990  83.0239997
  62.5439992 123.3884990  82.2049997  63.4619992 123.0884990  83.3699997
  62.9084056 123.6181257  82.9589035  64.2409992 127.1874990  85.7049997
  64.1459992 126.6084990  84.9479997  64.9699992 126.8164990  86.2009997
  64.3266161 127.0580902  85.6685191  63.2409992 122.5274990  86.6569997
  63.8059992 122.6494990  85.8939997  63.5589992 123.1654990  87.2959997
  63.3613430 122.6304448  86.6389094  69.5499992 128.0314990  87.3909997
  69.3089992 128.6934990  88.0389997  69.3519992 127.1964990  87.8159997
  69.4902662 128.0092704  87.5371008  64.1209992 126.9274990  91.3739997
  63.8089992 127.7094990  91.8299997  63.4709992 126.7744990  90.6879997
  63.9904643 127.0138019  91.3436657  61.0409992 123.1254990  90.6029997
  61.1109992 123.7764990  91.3009997  60.1499992 123.2284990  90.2679997
  60.9301802 123.2284769  90.6532231  67.8259992 129.0274990  82.2619997
  68.2999992 129.3234990  83.0389997  67.2629992 129.7664990  82.0279997
  67.8148461 129.1678336  82.3367626  62.3599992 128.9984990  92.1379997
  62.3679992 128.8624990  91.1899997  61.4439992 128.8814990  92.3899997
  62.2372512 128.9640663  92.0423179  73.7979992 114.0414990  78.6389997
  72.8979992 114.1794990  78.9339997  74.0499992 114.8724990  78.2369997
  73.7087355 114.1728200  78.6250539  61.8639992 122.8284990  80.6129997
  61.5719992 123.5964990  80.1219997  61.1899992 122.1694990  80.4499997
  61.7328843 122.8444537  80.5237695  57.9569992 125.1914990  89.4279997
  57.4559992 125.1634990  88.6129997  57.9629992 124.2864990  89.7379997
  57.8891690 125.0652234  89.3582770  57.7079992 127.9724990  86.3119997
  58.6539992 127.8274990  86.2929997  57.5949992 128.7564990  86.8489997
  57.8223578 128.0586708  86.3820300  75.9049992 128.6384990  91.9939997
  75.8559992 127.6824990  91.9569997  75.0789992 128.9054990  92.3959997
  75.7865767 128.5438841  92.0433133  66.8839992 128.2124990  90.8699997
  66.9709992 129.0384990  91.3449997  66.0199992 127.8824990  91.1189997
  66.7791944 128.2809871  90.9686558  67.2979992 131.9844990  80.6759997
  67.2229992 131.8634990  79.7299997  67.3309992 132.9334990  80.7949997
  67.2921862 132.0962492  80.5624840  60.9519992 130.7734990  82.4569997
  61.1039992 130.4254990  83.3359997  60.1009992 130.4164990  82.2019997
  60.8577899 130.6776749  82.5427322  70.3999992 131.1384990  77.6789997
  70.7749992 130.3944990  77.2079997  70.4039992 130.8684990  78.5969997
  70.4518969 131.0000920  77.7386475  70.0689992 131.0644990  80.4279997
  69.1339992 131.1644990  80.6069997  70.3489992 130.3544990  81.0059997
  69.9789270 130.9822300  80.5305984  73.0569992 120.1314990  92.4739997
  72.6499992 120.6114990  91.7539997  73.0979992 119.2254990  92.1669997
  73.0067178 120.0748609  92.3337441  60.2059992 126.5154990  90.4709997
  60.4219992 126.1534990  91.3309997  59.3509992 126.1404990  90.2609997
  60.1199349 126.4152914  90.5602134  62.8249992 114.9854990  86.4669997
  61.9629992 114.8984990  86.0589997  62.8029992 115.8414990  86.8939997
  62.7040953 115.0893558  86.4689262  67.4879992 114.7074990  89.8409997
  67.9079992 114.2924990  90.5939997  66.5549992 114.5284990  89.9579997
  67.4193736 114.6264921  89.9598950  70.8139992 118.4624990  90.6949997
  70.2999992 118.3374990  91.4919997  70.6589992 119.3754990  90.4499997
  70.7226643 118.5687068  90.7710624  67.1499992 117.1994990  77.1259997
  66.8959992 117.2184990  78.0489997  66.8929992 116.3284990  76.8249997
  67.0805133 117.0843121  77.2115065  62.9159992 119.9504990  87.5619997
  62.2739992 119.9104990  88.2709997  62.9529992 120.8774990  87.3239997
  62.8331659 120.0702540  87.6268463  62.9129992 120.1714990  82.4739997
  62.0199992 119.8314990  82.4149997  63.3639992 119.7944990  81.7179997
  62.8517185 120.0740220  82.3637698  68.4489992 120.5874990  81.2909997
  68.0399992 121.4024990  80.9989997  69.1689992 120.4474990  80.6759997
  68.4903946 120.6799963  81.1679616  67.5509992 120.7634990  92.7789997
  66.9879992 120.0584990  93.0989997  68.3769992 120.6424990  93.2459997
  67.5856423 120.6505614  92.8860168  69.4529992 120.0334990  84.1049997
  69.2579992 120.6394990  83.3899997  69.6349992 119.2004990  83.6699997
  69.4509272 120.0037955  83.9484075  60.6659992 120.2714990  89.4289997
  60.6279992 120.6714990  90.2969997  60.1749992 119.4544990  89.5189997
  60.5944246 120.2158842  89.5601171  57.2739992 117.3874990  83.2789997
  57.9049992 117.3584990  83.9989997  57.7239992 116.9624990  82.5489997
  57.4210905 117.3260839  83.2787479  58.5479992 118.1334990  78.7029997
  59.0229992 118.7244990  78.1179997  57.8309992 118.6634990  79.0499997
  58.5160406 118.2861011  78.6698495  68.7169992 121.6714990  88.7759997
  69.0409992 121.0404990  88.1329997  68.2769992 121.1374990  89.4369997
  68.7018707 121.5128261  88.7773195  65.4949992 117.5994990  83.5599997
  64.5839992 117.6564990  83.8489997  65.9999992 117.5394990  84.3709997
  65.4386873 117.5991838  83.7091190  60.3229992 119.2284990  82.3869997
  59.4339992 119.3274990  82.0469997  60.6189992 118.3864990  82.0409997
  60.2414001 119.1282473  82.2937318  63.9759992 119.2284990  80.0429997
  64.9079992 119.3574990  80.2209997  63.7609992 119.8974990  79.3939997
  64.0744245 119.3366452  79.9795602  69.8999992 116.8344990  86.8239997
  69.2229992 116.9654990  87.4879997  69.4139992 116.6794990  86.0139997
  69.7417265 116.8314665  86.8053380  62.6499992 120.4224990  77.6099997
  62.1079992 120.0434990  76.9189997  63.4839992 120.6174990  77.1809997
  62.6884283 120.3969383  77.4574298  73.1869992 132.5054990  93.1009997
  73.3869992 132.9294990  92.2659997  73.8429992 132.8494990  93.7079997
  73.3029916 132.6099784  93.0687890  60.7849992 124.9794990  92.7089997
  61.5169992 125.2344990  93.2699997  60.0049992 125.1844990  93.2239997
  60.7797684 125.0421457  92.8554774  66.8149992 120.3864990  85.4469997
  67.3789992 119.8404990  84.8999997  66.6669992 119.8654990  86.2359997
  66.8723037 120.2411798  85.4787212  61.8169992 116.5234990  81.8649997
  61.4989992 115.6204990  81.8299997  62.5979992 116.5254990  81.3129997
  61.8791560 116.4001148  81.7854975  65.4409992 118.7754990  87.8609997
  64.6059992 119.2294990  87.9709997  65.9649992 119.0514990  88.6129997
  65.3975070 118.8749677  87.9777134  65.9849992 124.9884990  79.5459997
  65.2399992 124.4804990  79.2229997  65.8509992 125.0374990  80.4919997
  65.8648633 124.9255714  79.6297563  73.1349992 124.1214990  88.3319997
  73.7769992 124.5774990  87.7889997  72.3049992 124.2344990  87.8699997
  73.1107352 124.1993223  88.1950234  69.8829992 117.8024990  77.7449997
  68.9439992 117.9134990  77.5939997  70.1799992 118.6584990  78.0509997
  69.7946371 117.9335327  77.7657362  67.5049992 125.1724990  90.7829997
  67.1589992 124.7904990  91.5889997  67.3049992 126.1054990  90.8539997
  67.4305399 125.2463489  90.9030401  70.6009992 119.6694990  79.4059997
  71.4929992 119.5314990  79.7249997  70.6579992 120.4604990  78.8689997
  70.7307380 119.7574777  79.3770981  61.1099992 124.2834990  85.3149997
  61.8549992 124.2804990  84.7139997  61.1879992 123.4594990  85.7969997
  61.2224158 124.1717928  85.2979136  58.1179992 122.7434990  90.6299997
  58.3409992 122.3254990  91.4619997  57.5159992 122.1314990  90.2079997
  58.0670802 122.6035216  90.6867561  65.1349992 122.2604990  92.8429997
  64.8389992 122.0954990  91.9479997  66.0659992 122.0404990  92.8329997
  65.2203909 122.2081274  92.7190110  69.7549992 127.6344990  90.7329997
  68.8539992 127.8174990  90.4649997  69.7889992 127.8934990  91.6539997
  69.6363021 127.6945505  90.8208206  75.4489992 125.6794990  91.9369997
  74.5979992 125.9174990  91.5699997  76.0399992 125.6624990  91.1839997
  75.4122468 125.7098251  91.7848902  73.7809992 128.6644990  79.5649997
  73.4089992 127.8394990  79.8749997  74.0589992 128.4814990  78.6679997
  73.7675997 128.5266160  79.4861551  70.9419992 123.4724990  86.5869997
  70.0139992 123.2414990  86.5599997  71.3929992 122.6954990  86.2569997
  70.8758165 123.3357785  86.5386772  63.4849992 127.8014990  82.7199997
  64.0119992 128.5744990  82.5189997  62.6049992 128.0254990  82.4179997
  63.4381793 127.9376652  82.6516304  64.9119992 125.4644990  82.2959997
  64.6709992 126.3894990  82.3379997  64.1719992 125.0054990  82.6919997
  64.7788934 125.5290881  82.3553191  65.4269992 129.6134990  88.6109997
  65.7899992 130.4674990  88.3779997  65.9589992 129.3214990  89.3519997
  65.5485141 129.6908907  88.6792079  63.5949992 130.4854990  81.8409997
  62.6459992 130.5914990  81.8929997  63.9469992 131.3064990  82.1859997
  63.5126214 130.6109361  81.8947317  68.9709992 125.7124990  88.3119997
  68.5449992 125.4844990  89.1379997  69.5519992 124.9734990  88.1289997
  68.9911587 125.5814084  88.4004111  71.6299992 130.2644990  90.7809997
  71.0279992 129.7084990  90.2859997  71.9109992 130.9314990  90.1549997
  71.5855757 130.2785755  90.6285657  59.7519992 117.4974990  90.1879997
  58.8589992 117.8354990  90.1209997  59.6529992 116.6414990  90.6059997
  59.6165241 117.4280941  90.2352982  72.0399992 125.3134990  79.6119997
  71.7629992 124.5854990  80.1679997  72.9669992 125.4324990  79.8179997
  72.1274181 125.2300068  79.7158972  59.4029992 129.3014990  88.6229997
  59.6199992 128.3694990  88.5919997  59.6499992 129.5764990  89.5069997
  59.4660543 129.2110877  88.7381412  64.2019992 127.3234990  78.2889997
  64.3489992 126.8034990  79.0789997  64.1989992 128.2304990  78.5949997
  64.2217300 127.3748975  78.4385877  68.4859992 117.2384990  89.0779997
  69.1849992 117.3124990  89.7279997  68.1059992 116.3734990  89.2329997
  68.5302095 117.1317402  89.1877982  69.2709992 116.8904990  80.1749997
  69.4909992 117.3614990  79.3719997  69.8289992 117.2844990  80.8459997
  69.3765851 117.0083272  80.1556134  66.9399992 129.0204990  79.0379997
  66.1229992 129.5174990  79.0909997  67.4689992 129.4964990  78.3979997
  66.8997898 129.1528123  78.9587274  66.4709992 118.6184990  81.0099997
  67.2829992 119.1224990  81.0559997  66.2259992 118.4734990  81.9239997
  66.5491091 118.6679366  81.1398552  67.0069992 119.6044990  90.1949997
  67.1259992 120.1784990  90.9519997  67.6619992 118.9164990  90.3099997
  67.1118684 119.5900205  90.3141656  67.3549992 115.6994990  81.9479997
  67.0079992 116.3164990  82.5929997  68.0129992 116.2004990  81.4669997
  67.3965290 115.8516384  81.9711635  64.2779992 130.0644990  79.0199997
  64.4389992 130.8644990  78.5189997  64.0809992 130.3714990  79.9049997
  64.2733919 130.2154140  79.0710988  73.2109992 117.5114990  91.0299997
  72.2949992 117.7734990  90.9419997  73.5469992 117.5084990  90.1329997
  73.1309789 117.5469637  90.8967829  71.8129992 121.2614990  85.1259997
  71.0159992 120.8464990  84.7969997  72.2579992 120.5714990  85.6169997
  71.7640317 121.1113197  85.1473557  72.8999992 130.5174990  86.7479997
  72.7439992 131.1964990  86.0909997  73.8319992 130.5894990  86.9509997
  73.0047328 130.6201586  86.6855529  60.3949992 114.6354990  85.4849997
  60.1659992 114.6944990  84.5579997  59.9519992 113.8444990  85.7919997
  60.3037387 114.5366412  85.3995223  59.3249992 128.5764990  81.6459997
  58.4929992 129.0484990  81.6729997  59.8709992 129.0864990  81.0469997
  59.2848710 128.7100317  81.5687570  58.6139992 131.1884990  92.9759997
  59.1539992 130.9724990  93.7349997  58.1319992 130.3834990  92.7859997
  58.6229101 131.0500216  93.0544364  63.2109992 130.1084990  94.5959997
  63.9789992 129.6494990  94.9369997  63.1899992 129.8824990  93.6659997
  63.3132135 130.0151680  94.5169473  69.7879992 128.4884990  93.3249997
  69.4369992 127.6314990  93.5679997  70.5139992 128.6304990  93.9319997
  69.8381590 128.3905189  93.4402889  58.5209992 124.9994990  93.9299997
  58.6649992 124.0974990  93.6439997  57.7479992 125.2854990  93.4419997
  58.4362854 124.9146876  93.8249363  65.1759992 124.9684990  93.3629997
  64.8479992 125.2394990  92.5049997  65.3279992 124.0274990  93.2749997
  65.1516970 124.8783694  93.2337953  70.9109992 124.8844990  90.7459997
  71.6559992 125.4734990  90.6259997  70.1529992 125.4664990  90.8089997
  70.9105185 125.0437000  90.7380940  59.3529992 122.1994990  93.3499997
  59.7609992 121.3424990  93.2289997  59.0929992 122.2134990  94.2709997
  59.3737082 122.0840596  93.4579469  64.0109992 123.3154990  78.3679997
  63.5519992 122.8314990  79.0539997  64.2659992 122.6464990  77.7319997
  63.9826178 123.1588511  78.3759785  63.2999992 121.2084990  90.7239997
  62.6819992 121.8824990  91.0049997  63.6439992 121.5294990  89.8909997
  63.2618181 121.3443233  90.6498266  65.0819992 121.5584990  76.6309997
  64.9019992 121.4034990  75.7029997  66.0319992 121.6664990  76.6749997
  65.1858016 121.5519265  76.5102123  68.3199992 123.6794990  94.0019997
  69.2729992 123.7634990  93.9739997  68.1599992 122.9674990  94.6209997
  68.4288161 123.5947198  94.0818689  63.6399992 118.5634990  91.8069997
  63.7899992 117.8344990  91.2039997  63.6419992 119.3404990  91.2479997
  63.6607664 118.5688971  91.6490525  64.0519992 116.9324990  89.2989997
  64.5879992 117.3844990  88.6469997  63.1999992 116.8244990  88.8769997
  64.0101648 116.9797883  89.1526395  65.6339992 122.3724990  89.5389997
  66.3849992 122.2164990  88.9659997  65.2949992 123.2244990  89.2629997
  65.6909052 122.4662745  89.4233469  70.0499992 120.1874990  94.5669997
  70.2419992 119.2564990  94.4559997  70.9069992 120.6124990  94.5569997
  70.1922320 120.1174743  94.5504433  71.3659992 122.9764990  92.6449997
  71.0849992 123.6854990  92.0669997  72.3089992 122.9034990  92.4939997
  71.4549272 123.0636704  92.5454976  62.1179992 119.7614990  93.7179997
  61.3509992 119.2284990  93.5079997  62.7969992 119.4514990  93.1189997
  62.1048292 119.6466360  93.6082693  64.8579992 114.3894990  89.7309997
  64.7599992 115.3354990  89.6249997  64.1149992 114.0164990  89.2549997
  64.7442363 114.4685987  89.6522029  66.1219992 118.7104990  93.2939997
  65.8859992 118.4914990  94.1959997  65.3389992 118.5034990  92.7849997
  65.9838444 118.6525688  93.3484518  68.8379992 117.8384990  92.3699997
  67.8899992 117.8704990  92.5019997  69.1499992 117.2124990  93.0239997
  68.7505293 117.7582934  92.4764130  70.4719992 116.4724990  94.3749997
  70.3749992 115.5204990  94.3689997  70.1499992 116.7404990  95.2359997
  70.4152229 116.3784706  94.4905108  60.2989992 117.6814990  93.4229997
  60.5099992 116.9754990  92.8119997  60.1869992 117.2444990  94.2669997
  60.3127674 117.5256376  93.4534199  65.0799992 113.6834990  92.4019997
  65.7909992 113.0434990  92.3879997  64.9789992 113.9494990  91.4879997
  65.1636732 113.6318451  92.2765475  65.4329992 115.3654990  94.4559997
  65.3019992 114.8904990  93.6349997  64.8339992 116.1104990  94.3999997
  65.3341524 115.4011968  94.3361553  64.9799992 132.2484990  77.6319997
  65.9129992 132.4064990  77.7759997  64.7149992 132.9244990  77.0069997
  65.0719846 132.3614567  77.5672930  57.1969992 132.2784990  82.1919997
  56.5499992 131.8164990  81.6589997  57.5519992 131.6064990  82.7749997
  57.1563861 132.1244707  82.1977939  58.0669992 130.3584990  83.9969997
  57.7329992 129.4784990  84.1689997  58.2889992 130.7044990  84.8609997
  58.0512677 130.2847365  84.1374252  75.6159992 131.1684990  86.9769997
  75.5939992 131.3534990  87.9159997  76.3059992 131.7364990  86.6359997
  75.7063439 131.2706898  87.0594774  75.1789992 130.7354990  89.8989997
  74.6919992 129.9994990  89.5279997  75.7279992 130.3414990  90.5769997
  75.1866101 130.5816267  89.9399034  73.6299992 126.5254990  94.5369997
  72.7639992 126.4204990  94.9309997  74.0059992 127.2834990  94.9839997
  73.5623768 126.6136151  94.6513258  74.9309992 124.7814990  80.0509997
  75.7809992 125.2024990  80.1789997  74.9359992 124.0414990  80.6589997
  75.0479745 124.7391347  80.1506479  75.3249992 122.8354990  81.8749997
  74.5989992 122.3554990  82.2729997  75.9059992 123.0404990  82.6069997
  75.3042504 122.7975592  82.0284199  75.0839992 125.6204990  86.8229997
  75.9179992 125.2424990  86.5419997  75.1959992 126.5634990  86.7039997
  75.2131917 125.6962954  86.7684844  73.5699992 128.4984990  89.1299997
  72.9229992 128.8234990  89.7549997  73.0529992 128.0574990  88.4549997
  73.4114067 128.4834726  89.1244918  75.5929992 122.7364990  78.2659997
  75.0719992 123.0924990  77.5469997  75.5599992 123.4114990  78.9439997
  75.5171525 122.8765273  78.2591408  73.1119992 121.3564990  82.4379997
  72.9619992 120.4114990  82.4179997  72.7579992 121.6374990  83.2819997
  73.0436351 121.2651656  82.5493202  58.1469992 123.4344990  86.4479997
  58.3309992 123.3524990  85.5129997  58.9959992 123.3104990  86.8719997
  58.2870259 123.4064915  86.3771771  73.9679992 123.3264990  92.0769997
  74.5509992 122.5914990  92.2679997  74.5319992 124.0984990  92.1229997
  74.1240326 123.3302746  92.1093579  75.4649992 121.2294990  92.7609997
  74.6009992 120.8504990  92.5959997  76.0689992 120.4904990  92.6869997
  75.4284912 121.0777937  92.7284360  72.8219992 118.9384990  80.8999997
  73.1019992 118.0314990  81.0249997  73.5809992 119.3724990  80.5109997
  72.9629471 118.8730654  80.8645052  73.4339992 119.5204990  86.3359997
  74.3669992 119.7324990  86.3019997  73.1989992 119.6214990  87.2589997
  73.5298357 119.5631303  86.4560232  73.4629992 120.2574990  89.1119997
  72.6199992 120.5254990  89.4779997  73.9059992 121.0794990  88.9009997
  73.4074358 120.4053294  89.1335999  57.7439992 118.7044990  92.5889997
  58.6639992 118.5824990  92.8249997  57.2949992 117.9544990  92.9779997
  57.8091561 118.5863720  92.6739015  75.7459992 114.2374990  94.4659997
  76.0959992 113.5834990  93.8599997  75.8929992 115.0744990  94.0259997
  75.8137192 114.2612545  94.3236712  73.4359992 116.2014990  80.9489997
  73.6179992 115.7524990  81.7739997  72.8359992 115.6174990  80.4849997
  73.3798187 116.0610563  80.9992721  58.9659992 117.0174990  85.4799997
  59.4109992 116.2254990  85.7819997  59.4319992 117.7334990  85.9109997
  59.0899059 117.0059485  85.5796061  57.2699992 120.0164990  86.5489997
  57.7619992 119.7954990  85.7589997  57.6319992 120.8564990  86.8299997
  57.3863429 120.0998220  86.4787918  75.2659992 116.3464990  92.8149997
  74.3489992 116.6174990  92.7789997  75.3889992 115.8114990  92.0309997
  75.1570828 116.3112711  92.7040767  57.5829992 116.2744990  80.6039997
  56.6579992 116.4824990  80.4739997  58.0369992 116.7584990  79.9139997
  57.5177401 116.3683895  80.4929433  72.3539992 131.2584990  82.5489997
  73.0059992 130.9104990  81.9409997  72.8649992 131.7464990  83.1949997
  72.5122872 131.2768248  82.5530964  57.5469992 115.0124990  88.9479997
  56.8819992 114.7664990  89.5909997  57.1039992 115.6344990  88.3709997
  57.3961168 115.0629225  88.9579830  59.7389992 128.1874990  93.0919997
  58.9179992 128.3624990  92.6319997  59.4869992 128.1144990  94.0129997
  59.5926173 128.2015806  93.1534954  62.6929992 129.1614990  89.3509997
  62.2679992 129.9714990  89.0679997  63.5969992 129.2474990  89.0489997
  62.7571002 129.2838728  89.2714798  67.0039992 130.5604990  92.3099997
  67.1889992 130.2274990  93.1879997  67.8509992 130.8704990  91.9879997
  67.1437291 130.5568214  92.3866140  69.3489992 131.8464990  91.5539997
  70.0259992 131.2134990  91.3139997  69.6709992 132.2474990  92.3619997
  69.4851280 131.8140638  91.6303190  74.2669992 114.4364990  90.6339997
  73.4539992 114.7614990  90.2459997  74.4999992 113.6754990  90.1009997
  74.1872566 114.3781570  90.5089196  60.0949992 132.4184990  89.3979997
  59.3739992 132.8584990  88.9469997  59.7289992 132.1674990  90.2469997
  59.9469785 132.4447691  89.4509849  62.5619992 132.0184990  88.4279997
  61.6969992 132.0904990  88.8319997  62.5069992 132.5654990  87.6439997
  62.4362066 132.1022678  88.3773371  67.2729992 131.9064990  87.6039997
  66.8159992 132.4354990  86.9499997  67.4349992 132.5094990  88.3289997
  67.2323919 132.0603990  87.6125740  69.5999992 130.7844990  88.5489997
  68.6959992 130.9494990  88.2829997  70.0289992 131.6374990  88.4829997
  69.5342017 130.9224184  88.5036495  72.2039992 132.3544990  88.8439997
  72.0229992 133.2704990  88.6329997  72.3809992 131.9434990  87.9969997
  72.2031377 132.4243365  88.7007178  59.5099992 131.0414990  86.3089997
  59.4909992 130.6154990  87.1659997  60.3139992 130.7224990  85.8999997
  59.6161393 130.9400297  86.3710155  61.6509992 129.7514990  84.9639997
  61.4319992 128.8344990  85.1329997  62.4749992 129.8914990  85.4299997
  61.7324637 129.6449586  85.0501414  64.1879992 130.2214990  85.8119997
  64.4009992 129.3334990  85.5249997  64.2529992 130.1864990  86.7669997
  64.2259075 130.0953318  85.9017355  67.6969992 115.8854990  84.9569997
  67.0219992 115.2554990  85.2119997  68.2609992 115.4014990  84.3539997
  67.6809558 115.7339283  84.9103451  72.8389992 113.9924990  85.0689997
  73.4429992 114.5404990  84.5679997  71.9699992 114.3114990  84.8289997
  72.8041126 114.1107070  84.9679180  74.5659992 115.1314990  83.4029997
  75.1779992 114.6174990  82.8759997  74.9489992 116.0084990  83.4259997
  74.7013867 115.1797613  83.3340888  60.0229992 114.5194990  82.7789997
  59.2459992 114.2844990  82.2709997  60.5539992 113.7224990  82.7879997
  59.9884443 114.3796721  82.7107200  58.8599992 114.3174990  78.5819997
  59.2989992 114.9284990  77.9909997  58.2259992 114.8554990  79.0559997
  58.8344104 114.4739233  78.5651376  64.6029992 114.4454990  82.5919997
  65.4769992 114.8344990  82.5619997  64.4669992 114.2304990  83.5149997
  64.7043125 114.4697120  82.7126523  70.1589992 114.4754990  84.2409997
  70.2359992 114.5714990  83.2919997  69.8839992 113.5684990  84.3699997
  70.1323407 114.3659188  84.1283532  71.5129992 114.5014990  79.9339997
  70.8099992 115.1164990  79.7239997  71.0679992 113.6644990  80.0649997
  71.3566550 114.4724679  79.9229819  58.7609992 130.2654990  79.4799997
  58.0759992 130.2274990  78.8119997  58.7639992 131.1774990  79.7679997
  58.6677358 130.3836744  79.4276145  65.7469992 116.5264990  79.4819997
  65.9249992 115.8794990  80.1649997  65.6929992 117.3604990  79.9489997
  65.7640678 116.5506615  79.6386283  74.3339992 131.0374990  80.5569997
  74.1399992 130.2894990  79.9919997  74.2949992 131.7954990  79.9729997
  74.3021907 131.0375770  80.4008077  59.9809992 115.0334990  92.2959997
  59.6149992 114.2674990  92.7389997  60.8939992 115.0624990  92.5829997
  60.0543225 114.9326917  92.3953441  61.9539992 114.3834990  93.8319997
  62.8529992 114.1094990  93.6469997  61.5679992 113.6414990  94.2959997
  62.0247237 114.2456520  93.8694693  70.3749992 113.7164990  94.0139997
  70.4519992 113.2904990  94.8679997  71.2689992 113.7294990  93.6719997
  70.5063315 113.6600320  94.0845052  73.5519992 129.7884990  92.7069997
  72.7699992 129.6024990  92.1869997  73.4799992 130.7184990  92.9239997
  73.4352975 129.8886973  92.6651823  87.9579992 123.6754990  82.7369997
  88.0469992 124.6194990  82.6049997  87.3189992 123.4004990  82.0789997
  87.8838319 123.7674984  82.6300276  86.8909992 122.9304990  86.1559997
  86.8519992 122.2844990  86.8609997  86.5679992 122.4634990  85.3849997
  86.8420199 122.7790089  86.1482865  79.2589992 122.5444990  87.7489997
  79.2999992 121.9194990  88.4729997  79.9619992 123.1684990  87.9309997
  79.3596054 122.5433262  87.8726311  90.5969992 125.8694990  84.4579997
  90.1559992 125.1494990  84.9079997  90.5839992 126.5904990  85.0879997
  90.5348398 125.8683187  84.6047734  80.1829992 126.9944990  86.2839997
  79.8129992 126.1924990  85.9149997  81.1239992 126.8264990  86.3309997
  80.2595630 126.8618680  86.2397873  76.7929992 120.6544990  81.6769997
  76.3449992 121.5004990  81.6589997  76.2319992 120.0754990  81.1619997
  76.6558546 120.6919004  81.6048874  77.5029992 122.8164990  83.8029997
  77.7169992 122.0464990  84.3299997  78.2409992 122.9064990  83.1999997
  77.6320073 122.7233546  83.7935786  87.7079992 130.9734990  84.6699997
  88.3279992 130.2974990  84.3969997  87.4999992 130.7554990  85.5779997
  87.7647360 130.8514792  84.7554387  85.2799992 125.3624990  86.5619997
  85.5839992 124.6764990  85.9679997  86.0019992 125.4814990  87.1799997
  85.4191152 125.2847201  86.5642106  93.9429992 116.9644990  87.4229997
  93.9919992 117.5744990  88.1589997  94.3689992 117.4254990  86.6999997
  94.0072851 117.1103266  87.4260532  88.4209992 119.7564990  86.8899997
  88.5629992 118.8104990  86.9099997  88.3149992 119.9634990  85.9609997
  88.4261158 119.6549722  86.7672241  81.5759992 117.8584990  84.1619997
  81.6189992 118.7184990  83.7439997  81.1179992 117.3054990  83.5289997
  81.5199613 117.9015689  84.0191276  89.2979992 117.9894990  82.5629997
  89.9439992 117.6604990  83.1879997  89.8079992 118.5064990  81.9399997
  89.4554392 118.0143710  82.5643248  78.1959992 120.2554990  84.9239997
  78.8499992 119.7054990  85.3559997  78.2199992 119.9814990  84.0079997
  78.2887022 120.1432005  84.8591698  83.3519992 121.8054990  84.1399997
  83.9679992 121.2784990  84.6489997  82.7659992 121.1654990  83.7359997
  83.3570652 121.6468919  84.1550277  94.3349992 118.4424990  89.6589997
  93.6459992 119.1004990  89.5639997  94.3499992 118.2444990  90.5959997
  94.2427756 118.5057614  89.7725795  80.3859992 116.7764990  88.2359997
  80.1669992 117.3064990  87.4699997  79.7179992 117.0024990  88.8839997
  80.2657271 116.8796508  88.2186206  87.7549992 126.2764990  81.7799997
  87.4589992 125.9534990  80.9289997  87.4309992 127.1764990  81.8219997
  87.6706501 126.3539058  81.6690893  82.9549992 124.4514990  88.5239997
  82.2149992 125.0504990  88.6269997  83.6689992 125.0054990  88.2079997
  82.9503288 124.6082368  88.4953787  91.0619992 117.2804990  84.5439997
  90.8469992 116.5144990  85.0759997  91.7179992 117.7524990  85.0569997
  91.1212451 117.2394472  84.6861699  79.9799992 118.6684990  86.1889997
  80.5929992 119.3014990  86.5619997  80.4919992 118.1964990  85.5319997
  80.1331680 118.6914006  86.1512830  81.3619992 126.4164990  89.3109997
  81.3569992 127.2954990  88.9329997  80.5089992 126.3324990  89.7359997
  81.2459199 126.5255901  89.3166942  77.4839992 126.0874990  80.0929997
  77.2119992 126.3164990  79.2039997  77.5289992 126.9244990  80.5529997
  77.4528709 126.2321069  80.0336089  91.1089992 127.7084990  86.8059997
  90.1669992 127.7674990  86.9669997  91.3849992 128.6144990  86.6689997
  91.0175771 127.8390270  86.8094827  91.4089992 115.9954990  88.2229997
  90.6729992 116.6054990  88.1849997  92.0929992 116.4104990  87.6969997
  91.4005885 116.1351924  88.1466931  84.4119992 114.0814990  85.6889997
  84.2949992 113.1334990  85.6349997  83.5569992 114.4144990  85.9619997
  84.2803691 113.9965842  85.7185072  89.3609992 129.4894990  83.4309997
  89.7859992 128.7824990  82.9459997  89.6779992 130.2914990  83.0139997
  89.4620266 129.5010201  83.3082461  90.5199992 127.3904990  81.9399997
  90.2629992 126.7004990  81.3279997  90.5909992 126.9474990  82.7849997
  90.4944322 127.2361568  81.9705372  92.2059992 125.9574990  90.4169997
  92.3459992 125.3654990  89.6779997  92.3739992 126.8304990  90.0609997
  92.2478734 125.9944041  90.2676937  86.6789992 122.9194990  80.1889997
  85.9669992 123.4544990  79.8379997  87.3699992 122.9744990  79.5289997
  86.6748696 123.0002591  80.0516372  94.0479992 122.2974990  88.4829997
  93.3959992 122.9914990  88.5719997  94.5129992 122.5074990  87.6729997
  94.0215357 122.4209544  88.3857056  90.0849992 123.1284990  81.1409997
  89.3529992 123.3574990  81.7139997  90.5319992 122.4154990  81.5959997
  90.0452753 123.0633984  81.2809698  89.9819992 121.3034990  90.2089997
  90.0619992 122.0664990  90.7809997  89.3809992 121.5824990  89.5179997
  89.9117115 121.4457707  90.1939631  81.7299992 123.7594990  83.0239997
  81.3999992 123.3884990  82.2049997  82.3179992 123.0884990  83.3699997
  81.7644056 123.6181257  82.9589035  83.0969992 127.1874990  85.7049997
  83.0019992 126.6084990  84.9479997  83.8259992 126.8164990  86.2009997
  83.1826161 127.0580902  85.6685192  82.0969992 122.5274990  86.6569997
  82.6619992 122.6494990  85.8939997  82.4149992 123.1654990  87.2959997
  82.2173430 122.6304448  86.6389094  88.4059992 128.0314990  87.3909997
  88.1649992 128.6934990  88.0389997  88.2079992 127.1964990  87.8159997
  88.3462662 128.0092704  87.5371008  82.9769992 126.9274990  91.3739997
  82.6649992 127.7094990  91.8299997  82.3269992 126.7744990  90.6879997
  82.8464643 127.0138019  91.3436657  88.9559992 122.2914990  78.8259997
  89.5349992 122.4414990  79.5729997  89.3699992 122.7614990  78.1029997
  89.0913122 122.3756288  78.8305024  79.8969992 123.1254990  90.6029997
  79.9669992 123.7764990  91.3009997  79.0059992 123.2284990  90.2679997
  79.7861802 123.2284769  90.6532231  86.6819992 129.0274990  82.2619997
  87.1559992 129.3234990  83.0389997  86.1189992 129.7664990  82.0279997
  86.6708460 129.1678336  82.3367626  81.2159992 128.9984990  92.1379997
  81.2239992 128.8624990  91.1899997  80.2999992 128.8814990  92.3899997
  81.0932512 128.9640663  92.0423179  80.7199992 122.8284990  80.6129997
  80.4279992 123.5964990  80.1219997  80.0459992 122.1694990  80.4499997
  80.5888843 122.8444537  80.5237695  93.8439992 128.4074990  77.0159997
  93.9169992 129.3464990  77.1859997  94.7489992 128.1024990  76.9589997
  93.9764168 128.4948531  77.0315736  76.8129992 125.1914990  89.4279997
  76.3119992 125.1634990  88.6129997  76.8189992 124.2864990  89.7379997
  76.7451690 125.0652234  89.3582770  76.5639992 127.9724990  86.3119997
  77.5099992 127.8274990  86.2929997  76.4509992 128.7564990  86.8489997
  76.6783578 128.0586708  86.3820300  94.7609992 128.6384990  91.9939997
  94.7119992 127.6824990  91.9569997  93.9349992 128.9054990  92.3959997
  94.6425767 128.5438841  92.0433133  85.7399992 128.2124990  90.8699997
  85.8269992 129.0384990  91.3449997  84.8759992 127.8824990  91.1189997
  85.6351944 128.2809871  90.9686558  86.1539992 131.9844990  80.6759997
  86.0789992 131.8634990  79.7299997  86.1869992 132.9334990  80.7949997
  86.1481862 132.0962492  80.5624840  79.8079992 130.7734990  82.4569997
  79.9599992 130.4254990  83.3359997  78.9569992 130.4164990  82.2019997
  79.7137899 130.6776749  82.5427322  88.9249992 131.0644990  80.4279997
  87.9899992 131.1644990  80.6069997  89.2049992 130.3544990  81.0059997
  88.8349270 130.9822300  80.5305984  91.9129992 120.1314990  92.4739997
  91.5059992 120.6114990  91.7539997  91.9539992 119.2254990  92.1669997
  91.8627178 120.0748609  92.3337441  79.0619992 126.5154990  90.4709997
  79.2779992 126.1534990  91.3309997  78.2069992 126.1404990  90.2609997
  78.9759349 126.4152914  90.5602134  81.6809992 114.9854990  86.4669997
  80.8189992 114.8984990  86.0589997  81.6589992 115.8414990  86.8939997
  81.5600953 115.0893558  86.4689262  86.3439992 114.7074990  89.8409997
  86.7639992 114.2924990  90.5939997  85.4109992 114.5284990  89.9579997
  86.2753736 114.6264921  89.9598950  89.6699992 118.4624990  90.6949997
  89.1559992 118.3374990  91.4919997  89.5149992 119.3754990  90.4499997
  89.5786643 118.5687068  90.7710624  86.0059992 117.1994990  77.1259997
  85.7519992 117.2184990  78.0489997  85.7489992 116.3284990  76.8249997
  85.9365133 117.0843121  77.2115065  81.7719992 119.9504990  87.5619997
  81.1299992 119.9104990  88.2709997  81.8089992 120.8774990  87.3239997
  81.6891659 120.0702540  87.6268463  81.7689992 120.1714990  82.4739997
  80.8759992 119.8314990  82.4149997  82.2199992 119.7944990  81.7179997
  81.7077185 120.0740220  82.3637698  87.3049992 120.5874990  81.2909997
  86.8959992 121.4024990  80.9989997  88.0249992 120.4474990  80.6759997
  87.3463946 120.6799963  81.1679616  86.4069992 120.7634990  92.7789997
  85.8439992 120.0584990  93.0989997  87.2329992 120.6424990  93.2459997
  86.4416423 120.6505614  92.8860168  88.3089992 120.0334990  84.1049997
  88.1139992 120.6394990  83.3899997  88.4909992 119.2004990  83.6699997
  88.3069272 120.0037955  83.9484075  79.5219992 120.2714990  89.4289997
  79.4839992 120.6714990  90.2969997  79.0309992 119.4544990  89.5189997
  79.4504246 120.2158842  89.5601171  82.8879992 117.6454990  76.2269997
  82.4569992 117.2004990  76.9569997  82.1699992 118.0164990  75.7149997
  82.7319363 117.6347979  76.2576194  76.1299992 117.3874990  83.2789997
  76.7609992 117.3584990  83.9989997  76.5799992 116.9624990  82.5489997
  76.2770905 117.3260839  83.2787479  77.4039992 118.1334990  78.7029997
  77.8789992 118.7244990  78.1179997  76.6869992 118.6634990  79.0499997
  77.3720406 118.2861011  78.6698495  87.5729992 121.6714990  88.7759997
  87.8969992 121.0404990  88.1329997  87.1329992 121.1374990  89.4369997
  87.5578707 121.5128261  88.7773195  84.3509992 117.5994990  83.5599997
  83.4399992 117.6564990  83.8489997  84.8559992 117.5394990  84.3709997
  84.2946873 117.5991838  83.7091190  79.1789992 119.2284990  82.3869997
  78.2899992 119.3274990  82.0469997  79.4749992 118.3864990  82.0409997
  79.0974001 119.1282473  82.2937318  82.8319992 119.2284990  80.0429997
  83.7639992 119.3574990  80.2209997  82.6169992 119.8974990  79.3939997
  82.9304245 119.3366452  79.9795602  88.7559992 116.8344990  86.8239997
  88.0789992 116.9654990  87.4879997  88.2699992 116.6794990  86.0139997
  88.5977265 116.8314665  86.8053380  92.0429992 132.5054990  93.1009997
  92.2429992 132.9294990  92.2659997  92.6989992 132.8494990  93.7079997
  92.1589916 132.6099784  93.0687890  79.6409992 124.9794990  92.7089997
  80.3729992 125.2344990  93.2699997  78.8609992 125.1844990  93.2239997
  79.6357684 125.0421457  92.8554774  85.6709992 120.3864990  85.4469997
  86.2349992 119.8404990  84.8999997  85.5229992 119.8654990  86.2359997
  85.7283037 120.2411798  85.4787212  80.6729992 116.5234990  81.8649997
  80.3549992 115.6204990  81.8299997  81.4539992 116.5254990  81.3129997
  80.7351560 116.4001148  81.7854975  84.2969992 118.7754990  87.8609997
  83.4619992 119.2294990  87.9709997  84.8209992 119.0514990  88.6129997
  84.2535070 118.8749677  87.9777134  84.8409992 124.9884990  79.5459997
  84.0959992 124.4804990  79.2229997  84.7069992 125.0374990  80.4919997
  84.7208633 124.9255714  79.6297563  91.9909992 124.1214990  88.3319997
  92.6329992 124.5774990  87.7889997  91.1609992 124.2344990  87.8699997
  91.9667352 124.1993223  88.1950234  86.3609992 125.1724990  90.7829997
  86.0149992 124.7904990  91.5889997  86.1609992 126.1054990  90.8539997
  86.2865400 125.2463489  90.9030401  79.9659992 124.2834990  85.3149997
  80.7109992 124.2804990  84.7139997  80.0439992 123.4594990  85.7969997
  80.0784158 124.1717928  85.2979136  86.9669992 126.4464990  78.5709997
  86.6719992 127.2734990  78.9529997  86.2639992 125.8274990  78.7669997
  86.8315855 126.4759458  78.6497634  76.9739992 122.7434990  90.6299997
  77.1969992 122.3254990  91.4619997  76.3719992 122.1314990  90.2079997
  76.9230802 122.6035216  90.6867561  83.9909992 122.2604990  92.8429997
  83.6949992 122.0954990  91.9479997  84.9219992 122.0404990  92.8329997
  84.0763909 122.2081274  92.7190110  88.6109992 127.6344990  90.7329997
  87.7099992 127.8174990  90.4649997  88.6449992 127.8934990  91.6539997
  88.4923021 127.6945505  90.8208206  94.3419992 119.8784990  79.0999997
  93.7879992 119.4824990  78.4279997  94.4429992 120.7894990  78.8229997
  94.2797084 119.9473565  78.9704381  94.3049992 125.6794990  91.9369997
  93.4539992 125.9174990  91.5699997  94.8959992 125.6624990  91.1839997
  94.2682468 125.7098251  91.7848902  92.6369992 128.6644990  79.5649997
  92.2649992 127.8394990  79.8749997  92.9149992 128.4814990  78.6679997
  92.6235997 128.5266160  79.4861551  89.7979992 123.4724990  86.5869997
  88.8699992 123.2414990  86.5599997  90.2489992 122.6954990  86.2569997
  89.7318165 123.3357785  86.5386772  82.3409992 127.8014990  82.7199997
  82.8679992 128.5744990  82.5189997  81.4609992 128.0254990  82.4179997
  82.2941793 127.9376652  82.6516304  83.7679992 125.4644990  82.2959997
  83.5269992 126.3894990  82.3379997  83.0279992 125.0054990  82.6919997
  83.6348934 125.5290881  82.3553191  84.2829992 129.6134990  88.6109997
  84.6459992 130.4674990  88.3779997  84.8149992 129.3214990  89.3519997
  84.4045141 129.6908907  88.6792079  82.4509992 130.4854990  81.8409997
  81.5019992 130.5914990  81.8929997  82.8029992 131.3064990  82.1859997
  82.3686214 130.6109361  81.8947317  87.8269992 125.7124990  88.3119997
  87.4009992 125.4844990  89.1379997  88.4079992 124.9734990  88.1289997
  87.8471587 125.5814084  88.4004111  90.4859992 130.2644990  90.7809997
  89.8839992 129.7084990  90.2859997  90.7669992 130.9314990  90.1549997
  90.4415757 130.2785755  90.6285657  94.5329992 131.1204990  77.5869997
  95.2769992 131.7064990  77.4469997  93.8389992 131.6894990  77.9199997
  94.5409809 131.2775830  77.6128572  78.6079992 117.4974990  90.1879997
  77.7149992 117.8354990  90.1209997  78.5089992 116.6414990  90.6059997
  78.4725241 117.4280941  90.2352982  90.8959992 125.3134990  79.6119997
  90.6189992 124.5854990  80.1679997  91.8229992 125.4324990  79.8179997
  90.9834181 125.2300068  79.7158972  78.2589992 129.3014990  88.6229997
  78.4759992 128.3694990  88.5919997  78.5059992 129.5764990  89.5069997
  78.3220543 129.2110877  88.7381412  83.0579992 127.3234990  78.2889997
  83.2049992 126.8034990  79.0789997  83.0549992 128.2304990  78.5949997
  83.0777300 127.3748975  78.4385877  79.5109992 124.5754990  78.7989997
  78.8249992 124.9284990  79.3659997  80.0339992 125.3384990  78.5529997
  79.4879033 124.7268757  78.8432644  87.3419992 117.2384990  89.0779997
  88.0409992 117.3124990  89.7279997  86.9619992 116.3734990  89.2329997
  87.3862095 117.1317402  89.1877982  88.1269992 116.8904990  80.1749997
  88.3469992 117.3614990  79.3719997  88.6849992 117.2844990  80.8459997
  88.2325851 117.0083272  80.1556134  85.3269992 118.6184990  81.0099997
  86.1389992 119.1224990  81.0559997  85.0819992 118.4734990  81.9239997
  85.4051091 118.6679366  81.1398552  85.8629992 119.6044990  90.1949997
  85.9819992 120.1784990  90.9519997  86.5179992 118.9164990  90.3099997
  85.9678684 119.5900205  90.3141656  86.2109992 115.6994990  81.9479997
  85.8639992 116.3164990  82.5929997  86.8689992 116.2004990  81.4669997
  86.2525290 115.8516384  81.9711635  81.8679992 116.7624990  78.6359997
  81.7849992 117.6504990  78.9819997  82.7579992 116.4974990  78.8669997
  81.9769751 116.8482482  78.7146066  92.0669992 117.5114990  91.0299997
  91.1509992 117.7734990  90.9419997  92.4029992 117.5084990  90.1329997
  91.9869789 117.5469637  90.8967829  90.6689992 121.2614990  85.1259997
  89.8719992 120.8464990  84.7969997  91.1139992 120.5714990  85.6169997
  90.6200317 121.1113197  85.1473556  80.1269992 127.1894990  77.6959997
  80.7189992 127.8894990  77.9719997  80.5859992 126.7564990  76.9769997
  80.2701172 127.2267371  77.6365163  78.4429992 119.8544990  76.8119997
  78.3979992 120.7934990  76.9909997  77.5549992 119.6184990  76.5419997
  78.3168472 119.9511946  76.8000282  91.7559992 130.5174990  86.7479997
  91.5999992 131.1964990  86.0909997  92.6879992 130.5894990  86.9509997
  91.8607328 130.6201586  86.6855529  79.2509992 114.6354990  85.4849997
  79.0219992 114.6944990  84.5579997  78.8079992 113.8444990  85.7919997
  79.1597387 114.5366412  85.3995223  78.1809992 128.5764990  81.6459997
  77.3489992 129.0484990  81.6729997  78.7269992 129.0864990  81.0469997
  78.1408710 128.7100317  81.5687570  77.4699992 131.1884990  92.9759997
  78.0099992 130.9724990  93.7349997  76.9879992 130.3834990  92.7859997
  77.4789101 131.0500216  93.0544364  82.0669992 130.1084990  94.5959997
  82.8349992 129.6494990  94.9369997  82.0459992 129.8824990  93.6659997
  82.1692135 130.0151680  94.5169473  88.6439992 128.4884990  93.3249997
  88.2929992 127.6314990  93.5679997  89.3699992 128.6304990  93.9319997
  88.6941590 128.3905189  93.4402889  77.3769992 124.9994990  93.9299997
  77.5209992 124.0974990  93.6439997  76.6039992 125.2854990  93.4419997
  77.2922854 124.9146876  93.8249363  84.0319992 124.9684990  93.3629997
  83.7039992 125.2394990  92.5049997  84.1839992 124.0274990  93.2749997
  84.0076970 124.8783694  93.2337953  89.7669992 124.8844990  90.7459997
  90.5119992 125.4734990  90.6259997  89.0089992 125.4664990  90.8089997
  89.7665185 125.0437000  90.7380940  78.2089992 122.1994990  93.3499997
  78.6169992 121.3424990  93.2289997  77.9489992 122.2134990  94.2709997
  78.2297082 122.0840596  93.4579469  82.8669992 123.3154990  78.3679997
  82.4079992 122.8314990  79.0539997  83.1219992 122.6464990  77.7319997
  82.8386178 123.1588511  78.3759785  82.1559992 121.2084990  90.7239997
  81.5379992 121.8824990  91.0049997  82.4999992 121.5294990  89.8909997
  82.1178181 121.3443233  90.6498266  87.1759992 123.6794990  94.0019997
  88.1289992 123.7634990  93.9739997  87.0159992 122.9674990  94.6209997
  87.2848161 123.5947198  94.0818689  93.3279992 123.9124990  76.0759997
  93.0549992 123.4884990  75.2629997  93.3679992 124.8444990  75.8589997
  93.2960201 123.9803523  75.9353548  82.4959992 118.5634990  91.8069997
  82.6459992 117.8344990  91.2039997  82.4979992 119.3404990  91.2479997
  82.5167664 118.5688971  91.6490525  82.9079992 116.9324990  89.2989997
  83.4439992 117.3844990  88.6469997  82.0559992 116.8244990  88.8769997
  82.8661648 116.9797883  89.1526395  84.4899992 122.3724990  89.5389997
  85.2409992 122.2164990  88.9659997  84.1509992 123.2244990  89.2629997
  84.5469052 122.4662745  89.4233469  88.9059992 120.1874990  94.5669997
  89.0979992 119.2564990  94.4559997  89.7629992 120.6124990  94.5569997
  89.0482320 120.1174743  94.5504433  90.2219992 122.9764990  92.6449997
  89.9409992 123.6854990  92.0669997  91.1649992 122.9034990  92.4939997
  90.3109272 123.0636704  92.5454976  80.9739992 119.7614990  93.7179997
  80.2069992 119.2284990  93.5079997  81.6529992 119.4514990  93.1189997
  80.9608292 119.6466360  93.6082693  83.7139992 114.3894990  89.7309997
  83.6159992 115.3354990  89.6249997  82.9709992 114.0164990  89.2549997
  83.6002363 114.4685987  89.6522029  84.9779992 118.7104990  93.2939997
  84.7419992 118.4914990  94.1959997  84.1949992 118.5034990  92.7849997
  84.8398444 118.6525688  93.3484518  87.6939992 117.8384990  92.3699997
  86.7459992 117.8704990  92.5019997  88.0059992 117.2124990  93.0239997
  87.6065293 117.7582934  92.4764130  89.3279992 116.4724990  94.3749997
  89.2309992 115.5204990  94.3689997  89.0059992 116.7404990  95.2359997
  89.2712229 116.3784706  94.4905108  79.1549992 117.6814990  93.4229997
  79.3659992 116.9754990  92.8119997  79.0429992 117.2444990  94.2669997
  79.1687674 117.5256376  93.4534199  83.9359992 113.6834990  92.4019997
  84.6469992 113.0434990  92.3879997  83.8349992 113.9494990  91.4879997
  84.0196732 113.6318451  92.2765475  84.2889992 115.3654990  94.4559997
  84.1579992 114.8904990  93.6349997  83.6899992 116.1104990  94.3999997
  84.1901524 115.4011968  94.3361553  76.0529992 132.2784990  82.1919997
  75.4059992 131.8164990  81.6589997  76.4079992 131.6064990  82.7749997
  76.0123861 132.1244707  82.1977939  76.9229992 130.3584990  83.9969997
  76.5889992 129.4784990  84.1689997  77.1449992 130.7044990  84.8609997
  76.9072677 130.2847366  84.1374252  94.4719992 131.1684990  86.9769997
  94.4499992 131.3534990  87.9159997  95.1619992 131.7364990  86.6359997
  94.5623439 131.2706898  87.0594774  94.0349992 130.7354990  89.8989997
  93.5479992 129.9994990  89.5279997  94.5839992 130.3414990  90.5769997
  94.0426101 130.5816267  89.9399034  92.4859992 126.5254990  94.5369997
  91.6199992 126.4204990  94.9309997  92.8619992 127.2834990  94.9839997
  92.4183768 126.6136151  94.6513258  93.7869992 124.7814990  80.0509997
  94.6369992 125.2024990  80.1789997  93.7919992 124.0414990  80.6589997
  93.9039745 124.7391347  80.1506479  94.1809992 122.8354990  81.8749997
  93.4549992 122.3554990  82.2729997  94.7619992 123.0404990  82.6069997
  94.1602504 122.7975592  82.0284199  93.9399992 125.6204990  86.8229997
  94.7739992 125.2424990  86.5419997  94.0519992 126.5634990  86.7039997
  94.0691917 125.6962954  86.7684844  92.4259992 128.4984990  89.1299997
  91.7789992 128.8234990  89.7549997  91.9089992 128.0574990  88.4549997
  92.2674068 128.4834726  89.1244918  94.4489992 122.7364990  78.2659997
  93.9279992 123.0924990  77.5469997  94.4159992 123.4114990  78.9439997
  94.3731525 122.8765273  78.2591408  91.9679992 121.3564990  82.4379997
  91.8179992 120.4114990  82.4179997  91.6139992 121.6374990  83.2819997
  91.8996351 121.2651656  82.5493202  77.0029992 123.4344990  86.4479997
  77.1869992 123.3524990  85.5129997  77.8519992 123.3104990  86.8719997
  77.1430259 123.4064915  86.3771771  92.8239992 123.3264990  92.0769997
  93.4069992 122.5914990  92.2679997  93.3879992 124.0984990  92.1229997
  92.9800326 123.3302746  92.1093579  94.3209992 121.2294990  92.7609997
  93.4569992 120.8504990  92.5959997  94.9249992 120.4904990  92.6869997
  94.2844912 121.0777937  92.7284360  91.6779992 118.9384990  80.8999997
  91.9579992 118.0314990  81.0249997  92.4369992 119.3724990  80.5109997
  91.8189471 118.8730654  80.8645052  92.2899992 119.5204990  86.3359997
  93.2229992 119.7324990  86.3019997  92.0549992 119.6214990  87.2589997
  92.3858357 119.5631303  86.4560232  92.3189992 120.2574990  89.1119997
  91.4759992 120.5254990  89.4779997  92.7619992 121.0794990  88.9009997
  92.2634358 120.4053294  89.1335999  76.5999992 118.7044990  92.5889997
  77.5199992 118.5824990  92.8249997  76.1509992 117.9544990  92.9779997
  76.6651561 118.5863720  92.6739015  94.6019992 114.2374990  94.4659997
  94.9519992 113.5834990  93.8599997  94.7489992 115.0744990  94.0259997
  94.6697192 114.2612545  94.3236712  92.2919992 116.2014990  80.9489997
  92.4739992 115.7524990  81.7739997  91.6919992 115.6174990  80.4849997
  92.2358187 116.0610563  80.9992721  77.8219992 117.0174990  85.4799997
  78.2669992 116.2254990  85.7819997  78.2879992 117.7334990  85.9109997
  77.9459059 117.0059485  85.5796061  76.1259992 120.0164990  86.5489997
  76.6179992 119.7954990  85.7589997  76.4879992 120.8564990  86.8299997
  76.2423429 120.0998220  86.4787918  94.1219992 116.3464990  92.8149997
  93.2049992 116.6174990  92.7789997  94.2449992 115.8114990  92.0309997
  94.0130828 116.3112711  92.7040767  94.1579992 116.2694990  77.4769997
  94.5709992 115.5484990  77.0009997  94.8399992 116.9384990  77.5349997
  94.3065712 116.2614304  77.4198247  76.4389992 116.2744990  80.6039997
  75.5139992 116.4824990  80.4739997  76.8929992 116.7584990  79.9139997
  76.3737401 116.3683895  80.4929433  91.2099992 131.2584990  82.5489997
  91.8619992 130.9104990  81.9409997  91.7209992 131.7464990  83.1949997
  91.3682872 131.2768248  82.5530964  76.4029992 115.0124990  88.9479997
  75.7379992 114.7664990  89.5909997  75.9599992 115.6344990  88.3709997
  76.2521168 115.0629225  88.9579830  78.5949992 128.1874990  93.0919997
  77.7739992 128.3624990  92.6319997  78.3429992 128.1144990  94.0129997
  78.4486173 128.2015806  93.1534954  81.5489992 129.1614990  89.3509997
  81.1239992 129.9714990  89.0679997  82.4529992 129.2474990  89.0489997
  81.6131002 129.2838728  89.2714798  85.8599992 130.5604990  92.3099997
  86.0449992 130.2274990  93.1879997  86.7069992 130.8704990  91.9879997
  85.9997291 130.5568214  92.3866140  88.2049992 131.8464990  91.5539997
  88.8819992 131.2134990  91.3139997  88.5269992 132.2474990  92.3619997
  88.3411280 131.8140638  91.6303190  93.1229992 114.4364990  90.6339997
  92.3099992 114.7614990  90.2459997  93.3559992 113.6754990  90.1009997
  93.0432566 114.3781570  90.5089196  78.9509992 132.4184990  89.3979997
  78.2299992 132.8584990  88.9469997  78.5849992 132.1674990  90.2469997
  78.8029785 132.4447691  89.4509849  81.4179992 132.0184990  88.4279997
  80.5529992 132.0904990  88.8319997  81.3629992 132.5654990  87.6439997
  81.2922066 132.1022678  88.3773371  86.1289992 131.9064990  87.6039997
  85.6719992 132.4354990  86.9499997  86.2909992 132.5094990  88.3289997
  86.0883919 132.0603990  87.6125740  88.4559992 130.7844990  88.5489997
  87.5519992 130.9494990  88.2829997  88.8849992 131.6374990  88.4829997
  88.3902017 130.9224184  88.5036495  91.0599992 132.3544990  88.8439997
  90.8789992 133.2704990  88.6329997  91.2369992 131.9434990  87.9969997
  91.0591377 132.4243365  88.7007178  78.3659992 131.0414990  86.3089997
  78.3469992 130.6154990  87.1659997  79.1699992 130.7224990  85.8999997
  78.4721393 130.9400297  86.3710155  80.5069992 129.7514990  84.9639997
  80.2879992 128.8344990  85.1329997  81.3309992 129.8914990  85.4299997
  80.5884637 129.6449586  85.0501414  83.0439992 130.2214990  85.8119997
  83.2569992 129.3334990  85.5249997  83.1089992 130.1864990  86.7669997
  83.0819075 130.0953318  85.9017355  86.5529992 115.8854990  84.9569997
  85.8779992 115.2554990  85.2119997  87.1169992 115.4014990  84.3539997
  86.5369558 115.7339283  84.9103451  91.6949992 113.9924990  85.0689997
  92.2989992 114.5404990  84.5679997  90.8259992 114.3114990  84.8289997
  91.6601126 114.1107070  84.9679180  93.4219992 115.1314990  83.4029997
  94.0339992 114.6174990  82.8759997  93.8049992 116.0084990  83.4259997
  93.5573867 115.1797613  83.3340888  78.8789992 114.5194990  82.7789997
  78.1019992 114.2844990  82.2709997  79.4099992 113.7224990  82.7879997
  78.8444443 114.3796721  82.7107200  77.7159992 114.3174990  78.5819997
  78.1549992 114.9284990  77.9909997  77.0819992 114.8554990  79.0559997
  77.6904104 114.4739233  78.5651376  83.4589992 114.4454990  82.5919997
  84.3329992 114.8344990  82.5619997  83.3229992 114.2304990  83.5149997
  83.5603125 114.4697120  82.7126523  89.0149992 114.4754990  84.2409997
  89.0919992 114.5714990  83.2919997  88.7399992 113.5684990  84.3699997
  88.9883407 114.3659188  84.1283532  90.3689992 114.5014990  79.9339997
  89.6659992 115.1164990  79.7239997  89.9239992 113.6644990  80.0649997
  90.2126550 114.4724679  79.9229819  77.6169992 130.2654990  79.4799997
  76.9319992 130.2274990  78.8119997  77.6199992 131.1774990  79.7679997
  77.5237358 130.3836744  79.4276145  79.5769992 116.2334990  77.0249997
  80.0679992 115.6034990  76.4969997  80.1999992 116.5294990  77.6879997
  79.7285459 116.1872419  77.0423667  84.6029992 116.5264990  79.4819997
  84.7809992 115.8794990  80.1649997  84.5489992 117.3604990  79.9489997
  84.6200678 116.5506615  79.6386283  93.1899992 131.0374990  80.5569997
  92.9959992 130.2894990  79.9919997  93.1509992 131.7954990  79.9729997
  93.1581907 131.0375770  80.4008077  78.8369992 115.0334990  92.2959997
  78.4709992 114.2674990  92.7389997  79.7499992 115.0624990  92.5829997
  78.9103225 114.9326917  92.3953441  80.8099992 114.3834990  93.8319997
  81.7089992 114.1094990  93.6469997  80.4239992 113.6414990  94.2959997
  80.8807237 114.2456520  93.8694693  89.2309992 113.7164990  94.0139997
  89.3079992 113.2904990  94.8679997  90.1249992 113.7294990  93.6719997
  89.3623315 113.6600320  94.0845052  92.4079992 129.7884990  92.7069997
  91.6259992 129.6024990  92.1869997  92.3359992 130.7184990  92.9239997
  92.2912975 129.8886973  92.6651822 106.8139992 123.6754990  82.7369997
 106.9029992 124.6194990  82.6049997 106.1749992 123.4004990  82.0789997
 106.7398319 123.7674984  82.6300276 105.7469992 122.9304990  86.1559997
 105.7079992 122.2844990  86.8609997 105.4239992 122.4634990  85.3849997
 105.6980199 122.7790089  86.1482865  98.1149992 122.5444990  87.7489997
  98.1559992 121.9194990  88.4729997  98.8179992 123.1684990  87.9309997
  98.2156054 122.5433262  87.8726311 109.4529992 125.8694990  84.4579997
 109.0119992 125.1494990  84.9079997 109.4399992 126.5904990  85.0879997
 109.3908398 125.8683187  84.6047734  99.0389992 126.9944990  86.2839997
  98.6689992 126.1924990  85.9149997  99.9799992 126.8264990  86.3309997
  99.1155630 126.8618680  86.2397873  95.6489992 120.6544990  81.6769997
  95.2009992 121.5004990  81.6589997  95.0879992 120.0754990  81.1619997
  95.5118546 120.6919004  81.6048874  96.3589992 122.8164990  83.8029997
  96.5729992 122.0464990  84.3299997  97.0969992 122.9064990  83.1999997
  96.4880073 122.7233546  83.7935786 106.5639992 130.9734990  84.6699997
 107.1839992 130.2974990  84.3969997 106.3559992 130.7554990  85.5779997
 106.6207360 130.8514792  84.7554387 104.1359992 125.3624990  86.5619997
 104.4399992 124.6764990  85.9679997 104.8579992 125.4814990  87.1799997
 104.2751152 125.2847201  86.5642106 112.7989992 116.9644990  87.4229997
 112.8479992 117.5744990  88.1589997 113.2249992 117.4254990  86.6999997
 112.8632851 117.1103266  87.4260532 107.2769992 119.7564990  86.8899997
 107.4189992 118.8104990  86.9099997 107.1709992 119.9634990  85.9609997
 107.2821158 119.6549722  86.7672241 100.4319992 117.8584990  84.1619997
 100.4749992 118.7184990  83.7439997  99.9739992 117.3054990  83.5289997
 100.3759613 117.9015689  84.0191276 108.1539992 117.9894990  82.5629997
 108.7999992 117.6604990  83.1879997 108.6639992 118.5064990  81.9399997
 108.3114392 118.0143710  82.5643248  97.0519992 120.2554990  84.9239997
  97.7059992 119.7054990  85.3559997  97.0759992 119.9814990  84.0079997
  97.1447022 120.1432005  84.8591698 102.2079992 121.8054990  84.1399997
 102.8239992 121.2784990  84.6489997 101.6219992 121.1654990  83.7359997
 102.2130652 121.6468919  84.1550277 113.1909992 118.4424990  89.6589997
 112.5019992 119.1004990  89.5639997 113.2059992 118.2444990  90.5959997
 113.0987756 118.5057614  89.7725795  99.2419992 116.7764990  88.2359997
  99.0229992 117.3064990  87.4699997  98.5739992 117.0024990  88.8839997
  99.1217271 116.8796508  88.2186206 106.6109992 126.2764990  81.7799997
 106.3149992 125.9534990  80.9289997 106.2869992 127.1764990  81.8219997
 106.5266501 126.3539058  81.6690893 101.8109992 124.4514990  88.5239997
 101.0709992 125.0504990  88.6269997 102.5249992 125.0054990  88.2079997
 101.8063288 124.6082368  88.4953787 109.9179992 117.2804990  84.5439997
 109.7029992 116.5144990  85.0759997 110.5739992 117.7524990  85.0569997
 109.9772451 117.2394472  84.6861699  98.8359992 118.6684990  86.1889997
  99.4489992 119.3014990  86.5619997  99.3479992 118.1964990  85.5319997
  98.9891680 118.6914006  86.1512830 100.2179992 126.4164990  89.3109997
 100.2129992 127.2954990  88.9329997  99.3649992 126.3324990  89.7359997
 100.1019199 126.5255901  89.3166942  96.3399992 126.0874990  80.0929997
  96.0679992 126.3164990  79.2039997  96.3849992 126.9244990  80.5529997
  96.3088709 126.2321069  80.0336089 109.9649992 127.7084990  86.8059997
 109.0229992 127.7674990  86.9669997 110.2409992 128.6144990  86.6689997
 109.8735771 127.8390270  86.8094827 110.2649992 115.9954990  88.2229997
 109.5289992 116.6054990  88.1849997 110.9489992 116.4104990  87.6969997
 110.2565885 116.1351924  88.1466931 103.2679992 114.0814990  85.6889997
 103.1509992 113.1334990  85.6349997 102.4129992 114.4144990  85.9619997
 103.1363691 113.9965842  85.7185072 108.2169992 129.4894990  83.4309997
 108.6419992 128.7824990  82.9459997 108.5339992 130.2914990  83.0139997
 108.3180266 129.5010201  83.3082461 109.3759992 127.3904990  81.9399997
 109.1189992 126.7004990  81.3279997 109.4469992 126.9474990  82.7849997
 109.3504322 127.2361568  81.9705372 111.0619992 125.9574990  90.4169997
 111.2019992 125.3654990  89.6779997 111.2299992 126.8304990  90.0609997
 111.1038734 125.9944041  90.2676937 105.5349992 122.9194990  80.1889997
 104.8229992 123.4544990  79.8379997 106.2259992 122.9744990  79.5289997
 105.5308696 123.0002591  80.0516372 112.9039992 122.2974990  88.4829997
 112.2519992 122.9914990  88.5719997 113.3689992 122.5074990  87.6729997
 112.8775357 122.4209544  88.3857056 108.9409992 123.1284990  81.1409997
 108.2089992 123.3574990  81.7139997 109.3879992 122.4154990  81.5959997
 108.9012753 123.0633984  81.2809698 108.8379992 121.3034990  90.2089997
 108.9179992 122.0664990  90.7809997 108.2369992 121.5824990  89.5179997
 108.7677115 121.4457707  90.1939631 100.5859992 123.7594990  83.0239997
 100.2559992 123.3884990  82.2049997 101.1739992 123.0884990  83.3699997
 100.6204056 123.6181257  82.9589035 101.9529992 127.1874990  85.7049997
 101.8579992 126.6084990  84.9479997 102.6819992 126.8164990  86.2009997
 102.0386161 127.0580902  85.6685191 100.9529992 122.5274990  86.6569997
 101.5179992 122.6494990  85.8939997 101.2709992 123.1654990  87.2959997
 101.0733430 122.6304448  86.6389094 107.2619992 128.0314990  87.3909997
 107.0209992 128.6934990  88.0389997 107.0639992 127.1964990  87.8159997
 107.2022662 128.0092704  87.5371008 101.8329992 126.9274990  91.3739997
 101.5209992 127.7094990  91.8299997 101.1829992 126.7744990  90.6879997
 101.7024643 127.0138019  91.3436657 107.8119992 122.2914990  78.8259997
 108.3909992 122.4414990  79.5729997 108.2259992 122.7614990  78.1029997
 107.9473122 122.3756288  78.8305024  98.7529992 123.1254990  90.6029997
  98.8229992 123.7764990  91.3009997  97.8619992 123.2284990  90.2679997
  98.6421802 123.2284769  90.6532231 105.5379992 129.0274990  82.2619997
 106.0119992 129.3234990  83.0389997 104.9749992 129.7664990  82.0279997
 105.5268461 129.1678336  82.3367626 100.0719992 128.9984990  92.1379997
 100.0799992 128.8624990  91.1899997  99.1559992 128.8814990  92.3899997
  99.9492512 128.9640663  92.0423179 111.5099992 114.0414990  78.6389997
 110.6099992 114.1794990  78.9339997 111.7619992 114.8724990  78.2369997
 111.4207355 114.1728200  78.6250539  99.5759992 122.8284990  80.6129997
  99.2839992 123.5964990  80.1219997  98.9019992 122.1694990  80.4499997
  99.4448843 122.8444537  80.5237695  95.6689992 125.1914990  89.4279997
  95.1679992 125.1634990  88.6129997  95.6749992 124.2864990  89.7379997
  95.6011690 125.0652234  89.3582770  95.4199992 127.9724990  86.3119997
  96.3659992 127.8274990  86.2929997  95.3069992 128.7564990  86.8489997
  95.5343578 128.0586708  86.3820300 113.6169992 128.6384990  91.9939997
 113.5679992 127.6824990  91.9569997 112.7909992 128.9054990  92.3959997
 113.4985767 128.5438841  92.0433133 104.5959992 128.2124990  90.8699997
 104.6829992 129.0384990  91.3449997 103.7319992 127.8824990  91.1189997
 104.4911944 128.2809871  90.9686558 105.0099992 131.9844990  80.6759997
 104.9349992 131.8634990  79.7299997 105.0429992 132.9334990  80.7949997
 105.0041862 132.0962492  80.5624840  98.6639992 130.7734990  82.4569997
  98.8159992 130.4254990  83.3359997  97.8129992 130.4164990  82.2019997
  98.5697899 130.6776749  82.5427322 108.1119992 131.1384990  77.6789997
 108.4869992 130.3944990  77.2079997 108.1159992 130.8684990  78.5969997
 108.1638969 131.0000920  77.7386475 107.7809992 131.0644990  80.4279997
 106.8459992 131.1644990  80.6069997 108.0609992 130.3544990  81.0059997
 107.6909270 130.9822300  80.5305984 110.7689992 120.1314990  92.4739997
 110.3619992 120.6114990  91.7539997 110.8099992 119.2254990  92.1669997
 110.7187178 120.0748609  92.3337441  97.9179992 126.5154990  90.4709997
  98.1339992 126.1534990  91.3309997  97.0629992 126.1404990  90.2609997
  97.8319349 126.4152914  90.5602134 100.5369992 114.9854990  86.4669997
  99.6749992 114.8984990  86.0589997 100.5149992 115.8414990  86.8939997
 100.4160953 115.0893558  86.4689262 105.1999992 114.7074990  89.8409997
 105.6199992 114.2924990  90.5939997 104.2669992 114.5284990  89.9579997
 105.1313736 114.6264921  89.9598950 108.5259992 118.4624990  90.6949997
 108.0119992 118.3374990  91.4919997 108.3709992 119.3754990  90.4499997
 108.4346643 118.5687068  90.7710624 100.6279992 119.9504990  87.5619997
  99.9859992 119.9104990  88.2709997 100.6649992 120.8774990  87.3239997
 100.5451659 120.0702540  87.6268463 100.6249992 120.1714990  82.4739997
  99.7319992 119.8314990  82.4149997 101.0759992 119.7944990  81.7179997
 100.5637185 120.0740220  82.3637698 106.1609992 120.5874990  81.2909997
 105.7519992 121.4024990  80.9989997 106.8809992 120.4474990  80.6759997
 106.2023946 120.6799963  81.1679616 105.2629992 120.7634990  92.7789997
 104.6999992 120.0584990  93.0989997 106.0889992 120.6424990  93.2459997
 105.2976423 120.6505614  92.8860168 107.1649992 120.0334990  84.1049997
 106.9699992 120.6394990  83.3899997 107.3469992 119.2004990  83.6699997
 107.1629272 120.0037955  83.9484075  98.3779992 120.2714990  89.4289997
  98.3399992 120.6714990  90.2969997  97.8869992 119.4544990  89.5189997
  98.3064246 120.2158842  89.5601171  94.9859992 117.3874990  83.2789997
  95.6169992 117.3584990  83.9989997  95.4359992 116.9624990  82.5489997
  95.1330905 117.3260839  83.2787479  96.2599992 118.1334990  78.7029997
  96.7349992 118.7244990  78.1179997  95.5429992 118.6634990  79.0499997
  96.2280406 118.2861011  78.6698495 106.4289992 121.6714990  88.7759997
 106.7529992 121.0404990  88.1329997 105.9889992 121.1374990  89.4369997
 106.4138707 121.5128261  88.7773195 103.2069992 117.5994990  83.5599997
 102.2959992 117.6564990  83.8489997 103.7119992 117.5394990  84.3709997
 103.1506873 117.5991838  83.7091190  98.0349992 119.2284990  82.3869997
  97.1459992 119.3274990  82.0469997  98.3309992 118.3864990  82.0409997
  97.9534001 119.1282473  82.2937318 101.6879992 119.2284990  80.0429997
 102.6199992 119.3574990  80.2209997 101.4729992 119.8974990  79.3939997
 101.7864245 119.3366452  79.9795602 107.6119992 116.8344990  86.8239997
 106.9349992 116.9654990  87.4879997 107.1259992 116.6794990  86.0139997
 107.4537265 116.8314665  86.8053380 110.8989992 132.5054990  93.1009997
 111.0989992 132.9294990  92.2659997 111.5549992 132.8494990  93.7079997
 111.0149916 132.6099784  93.0687890  98.4969992 124.9794990  92.7089997
  99.2289992 125.2344990  93.2699997  97.7169992 125.1844990  93.2239997
  98.4917684 125.0421457  92.8554774 104.5269992 120.3864990  85.4469997
 105.0909992 119.8404990  84.8999997 104.3789992 119.8654990  86.2359997
 104.5843037 120.2411798  85.4787212  99.5289992 116.5234990  81.8649997
  99.2109992 115.6204990  81.8299997 100.3099992 116.5254990  81.3129997
  99.5911560 116.4001148  81.7854975 103.1529992 118.7754990  87.8609997
 102.3179992 119.2294990  87.9709997 103.6769992 119.0514990  88.6129997
 103.1095070 118.8749677  87.9777134 103.6969992 124.9884990  79.5459997
 102.9519992 124.4804990  79.2229997 103.5629992 125.0374990  80.4919997
 103.5768633 124.9255714  79.6297563 110.8469992 124.1214990  88.3319997
 111.4889992 124.5774990  87.7889997 110.0169992 124.2344990  87.8699997
 110.8227352 124.1993223  88.1950234 107.5949992 117.8024990  77.7449997
 106.6559992 117.9134990  77.5939997 107.8919992 118.6584990  78.0509997
 107.5066371 117.9335327  77.7657362 105.2169992 125.1724990  90.7829997
 104.8709992 124.7904990  91.5889997 105.0169992 126.1054990  90.8539997
 105.1425400 125.2463489  90.9030401 108.3129992 119.6694990  79.4059997
 109.2049992 119.5314990  79.7249997 108.3699992 120.4604990  78.8689997
 108.4427380 119.7574777  79.3770981  98.8219992 124.2834990  85.3149997
  99.5669992 124.2804990  84.7139997  98.8999992 123.4594990  85.7969997
  98.9344159 124.1717928  85.2979136 105.8229992 126.4464990  78.5709997
 105.5279992 127.2734990  78.9529997 105.1199992 125.8274990  78.7669997
 105.6875855 126.4759458  78.6497634  95.8299992 122.7434990  90.6299997
  96.0529992 122.3254990  91.4619997  95.2279992 122.1314990  90.2079997
  95.7790802 122.6035216  90.6867561 102.8469992 122.2604990  92.8429997
 102.5509992 122.0954990  91.9479997 103.7779992 122.0404990  92.8329997
 102.9323909 122.2081274  92.7190110 107.4669992 127.6344990  90.7329997
 106.5659992 127.8174990  90.4649997 107.5009992 127.8934990  91.6539997
 107.3483021 127.6945505  90.8208206 113.1979992 119.8784990  79.0999997
 112.6439992 119.4824990  78.4279997 113.2989992 120.7894990  78.8229997
 113.1357084 119.9473565  78.9704381 113.1609992 125.6794990  91.9369997
 112.3099992 125.9174990  91.5699997 113.7519992 125.6624990  91.1839997
 113.1242468 125.7098251  91.7848902 111.4929992 128.6644990  79.5649997
 111.1209992 127.8394990  79.8749997 111.7709992 128.4814990  78.6679997
 111.4795997 128.5266160  79.4861551 108.6539992 123.4724990  86.5869997
 107.7259992 123.2414990  86.5599997 109.1049992 122.6954990  86.2569997
 108.5878165 123.3357785  86.5386772 101.1969992 127.8014990  82.7199997
 101.7239992 128.5744990  82.5189997 100.3169992 128.0254990  82.4179997
 101.1501793 127.9376652  82.6516304 102.6239992 125.4644990  82.2959997
 102.3829992 126.3894990  82.3379997 101.8839992 125.0054990  82.6919997
 102.4908934 125.5290881  82.3553191 103.1389992 129.6134990  88.6109997
 103.5019992 130.4674990  88.3779997 103.6709992 129.3214990  89.3519997
 103.2605141 129.6908907  88.6792079 101.3069992 130.4854990  81.8409997
 100.3579992 130.5914990  81.8929997 101.6589992 131.3064990  82.1859997
 101.2246214 130.6109361  81.8947317 106.6829992 125.7124990  88.3119997
 106.2569992 125.4844990  89.1379997 107.2639992 124.9734990  88.1289997
 106.7031587 125.5814084  88.4004111 108.8859992 126.6414990  77.3859997
 109.2389992 126.2614990  78.1899997 107.9369992 126.5474990  77.4719997
 108.8060985 126.5767330  77.5077738 109.3419992 130.2644990  90.7809997
 108.7399992 129.7084990  90.2859997 109.6229992 130.9314990  90.1549997
 109.2975757 130.2785755  90.6285657  97.4639992 117.4974990  90.1879997
  96.5709992 117.8354990  90.1209997  97.3649992 116.6414990  90.6059997
  97.3285241 117.4280941  90.2352982 109.7519992 125.3134990  79.6119997
 109.4749992 124.5854990  80.1679997 110.6789992 125.4324990  79.8179997
 109.8394181 125.2300068  79.7158972  97.1149992 129.3014990  88.6229997
  97.3319992 128.3694990  88.5919997  97.3619992 129.5764990  89.5069997
  97.1780543 129.2110877  88.7381412 101.9139992 127.3234990  78.2889997
 102.0609992 126.8034990  79.0789997 101.9109992 128.2304990  78.5949997
 101.9337300 127.3748975  78.4385877 106.1979992 117.2384990  89.0779997
 106.8969992 117.3124990  89.7279997 105.8179992 116.3734990  89.2329997
 106.2422095 117.1317402  89.1877982 106.9829992 116.8904990  80.1749997
 107.2029992 117.3614990  79.3719997 107.5409992 117.2844990  80.8459997
 107.0885851 117.0083272  80.1556134 104.6519992 129.0204990  79.0379997
 103.8349992 129.5174990  79.0909997 105.1809992 129.4964990  78.3979997
 104.6117898 129.1528123  78.9587274 104.1829992 118.6184990  81.0099997
 104.9949992 119.1224990  81.0559997 103.9379992 118.4734990  81.9239997
 104.2611091 118.6679366  81.1398552 104.7189992 119.6044990  90.1949997
 104.8379992 120.1784990  90.9519997 105.3739992 118.9164990  90.3099997
 104.8238684 119.5900205  90.3141656 105.0669992 115.6994990  81.9479997
 104.7199992 116.3164990  82.5929997 105.7249992 116.2004990  81.4669997
 105.1085290 115.8516384  81.9711635 101.9899992 130.0644990  79.0199997
 102.1509992 130.8644990  78.5189997 101.7929992 130.3714990  79.9049997
 101.9853919 130.2154140  79.0710988 100.7239992 116.7624990  78.6359997
 100.6409992 117.6504990  78.9819997 101.6139992 116.4974990  78.8669997
 100.8329751 116.8482482  78.7146066 110.9229992 117.5114990  91.0299997
 110.0069992 117.7734990  90.9419997 111.2589992 117.5084990  90.1329997
 110.8429789 117.5469637  90.8967829 109.5249992 121.2614990  85.1259997
 108.7279992 120.8464990  84.7969997 109.9699992 120.5714990  85.6169997
 109.4760317 121.1113197  85.1473556  98.9829992 127.1894990  77.6959997
  99.5749992 127.8894990  77.9719997  99.4419992 126.7564990  76.9769997
  99.1261172 127.2267371  77.6365163 110.6119992 130.5174990  86.7479997
 110.4559992 131.1964990  86.0909997 111.5439992 130.5894990  86.9509997
 110.7167328 130.6201586  86.6855529  98.1069992 114.6354990  85.4849997
  97.8779992 114.6944990  84.5579997  97.6639992 113.8444990  85.7919997
  98.0157387 114.5366412  85.3995223  97.0369992 128.5764990  81.6459997
  96.2049992 129.0484990  81.6729997  97.5829992 129.0864990  81.0469997
  96.9968710 128.7100317  81.5687570  96.3259992 131.1884990  92.9759997
  96.8659992 130.9724990  93.7349997  95.8439992 130.3834990  92.7859997
  96.3349101 131.0500216  93.0544364 100.9229992 130.1084990  94.5959997
 101.6909992 129.6494990  94.9369997 100.9019992 129.8824990  93.6659997
 101.0252135 130.0151680  94.5169473 107.4999992 128.4884990  93.3249997
 107.1489992 127.6314990  93.5679997 108.2259992 128.6304990  93.9319997
 107.5501590 128.3905189  93.4402889  96.2329992 124.9994990  93.9299997
  96.3769992 124.0974990  93.6439997  95.4599992 125.2854990  93.4419997
  96.1482854 124.9146876  93.8249363 102.8879992 124.9684990  93.3629997
 102.5599992 125.2394990  92.5049997 103.0399992 124.0274990  93.2749997
 102.8636970 124.8783694  93.2337953 108.6229992 124.8844990  90.7459997
 109.3679992 125.4734990  90.6259997 107.8649992 125.4664990  90.8089997
 108.6225185 125.0437000  90.7380940  97.0649992 122.1994990  93.3499997
  97.4729992 121.3424990  93.2289997  96.8049992 122.2134990  94.2709997
  97.0857082 122.0840596  93.4579469 101.0119992 121.2084990  90.7239997
 100.3939992 121.8824990  91.0049997 101.3559992 121.5294990  89.8909997
 100.9738181 121.3443233  90.6498266 106.0319992 123.6794990  94.0019997
 106.9849992 123.7634990  93.9739997 105.8719992 122.9674990  94.6209997
 106.1408161 123.5947198  94.0818689 101.3519992 118.5634990  91.8069997
 101.5019992 117.8344990  91.2039997 101.3539992 119.3404990  91.2479997
 101.3727664 118.5688971  91.6490525 101.7639992 116.9324990  89.2989997
 102.2999992 117.3844990  88.6469997 100.9119992 116.8244990  88.8769997
 101.7221648 116.9797883  89.1526395 103.3459992 122.3724990  89.5389997
 104.0969992 122.2164990  88.9659997 103.0069992 123.2244990  89.2629997
 103.4029052 122.4662745  89.4233469 107.7619992 120.1874990  94.5669997
 107.9539992 119.2564990  94.4559997 108.6189992 120.6124990  94.5569997
 107.9042320 120.1174743  94.5504433 109.0779992 122.9764990  92.6449997
 108.7969992 123.6854990  92.0669997 110.0209992 122.9034990  92.4939997
 109.1669272 123.0636704  92.5454976  99.8299992 119.7614990  93.7179997
  99.0629992 119.2284990  93.5079997 100.5089992 119.4514990  93.1189997
  99.8168292 119.6466360  93.6082693 102.5699992 114.3894990  89.7309997
 102.4719992 115.3354990  89.6249997 101.8269992 114.0164990  89.2549997
 102.4562363 114.4685987  89.6522029 103.8339992 118.7104990  93.2939997
 103.5979992 118.4914990  94.1959997 103.0509992 118.5034990  92.7849997
 103.6958444 118.6525688  93.3484518 106.5499992 117.8384990  92.3699997
 105.6019992 117.8704990  92.5019997 106.8619992 117.2124990  93.0239997
 106.4625293 117.7582934  92.4764130 108.1839992 116.4724990  94.3749997
 108.0869992 115.5204990  94.3689997 107.8619992 116.7404990  95.2359997
 108.1272229 116.3784706  94.4905108  98.0109992 117.6814990  93.4229997
  98.2219992 116.9754990  92.8119997  97.8989992 117.2444990  94.2669997
  98.0247674 117.5256376  93.4534199 102.7919992 113.6834990  92.4019997
 103.5029992 113.0434990  92.3879997 102.6909992 113.9494990  91.4879997
 102.8756732 113.6318451  92.2765475 103.1449992 115.3654990  94.4559997
 103.0139992 114.8904990  93.6349997 102.5459992 116.1104990  94.3999997
 103.0461524 115.4011968  94.3361553  94.9089992 132.2784990  82.1919997
  94.2619992 131.8164990  81.6589997  95.2639992 131.6064990  82.7749997
  94.8683861 132.1244707  82.1977939  95.7789992 130.3584990  83.9969997
  95.4449992 129.4784990  84.1689997  96.0009992 130.7044990  84.8609997
  95.7632677 130.2847365  84.1374252 113.3279992 131.1684990  86.9769997
 113.3059992 131.3534990  87.9159997 114.0179992 131.7364990  86.6359997
 113.4183439 131.2706898  87.0594774 112.8909992 130.7354990  89.8989997
 112.4039992 129.9994990  89.5279997 113.4399992 130.3414990  90.5769997
 112.8986101 130.5816267  89.9399034 111.3419992 126.5254990  94.5369997
 110.4759992 126.4204990  94.9309997 111.7179992 127.2834990  94.9839997
 111.2743768 126.6136151  94.6513258 112.6429992 124.7814990  80.0509997
 113.4929992 125.2024990  80.1789997 112.6479992 124.0414990  80.6589997
 112.7599745 124.7391347  80.1506479 113.0369992 122.8354990  81.8749997
 112.3109992 122.3554990  82.2729997 113.6179992 123.0404990  82.6069997
 113.0162504 122.7975592  82.0284199 112.7959992 125.6204990  86.8229997
 113.6299992 125.2424990  86.5419997 112.9079992 126.5634990  86.7039997
 112.9251917 125.6962954  86.7684844 111.2819992 128.4984990  89.1299997
 110.6349992 128.8234990  89.7549997 110.7649992 128.0574990  88.4549997
 111.1234068 128.4834726  89.1244918 113.3049992 122.7364990  78.2659997
 112.7839992 123.0924990  77.5469997 113.2719992 123.4114990  78.9439997
 113.2291525 122.8765273  78.2591408 110.8239992 121.3564990  82.4379997
 110.6739992 120.4114990  82.4179997 110.4699992 121.6374990  83.2819997
 110.7556351 121.2651656  82.5493202  95.8589992 123.4344990  86.4479997
  96.0429992 123.3524990  85.5129997  96.7079992 123.3104990  86.8719997
  95.9990259 123.4064915  86.3771771 111.6799992 123.3264990  92.0769997
 112.2629992 122.5914990  92.2679997 112.2439992 124.0984990  92.1229997
 111.8360326 123.3302746  92.1093579 113.1769992 121.2294990  92.7609997
 112.3129992 120.8504990  92.5959997 113.7809992 120.4904990  92.6869997
 113.1404912 121.0777937  92.7284360 110.5339992 118.9384990  80.8999997
 110.8139992 118.0314990  81.0249997 111.2929992 119.3724990  80.5109997
 110.6749471 118.8730654  80.8645052 111.1459992 119.5204990  86.3359997
 112.0789992 119.7324990  86.3019997 110.9109992 119.6214990  87.2589997
 111.2418357 119.5631303  86.4560232 111.1749992 120.2574990  89.1119997
 110.3319992 120.5254990  89.4779997 111.6179992 121.0794990  88.9009997
 111.1194358 120.4053294  89.1335999  95.4559992 118.7044990  92.5889997
  96.3759992 118.5824990  92.8249997  95.0069992 117.9544990  92.9779997
  95.5211561 118.5863720  92.6739015 113.4579992 114.2374990  94.4659997
 113.8079992 113.5834990  93.8599997 113.6049992 115.0744990  94.0259997
 113.5257192 114.2612545  94.3236712 111.1479992 116.2014990  80.9489997
 111.3299992 115.7524990  81.7739997 110.5479992 115.6174990  80.4849997
 111.0918187 116.0610563  80.9992721  96.6779992 117.0174990  85.4799997
  97.1229992 116.2254990  85.7819997  97.1439992 117.7334990  85.9109997
  96.8019059 117.0059485  85.5796061  94.9819992 120.0164990  86.5489997
  95.4739992 119.7954990  85.7589997  95.3439992 120.8564990  86.8299997
  95.0983429 120.0998220  86.4787918 112.9779992 116.3464990  92.8149997
 112.0609992 116.6174990  92.7789997 113.1009992 115.8114990  92.0309997
 112.8690828 116.3112711  92.7040767  95.2949992 116.2744990  80.6039997
  94.3699992 116.4824990  80.4739997  95.7489992 116.7584990  79.9139997
  95.2297401 116.3683895  80.4929433 110.0659992 131.2584990  82.5489997
 110.7179992 130.9104990  81.9409997 110.5769992 131.7464990  83.1949997
 110.2242872 131.2768248  82.5530964  95.2589992 115.0124990  88.9479997
  94.5939992 114.7664990  89.5909997  94.8159992 115.6344990  88.3709997
  95.1081168 115.0629225  88.9579830  97.4509992 128.1874990  93.0919997
  96.6299992 128.3624990  92.6319997  97.1989992 128.1144990  94.0129997
  97.3046173 128.2015806  93.1534954 100.4049992 129.1614990  89.3509997
  99.9799992 129.9714990  89.0679997 101.3089992 129.2474990  89.0489997
 100.4691002 129.2838728  89.2714798 104.7159992 130.5604990  92.3099997
 104.9009992 130.2274990  93.1879997 105.5629992 130.8704990  91.9879997
 104.8557291 130.5568214  92.3866140 107.0609992 131.8464990  91.5539997
 107.7379992 131.2134990  91.3139997 107.3829992 132.2474990  92.3619997
 107.1971280 131.8140638  91.6303190 111.9789992 114.4364990  90.6339997
 111.1659992 114.7614990  90.2459997 112.2119992 113.6754990  90.1009997
 111.8992566 114.3781570  90.5089196  97.8069992 132.4184990  89.3979997
  97.0859992 132.8584990  88.9469997  97.4409992 132.1674990  90.2469997
  97.6589785 132.4447691  89.4509849 100.2739992 132.0184990  88.4279997
  99.4089992 132.0904990  88.8319997 100.2189992 132.5654990  87.6439997
 100.1482066 132.1022678  88.3773371 104.9849992 131.9064990  87.6039997
 104.5279992 132.4354990  86.9499997 105.1469992 132.5094990  88.3289997
 104.9443919 132.0603990  87.6125740 107.3119992 130.7844990  88.5489997
 106.4079992 130.9494990  88.2829997 107.7409992 131.6374990  88.4829997
 107.2462017 130.9224184  88.5036495 109.9159992 132.3544990  88.8439997
 109.7349992 133.2704990  88.6329997 110.0929992 131.9434990  87.9969997
 109.9151377 132.4243365  88.7007178  97.2219992 131.0414990  86.3089997
  97.2029992 130.6154990  87.1659997  98.0259992 130.7224990  85.8999997
  97.3281393 130.9400297  86.3710155  99.3629992 129.7514990  84.9639997
  99.1439992 128.8344990  85.1329997 100.1869992 129.8914990  85.4299997
  99.4444637 129.6449586  85.0501414 101.8999992 130.2214990  85.8119997
 102.1129992 129.3334990  85.5249997 101.9649992 130.1864990  86.7669997
 101.9379075 130.0953318  85.9017355 105.4089992 115.8854990  84.9569997
 104.7339992 115.2554990  85.2119997 105.9729992 115.4014990  84.3539997
 105.3929558 115.7339283  84.9103451 110.5509992 113.9924990  85.0689997
 111.1549992 114.5404990  84.5679997 109.6819992 114.3114990  84.8289997
 110.5161126 114.1107070  84.9679180 112.2779992 115.1314990  83.4029997
 112.8899992 114.6174990  82.8759997 112.6609992 116.0084990  83.4259997
 112.4133867 115.1797613  83.3340888  97.7349992 114.5194990  82.7789997
  96.9579992 114.2844990  82.2709997  98.2659992 113.7224990  82.7879997
  97.7004443 114.3796721  82.7107200  96.5719992 114.3174990  78.5819997
  97.0109992 114.9284990  77.9909997  95.9379992 114.8554990  79.0559997
  96.5464104 114.4739233  78.5651376 102.3149992 114.4454990  82.5919997
 103.1889992 114.8344990  82.5619997 102.1789992 114.2304990  83.5149997
 102.4163125 114.4697120  82.7126523 107.8709992 114.4754990  84.2409997
 107.9479992 114.5714990  83.2919997 107.5959992 113.5684990  84.3699997
 107.8443407 114.3659188  84.1283532 109.2249992 114.5014990  79.9339997
 108.5219992 115.1164990  79.7239997 108.7799992 113.6644990  80.0649997
 109.0686550 114.4724679  79.9229819  96.4729992 130.2654990  79.4799997
  95.7879992 130.2274990  78.8119997  96.4759992 131.1774990  79.7679997
  96.3797358 130.3836744  79.4276145 103.4589992 116.5264990  79.4819997
 103.6369992 115.8794990  80.1649997 103.4049992 117.3604990  79.9489997
 103.4760678 116.5506615  79.6386283 112.0459992 131.0374990  80.5569997
 111.8519992 130.2894990  79.9919997 112.0069992 131.7954990  79.9729997
 112.0141907 131.0375770  80.4008077  97.6929992 115.0334990  92.2959997
  97.3269992 114.2674990  92.7389997  98.6059992 115.0624990  92.5829997
  97.7663225 114.9326917  92.3953441  99.6659992 114.3834990  93.8319997
 100.5649992 114.1094990  93.6469997  99.2799992 113.6414990  94.2959997
  99.7367237 114.2456520  93.8694693 108.0869992 113.7164990  94.0139997
 108.1639992 113.2904990  94.8679997 108.9809992 113.7294990  93.6719997
 108.2183315 113.6600320  94.0845052 111.2639992 129.7884990  92.7069997
 110.4819992 129.6024990  92.1869997 111.1919992 130.7184990  92.9239997
 111.1472975 129.8886973  92.6651822 125.6699992 123.6754990  82.7369997
 125.7589992 124.6194990  82.6049997 125.0309992 123.4004990  82.0789997
 125.5958319 123.7674984  82.6300276 124.6029992 122.9304990  86.1559997
 124.5639992 122.2844990  86.8609997 124.2799992 122.4634990  85.3849997
 124.5540199 122.7790089  86.1482865 116.9709992 122.5444990  87.7489997
 117.0119992 121.9194990  88.4729997 117.6739992 123.1684990  87.9309997
 117.0716054 122.5433262  87.8726311 128.3089992 125.8694990  84.4579997
 127.8679992 125.1494990  84.9079997 128.2959992 126.5904990  85.0879997
 128.2468398 125.8683187  84.6047734 117.8949992 126.9944990  86.2839997
 117.5249992 126.1924990  85.9149997 118.8359992 126.8264990  86.3309997
 117.9715630 126.8618680  86.2397873 114.5049992 120.6544990  81.6769997
 114.0569992 121.5004990  81.6589997 113.9439992 120.0754990  81.1619997
 114.3678546 120.6919004  81.6048874 115.2149992 122.8164990  83.8029997
 115.4289992 122.0464990  84.3299997 115.9529992 122.9064990  83.1999997
 115.3440073 122.7233546  83.7935786 125.4199992 130.9734990  84.6699997
 126.0399992 130.2974990  84.3969997 125.2119992 130.7554990  85.5779997
 125.4767360 130.8514792  84.7554387 122.9919992 125.3624990  86.5619997
 123.2959992 124.6764990  85.9679997 123.7139992 125.4814990  87.1799997
 123.1311152 125.2847201  86.5642106 131.6549992 116.9644990  87.4229997
 131.7039992 117.5744990  88.1589997 132.0809992 117.4254990  86.6999997
 131.7192851 117.1103266  87.4260532 126.1329992 119.7564990  86.8899997
 126.2749992 118.8104990  86.9099997 126.0269992 119.9634990  85.9609997
 126.1381158 119.6549722  86.7672241 119.2879992 117.8584990  84.1619997
 119.3309992 118.7184990  83.7439997 118.8299992 117.3054990  83.5289997
 119.2319613 117.9015689  84.0191276 127.0099992 117.9894990  82.5629997
 127.6559992 117.6604990  83.1879997 127.5199992 118.5064990  81.9399997
 127.1674392 118.0143710  82.5643248 115.9079992 120.2554990  84.9239997
 116.5619992 119.7054990  85.3559997 115.9319992 119.9814990  84.0079997
 116.0007022 120.1432005  84.8591698 121.0639992 121.8054990  84.1399997
 121.6799992 121.2784990  84.6489997 120.4779992 121.1654990  83.7359997
 121.0690652 121.6468919  84.1550277 132.0469992 118.4424990  89.6589997
 131.3579992 119.1004990  89.5639997 132.0619992 118.2444990  90.5959997
 131.9547756 118.5057614  89.7725795 118.0979992 116.7764990  88.2359997
 117.8789992 117.3064990  87.4699997 117.4299992 117.0024990  88.8839997
 117.9777271 116.8796508  88.2186206 125.4669992 126.2764990  81.7799997
 125.1709992 125.9534990  80.9289997 125.1429992 127.1764990  81.8219997
 125.3826501 126.3539058  81.6690893 120.6669992 124.4514990  88.5239997
 119.9269992 125.0504990  88.6269997 121.3809992 125.0054990  88.2079997
 120.6623288 124.6082368  88.4953787 128.7739992 117.2804990  84.5439997
 128.5589992 116.5144990  85.0759997 129.4299992 117.7524990  85.0569997
 128.8332451 117.2394472  84.6861699 117.6919992 118.6684990  86.1889997
 118.3049992 119.3014990  86.5619997 118.2039992 118.1964990  85.5319997
 117.8451680 118.6914006  86.1512830 119.0739992 126.4164990  89.3109997
 119.0689992 127.2954990  88.9329997 118.2209992 126.3324990  89.7359997
 118.9579199 126.5255901  89.3166942 115.1959992 126.0874990  80.0929997
 114.9239992 126.3164990  79.2039997 115.2409992 126.9244990  80.5529997
 115.1648709 126.2321069  80.0336089 128.8209992 127.7084990  86.8059997
 127.8789992 127.7674990  86.9669997 129.0969992 128.6144990  86.6689997
 128.7295771 127.8390270  86.8094827 129.1209992 115.9954990  88.2229997
 128.3849992 116.6054990  88.1849997 129.8049992 116.4104990  87.6969997
 129.1125885 116.1351924  88.1466931 122.1239992 114.0814990  85.6889997
 122.0069992 113.1334990  85.6349997 121.2689992 114.4144990  85.9619997
 121.9923691 113.9965842  85.7185072 127.0729992 129.4894990  83.4309997
 127.4979992 128.7824990  82.9459997 127.3899992 130.2914990  83.0139997
 127.1740266 129.5010201  83.3082461 128.2319992 127.3904990  81.9399997
 127.9749992 126.7004990  81.3279997 128.3029992 126.9474990  82.7849997
 128.2064322 127.2361568  81.9705372 129.9179992 125.9574990  90.4169997
 130.0579992 125.3654990  89.6779997 130.0859992 126.8304990  90.0609997
 129.9598734 125.9944041  90.2676937 124.3909992 122.9194990  80.1889997
 123.6789992 123.4544990  79.8379997 125.0819992 122.9744990  79.5289997
 124.3868696 123.0002591  80.0516372 131.7599992 122.2974990  88.4829997
 131.1079992 122.9914990  88.5719997 132.2249992 122.5074990  87.6729997
 131.7335357 122.4209544  88.3857056 127.7969992 123.1284990  81.1409997
 127.0649992 123.3574990  81.7139997 128.2439992 122.4154990  81.5959997
 127.7572753 123.0633984  81.2809698 127.6939992 121.3034990  90.2089997
 127.7739992 122.0664990  90.7809997 127.0929992 121.5824990  89.5179997
 127.6237115 121.4457707  90.1939631 119.4419992 123.7594990  83.0239997
 119.1119992 123.3884990  82.2049997 120.0299992 123.0884990  83.3699997
 119.4764056 123.6181257  82.9589035 120.8089992 127.1874990  85.7049997
 120.7139992 126.6084990  84.9479997 121.5379992 126.8164990  86.2009997
 120.8946161 127.0580902  85.6685191 119.8089992 122.5274990  86.6569997
 120.3739992 122.6494990  85.8939997 120.1269992 123.1654990  87.2959997
 119.9293430 122.6304448  86.6389094 126.1179992 128.0314990  87.3909997
 125.8769992 128.6934990  88.0389997 125.9199992 127.1964990  87.8159997
 126.0582662 128.0092704  87.5371008 120.6889992 126.9274990  91.3739997
 120.3769992 127.7094990  91.8299997 120.0389992 126.7744990  90.6879997
 120.5584643 127.0138019  91.3436657 126.6679992 122.2914990  78.8259997
 127.2469992 122.4414990  79.5729997 127.0819992 122.7614990  78.1029997
 126.8033122 122.3756288  78.8305024 117.6089992 123.1254990  90.6029997
 117.6789992 123.7764990  91.3009997 116.7179992 123.2284990  90.2679997
 117.4981802 123.2284769  90.6532231 124.3939992 129.0274990  82.2619997
 124.8679992 129.3234990  83.0389997 123.8309992 129.7664990  82.0279997
 124.3828460 129.1678336  82.3367626 118.9279992 128.9984990  92.1379997
 118.9359992 128.8624990  91.1899997 118.0119992 128.8814990  92.3899997
 118.8052512 128.9640663  92.0423179 118.4319992 122.8284990  80.6129997
 118.1399992 123.5964990  80.1219997 117.7579992 122.1694990  80.4499997
 118.3008843 122.8444537  80.5237695 131.5559992 128.4074990  77.0159997
 131.6289992 129.3464990  77.1859997 132.4609992 128.1024990  76.9589997
 131.6884168 128.4948531  77.0315736 114.5249992 125.1914990  89.4279997
 114.0239992 125.1634990  88.6129997 114.5309992 124.2864990  89.7379997
 114.4571690 125.0652234  89.3582770 114.2759992 127.9724990  86.3119997
 115.2219992 127.8274990  86.2929997 114.1629992 128.7564990  86.8489997
 114.3903578 128.0586708  86.3820300 132.4729992 128.6384990  91.9939997
 132.4239992 127.6824990  91.9569997 131.6469992 128.9054990  92.3959997
 132.3545767 128.5438841  92.0433133 123.4519992 128.2124990  90.8699997
 123.5389992 129.0384990  91.3449997 122.5879992 127.8824990  91.1189997
 123.3471944 128.2809871  90.9686558 123.8659992 131.9844990  80.6759997
 123.7909992 131.8634990  79.7299997 123.8989992 132.9334990  80.7949997
 123.8601862 132.0962492  80.5624840 117.5199992 130.7734990  82.4569997
 117.6719992 130.4254990  83.3359997 116.6689992 130.4164990  82.2019997
 117.4257899 130.6776749  82.5427322 126.6369992 131.0644990  80.4279997
 125.7019992 131.1644990  80.6069997 126.9169992 130.3544990  81.0059997
 126.5469270 130.9822300  80.5305984 129.6249992 120.1314990  92.4739997
 129.2179992 120.6114990  91.7539997 129.6659992 119.2254990  92.1669997
 129.5747178 120.0748609  92.3337441 116.7739992 126.5154990  90.4709997
 116.9899992 126.1534990  91.3309997 115.9189992 126.1404990  90.2609997
 116.6879349 126.4152914  90.5602134 119.3929992 114.9854990  86.4669997
 118.5309992 114.8984990  86.0589997 119.3709992 115.8414990  86.8939997
 119.2720953 115.0893558  86.4689262 124.0559992 114.7074990  89.8409997
 124.4759992 114.2924990  90.5939997 123.1229992 114.5284990  89.9579997
 123.9873736 114.6264921  89.9598950 127.3819992 118.4624990  90.6949997
 126.8679992 118.3374990  91.4919997 127.2269992 119.3754990  90.4499997
 127.2906643 118.5687068  90.7710624 123.7179992 117.1994990  77.1259997
 123.4639992 117.2184990  78.0489997 123.4609992 116.3284990  76.8249997
 123.6485133 117.0843121  77.2115065 119.4839992 119.9504990  87.5619997
 118.8419992 119.9104990  88.2709997 119.5209992 120.8774990  87.3239997
 119.4011659 120.0702540  87.6268463 119.4809992 120.1714990  82.4739997
 118.5879992 119.8314990  82.4149997 119.9319992 119.7944990  81.7179997
 119.4197185 120.0740220  82.3637698 125.0169992 120.5874990  81.2909997
 124.6079992 121.4024990  80.9989997 125.7369992 120.4474990  80.6759997
 125.0583946 120.6799963  81.1679616 124.1189992 120.7634990  92.7789997
 123.5559992 120.0584990  93.0989997 124.9449992 120.6424990  93.2459997
 124.1536423 120.6505614  92.8860168 126.0209992 120.0334990  84.1049997
 125.8259992 120.6394990  83.3899997 126.2029992 119.2004990  83.6699997
 126.0189272 120.0037955  83.9484075 117.2339992 120.2714990  89.4289997
 117.1959992 120.6714990  90.2969997 116.7429992 119.4544990  89.5189997
 117.1624246 120.2158842  89.5601171 120.5999992 117.6454990  76.2269997
 120.1689992 117.2004990  76.9569997 119.8819992 118.0164990  75.7149997
 120.4439363 117.6347979  76.2576194 113.8419992 117.3874990  83.2789997
 114.4729992 117.3584990  83.9989997 114.2919992 116.9624990  82.5489997
 113.9890905 117.3260839  83.2787479 125.2849992 121.6714990  88.7759997
 125.6089992 121.0404990  88.1329997 124.8449992 121.1374990  89.4369997
 125.2698707 121.5128261  88.7773195 122.0629992 117.5994990  83.5599997
 121.1519992 117.6564990  83.8489997 122.5679992 117.5394990  84.3709997
 122.0066873 117.5991838  83.7091190 116.8909992 119.2284990  82.3869997
 116.0019992 119.3274990  82.0469997 117.1869992 118.3864990  82.0409997
 116.8094001 119.1282473  82.2937318 120.5439992 119.2284990  80.0429997
 121.4759992 119.3574990  80.2209997 120.3289992 119.8974990  79.3939997
 120.6424245 119.3366452  79.9795602 126.4679992 116.8344990  86.8239997
 125.7909992 116.9654990  87.4879997 125.9819992 116.6794990  86.0139997
 126.3097265 116.8314665  86.8053380 119.2179992 120.4224990  77.6099997
 118.6759992 120.0434990  76.9189997 120.0519992 120.6174990  77.1809997
 119.2564283 120.3969383  77.4574298 129.7549992 132.5054990  93.1009997
 129.9549992 132.9294990  92.2659997 130.4109992 132.8494990  93.7079997
 129.8709916 132.6099784  93.0687890 117.3529992 124.9794990  92.7089997
 118.0849992 125.2344990  93.2699997 116.5729992 125.1844990  93.2239997
 117.3477684 125.0421457  92.8554774 123.3829992 120.3864990  85.4469997
 123.9469992 119.8404990  84.8999997 123.2349992 119.8654990  86.2359997
 123.4403037 120.2411798  85.4787212 118.3849992 116.5234990  81.8649997
 118.0669992 115.6204990  81.8299997 119.1659992 116.5254990  81.3129997
 118.4471560 116.4001148  81.7854975 122.0089992 118.7754990  87.8609997
 121.1739992 119.2294990  87.9709997 122.5329992 119.0514990  88.6129997
 121.9655070 118.8749677  87.9777134 122.5529992 124.9884990  79.5459997
 121.8079992 124.4804990  79.2229997 122.4189992 125.0374990  80.4919997
 122.4328633 124.9255714  79.6297563 129.7029992 124.1214990  88.3319997
 130.3449992 124.5774990  87.7889997 128.8729992 124.2344990  87.8699997
 129.6787352 124.1993223  88.1950234 124.0729992 125.1724990  90.7829997
 123.7269992 124.7904990  91.5889997 123.8729992 126.1054990  90.8539997
 123.9985400 125.2463489  90.9030401 127.1689992 119.6694990  79.4059997
 128.0609992 119.5314990  79.7249997 127.2259992 120.4604990  78.8689997
 127.2987380 119.7574777  79.3770981 117.6779992 124.2834990  85.3149997
 118.4229992 124.2804990  84.7139997 117.7559992 123.4594990  85.7969997
 117.7904158 124.1717928  85.2979136 124.6789992 126.4464990  78.5709997
 124.3839992 127.2734990  78.9529997 123.9759992 125.8274990  78.7669997
 124.5435855 126.4759458  78.6497634 114.6859992 122.7434990  90.6299997
 114.9089992 122.3254990  91.4619997 114.0839992 122.1314990  90.2079997
 114.6350802 122.6035216  90.6867561 121.7029992 122.2604990  92.8429997
 121.4069992 122.0954990  91.9479997 122.6339992 122.0404990  92.8329997
 121.7883909 122.2081274  92.7190110 126.3229992 127.6344990  90.7329997
 125.4219992 127.8174990  90.4649997 126.3569992 127.8934990  91.6539997
 126.2043021 127.6945505  90.8208206 132.0539992 119.8784990  79.0999997
 131.4999992 119.4824990  78.4279997 132.1549992 120.7894990  78.8229997
 131.9917084 119.9473565  78.9704381 132.0169992 125.6794990  91.9369997
 131.1659992 125.9174990  91.5699997 132.6079992 125.6624990  91.1839997
 131.9802468 125.7098251  91.7848902 130.3489992 128.6644990  79.5649997
 129.9769992 127.8394990  79.8749997 130.6269992 128.4814990  78.6679997
 130.3355997 128.5266160  79.4861551 127.5099992 123.4724990  86.5869997
 126.5819992 123.2414990  86.5599997 127.9609992 122.6954990  86.2569997
 127.4438165 123.3357785  86.5386772 120.0529992 127.8014990  82.7199997
 120.5799992 128.5744990  82.5189997 119.1729992 128.0254990  82.4179997
 120.0061793 127.9376652  82.6516304 121.4799992 125.4644990  82.2959997
 121.2389992 126.3894990  82.3379997 120.7399992 125.0054990  82.6919997
 121.3468934 125.5290881  82.3553191 121.9949992 129.6134990  88.6109997
 122.3579992 130.4674990  88.3779997 122.5269992 129.3214990  89.3519997
 122.1165141 129.6908907  88.6792079 120.1629992 130.4854990  81.8409997
 119.2139992 130.5914990  81.8929997 120.5149992 131.3064990  82.1859997
 120.0806214 130.6109361  81.8947317 125.5389992 125.7124990  88.3119997
 125.1129992 125.4844990  89.1379997 126.1199992 124.9734990  88.1289997
 125.5591587 125.5814084  88.4004111 128.1979992 130.2644990  90.7809997
 127.5959992 129.7084990  90.2859997 128.4789992 130.9314990  90.1549997
 128.1535757 130.2785755  90.6285657 132.2449992 131.1204990  77.5869997
 132.9889992 131.7064990  77.4469997 131.5509992 131.6894990  77.9199997
 132.2529809 131.2775830  77.6128572 116.3199992 117.4974990  90.1879997
 115.4269992 117.8354990  90.1209997 116.2209992 116.6414990  90.6059997
 116.1845241 117.4280941  90.2352982 128.6079992 125.3134990  79.6119997
 128.3309992 124.5854990  80.1679997 129.5349992 125.4324990  79.8179997
 128.6954181 125.2300068  79.7158972 115.9709992 129.3014990  88.6229997
 116.1879992 128.3694990  88.5919997 116.2179992 129.5764990  89.5069997
 116.0340543 129.2110877  88.7381412 120.7699992 127.3234990  78.2889997
 120.9169992 126.8034990  79.0789997 120.7669992 128.2304990  78.5949997
 120.7897300 127.3748975  78.4385877 117.2229992 124.5754990  78.7989997
 116.5369992 124.9284990  79.3659997 117.7459992 125.3384990  78.5529997
 117.1999033 124.7268757  78.8432644 125.0539992 117.2384990  89.0779997
 125.7529992 117.3124990  89.7279997 124.6739992 116.3734990  89.2329997
 125.0982095 117.1317402  89.1877982 125.8389992 116.8904990  80.1749997
 126.0589992 117.3614990  79.3719997 126.3969992 117.2844990  80.8459997
 125.9445851 117.0083272  80.1556134 123.0389992 118.6184990  81.0099997
 123.8509992 119.1224990  81.0559997 122.7939992 118.4734990  81.9239997
 123.1171091 118.6679366  81.1398552 123.5749992 119.6044990  90.1949997
 123.6939992 120.1784990  90.9519997 124.2299992 118.9164990  90.3099997
 123.6798684 119.5900205  90.3141656 123.9229992 115.6994990  81.9479997
 123.5759992 116.3164990  82.5929997 124.5809992 116.2004990  81.4669997
 123.9645290 115.8516384  81.9711635 119.5799992 116.7624990  78.6359997
 119.4969992 117.6504990  78.9819997 120.4699992 116.4974990  78.8669997
 119.6889751 116.8482482  78.7146066 129.7789992 117.5114990  91.0299997
 128.8629992 117.7734990  90.9419997 130.1149992 117.5084990  90.1329997
 129.6989789 117.5469637  90.8967829 128.3809992 121.2614990  85.1259997
 127.5839992 120.8464990  84.7969997 128.8259992 120.5714990  85.6169997
 128.3320317 121.1113197  85.1473556 117.8389992 127.1894990  77.6959997
 118.4309992 127.8894990  77.9719997 118.2979992 126.7564990  76.9769997
 117.9821172 127.2267371  77.6365163 116.1549992 119.8544990  76.8119997
 116.1099992 120.7934990  76.9909997 115.2669992 119.6184990  76.5419997
 116.0288472 119.9511946  76.8000282 129.4679992 130.5174990  86.7479997
 129.3119992 131.1964990  86.0909997 130.3999992 130.5894990  86.9509997
 129.5727328 130.6201586  86.6855529 116.9629992 114.6354990  85.4849997
 116.7339992 114.6944990  84.5579997 116.5199992 113.8444990  85.7919997
 116.8717387 114.5366412  85.3995223 115.8929992 128.5764990  81.6459997
 115.0609992 129.0484990  81.6729997 116.4389992 129.0864990  81.0469997
 115.8528710 128.7100317  81.5687570 115.1819992 131.1884990  92.9759997
 115.7219992 130.9724990  93.7349997 114.6999992 130.3834990  92.7859997
 115.1909101 131.0500216  93.0544364 119.7789992 130.1084990  94.5959997
 120.5469992 129.6494990  94.9369997 119.7579992 129.8824990  93.6659997
 119.8812135 130.0151680  94.5169473 126.3559992 128.4884990  93.3249997
 126.0049992 127.6314990  93.5679997 127.0819992 128.6304990  93.9319997
 126.4061590 128.3905189  93.4402889 115.0889992 124.9994990  93.9299997
 115.2329992 124.0974990  93.6439997 114.3159992 125.2854990  93.4419997
 115.0042854 124.9146876  93.8249363 121.7439992 124.9684990  93.3629997
 121.4159992 125.2394990  92.5049997 121.8959992 124.0274990  93.2749997
 121.7196970 124.8783694  93.2337953 127.4789992 124.8844990  90.7459997
 128.2239992 125.4734990  90.6259997 126.7209992 125.4664990  90.8089997
 127.4785185 125.0437000  90.7380940 115.9209992 122.1994990  93.3499997
 116.3289992 121.3424990  93.2289997 115.6609992 122.2134990  94.2709997
 115.9417082 122.0840596  93.4579469 120.5789992 123.3154990  78.3679997
 120.1199992 122.8314990  79.0539997 120.8339992 122.6464990  77.7319997
 120.5506178 123.1588511  78.3759785 119.8679992 121.2084990  90.7239997
 119.2499992 121.8824990  91.0049997 120.2119992 121.5294990  89.8909997
 119.8298181 121.3443233  90.6498266 124.8879992 123.6794990  94.0019997
 125.8409992 123.7634990  93.9739997 124.7279992 122.9674990  94.6209997
 124.9968161 123.5947198  94.0818689 120.2079992 118.5634990  91.8069997
 120.3579992 117.8344990  91.2039997 120.2099992 119.3404990  91.2479997
 120.2287664 118.5688971  91.6490525 120.6199992 116.9324990  89.2989997
 121.1559992 117.3844990  88.6469997 119.7679992 116.8244990  88.8769997
 120.5781648 116.9797883  89.1526395 122.2019992 122.3724990  89.5389997
 122.9529992 122.2164990  88.9659997 121.8629992 123.2244990  89.2629997
 122.2589052 122.4662745  89.4233469 126.6179992 120.1874990  94.5669997
 126.8099992 119.2564990  94.4559997 127.4749992 120.6124990  94.5569997
 126.7602320 120.1174743  94.5504433 127.9339992 122.9764990  92.6449997
 127.6529992 123.6854990  92.0669997 128.8769992 122.9034990  92.4939997
 128.0229272 123.0636704  92.5454976 118.6859992 119.7614990  93.7179997
 117.9189992 119.2284990  93.5079997 119.3649992 119.4514990  93.1189997
 118.6728292 119.6466360  93.6082693 121.4259992 114.3894990  89.7309997
 121.3279992 115.3354990  89.6249997 120.6829992 114.0164990  89.2549997
 121.3122363 114.4685987  89.6522029 122.6899992 118.7104990  93.2939997
 122.4539992 118.4914990  94.1959997 121.9069992 118.5034990  92.7849997
 122.5518444 118.6525688  93.3484518 125.4059992 117.8384990  92.3699997
 124.4579992 117.8704990  92.5019997 125.7179992 117.2124990  93.0239997
 125.3185293 117.7582934  92.4764130 127.0399992 116.4724990  94.3749997
 126.9429992 115.5204990  94.3689997 126.7179992 116.7404990  95.2359997
 126.9832229 116.3784706  94.4905108 116.8669992 117.6814990  93.4229997
 117.0779992 116.9754990  92.8119997 116.7549992 117.2444990  94.2669997
 116.8807674 117.5256376  93.4534199 121.6479992 113.6834990  92.4019997
 122.3589992 113.0434990  92.3879997 121.5469992 113.9494990  91.4879997
 121.7316732 113.6318451  92.2765475 122.0009992 115.3654990  94.4559997
 121.8699992 114.8904990  93.6349997 121.4019992 116.1104990  94.3999997
 121.9021524 115.4011968  94.3361553 113.7649992 132.2784990  82.1919997
 113.1179992 131.8164990  81.6589997 114.1199992 131.6064990  82.7749997
 113.7243861 132.1244707  82.1977939 114.6349992 130.3584990  83.9969997
 114.3009992 129.4784990  84.1689997 114.8569992 130.7044990  84.8609997
 114.6192677 130.2847366  84.1374252 132.1839992 131.1684990  86.9769997
 132.1619992 131.3534990  87.9159997 132.8739992 131.7364990  86.6359997
 132.2743439 131.2706898  87.0594774 131.7469992 130.7354990  89.8989997
 131.2599992 129.9994990  89.5279997 132.2959992 130.3414990  90.5769997
 131.7546101 130.5816267  89.9399034 130.1979992 126.5254990  94.5369997
 129.3319992 126.4204990  94.9309997 130.5739992 127.2834990  94.9839997
 130.1303768 126.6136151  94.6513258 131.4989992 124.7814990  80.0509997
 132.3489992 125.2024990  80.1789997 131.5039992 124.0414990  80.6589997
 131.6159745 124.7391347  80.1506479 131.8929992 122.8354990  81.8749997
 131.1669992 122.3554990  82.2729997 132.4739992 123.0404990  82.6069997
 131.8722504 122.7975592  82.0284199 131.6519992 125.6204990  86.8229997
 132.4859992 125.2424990  86.5419997 131.7639992 126.5634990  86.7039997
 131.7811917 125.6962954  86.7684844 130.1379992 128.4984990  89.1299997
 129.4909992 128.8234990  89.7549997 129.6209992 128.0574990  88.4549997
 129.9794068 128.4834726  89.1244918 129.6799992 121.3564990  82.4379997
 129.5299992 120.4114990  82.4179997 129.3259992 121.6374990  83.2819997
 129.6116351 121.2651656  82.5493202 114.7149992 123.4344990  86.4479997
 114.8989992 123.3524990  85.5129997 115.5639992 123.3104990  86.8719997
 114.8550259 123.4064915  86.3771771 130.5359992 123.3264990  92.0769997
 131.1189992 122.5914990  92.2679997 131.0999992 124.0984990  92.1229997
 130.6920326 123.3302746  92.1093579 132.0329992 121.2294990  92.7609997
 131.1689992 120.8504990  92.5959997 132.6369992 120.4904990  92.6869997
 131.9964912 121.0777937  92.7284360 129.3899992 118.9384990  80.8999997
 129.6699992 118.0314990  81.0249997 130.1489992 119.3724990  80.5109997
 129.5309471 118.8730654  80.8645051 130.0019992 119.5204990  86.3359997
 130.9349992 119.7324990  86.3019997 129.7669992 119.6214990  87.2589997
 130.0978357 119.5631303  86.4560232 130.0309992 120.2574990  89.1119997
 129.1879992 120.5254990  89.4779997 130.4739992 121.0794990  88.9009997
 129.9754358 120.4053294  89.1335999 114.3119992 118.7044990  92.5889997
 115.2319992 118.5824990  92.8249997 113.8629992 117.9544990  92.9779997
 114.3771561 118.5863720  92.6739015 132.3139992 114.2374990  94.4659997
 132.6639992 113.5834990  93.8599997 132.4609992 115.0744990  94.0259997
 132.3817192 114.2612545  94.3236712 130.0039992 116.2014990  80.9489997
 130.1859992 115.7524990  81.7739997 129.4039992 115.6174990  80.4849997
 129.9478187 116.0610563  80.9992721 115.5339992 117.0174990  85.4799997
 115.9789992 116.2254990  85.7819997 115.9999992 117.7334990  85.9109997
 115.6579059 117.0059485  85.5796061 113.8379992 120.0164990  86.5489997
 114.3299992 119.7954990  85.7589997 114.1999992 120.8564990  86.8299997
 113.9543428 120.0998220  86.4787918 131.8339992 116.3464990  92.8149997
 130.9169992 116.6174990  92.7789997 131.9569992 115.8114990  92.0309997
 131.7250828 116.3112711  92.7040767 131.8699992 116.2694990  77.4769997
 132.2829992 115.5484990  77.0009997 132.5519992 116.9384990  77.5349997
 132.0185712 116.2614304  77.4198247 114.1509992 116.2744990  80.6039997
 113.2259992 116.4824990  80.4739997 114.6049992 116.7584990  79.9139997
 114.0857401 116.3683895  80.4929433 128.9219992 131.2584990  82.5489997
 129.5739992 130.9104990  81.9409997 129.4329992 131.7464990  83.1949997
 129.0802872 131.2768248  82.5530964 114.1149992 115.0124990  88.9479997
 113.4499992 114.7664990  89.5909997 113.6719992 115.6344990  88.3709997
 113.9641168 115.0629225  88.9579830 116.3069992 128.1874990  93.0919997
 115.4859992 128.3624990  92.6319997 116.0549992 128.1144990  94.0129997
 116.1606173 128.2015806  93.1534954 119.2609992 129.1614990  89.3509997
 118.8359992 129.9714990  89.0679997 120.1649992 129.2474990  89.0489997
 119.3251002 129.2838728  89.2714798 123.5719992 130.5604990  92.3099997
 123.7569992 130.2274990  93.1879997 124.4189992 130.8704990  91.9879997
 123.7117291 130.5568214  92.3866140 125.9169992 131.8464990  91.5539997
 126.5939992 131.2134990  91.3139997 126.2389992 132.2474990  92.3619997
 126.0531280 131.8140638  91.6303190 130.8349992 114.4364990  90.6339997
 130.0219992 114.7614990  90.2459997 131.0679992 113.6754990  90.1009997
 130.7552566 114.3781570  90.5089196 116.6629992 132.4184990  89.3979997
 115.9419992 132.8584990  88.9469997 116.2969992 132.1674990  90.2469997
 116.5149785 132.4447691  89.4509849 119.1299992 132.0184990  88.4279997
 118.2649992 132.0904990  88.8319997 119.0749992 132.5654990  87.6439997
 119.0042066 132.1022678  88.3773371 123.8409992 131.9064990  87.6039997
 123.3839992 132.4354990  86.9499997 124.0029992 132.5094990  88.3289997
 123.8003919 132.0603990  87.6125740 126.1679992 130.7844990  88.5489997
 125.2639992 130.9494990  88.2829997 126.5969992 131.6374990  88.4829997
 126.1022017 130.9224184  88.5036495 128.7719992 132.3544990  88.8439997
 128.5909992 133.2704990  88.6329997 128.9489992 131.9434990  87.9969997
 128.7711377 132.4243365  88.7007178 116.0779992 131.0414990  86.3089997
 116.0589992 130.6154990  87.1659997 116.8819992 130.7224990  85.8999997
 116.1841393 130.9400297  86.3710155 118.2189992 129.7514990  84.9639997
 117.9999992 128.8344990  85.1329997 119.0429992 129.8914990  85.4299997
 118.3004637 129.6449586  85.0501414 120.7559992 130.2214990  85.8119997
 120.9689992 129.3334990  85.5249997 120.8209992 130.1864990  86.7669997
 120.7939075 130.0953318  85.9017355 124.2649992 115.8854990  84.9569997
 123.5899992 115.2554990  85.2119997 124.8289992 115.4014990  84.3539997
 124.2489558 115.7339283  84.9103451 129.4069992 113.9924990  85.0689997
 130.0109992 114.5404990  84.5679997 128.5379992 114.3114990  84.8289997
 129.3721126 114.1107070  84.9679180 131.1339992 115.1314990  83.4029997
 131.7459992 114.6174990  82.8759997 131.5169992 116.0084990  83.4259997
 131.2693867 115.1797613  83.3340888 116.5909992 114.5194990  82.7789997
 115.8139992 114.2844990  82.2709997 117.1219992 113.7224990  82.7879997
 116.5564443 114.3796721  82.7107200 115.4279992 114.3174990  78.5819997
 115.8669992 114.9284990  77.9909997 114.7939992 114.8554990  79.0559997
 115.4024104 114.4739233  78.5651376 121.1709992 114.4454990  82.5919997
 122.0449992 114.8344990  82.5619997 121.0349992 114.2304990  83.5149997
 121.2723125 114.4697120  82.7126523 126.7269992 114.4754990  84.2409997
 126.8039992 114.5714990  83.2919997 126.4519992 113.5684990  84.3699997
 126.7003407 114.3659188  84.1283532 128.0809992 114.5014990  79.9339997
 127.3779992 115.1164990  79.7239997 127.6359992 113.6644990  80.0649997
 127.9246550 114.4724679  79.9229819 115.3289992 130.2654990  79.4799997
 114.6439992 130.2274990  78.8119997 115.3319992 131.1774990  79.7679997
 115.2357358 130.3836744  79.4276145 122.3149992 116.5264990  79.4819997
 122.4929992 115.8794990  80.1649997 122.2609992 117.3604990  79.9489997
 122.3320678 116.5506615  79.6386283 130.9019992 131.0374990  80.5569997
 130.7079992 130.2894990  79.9919997 130.8629992 131.7954990  79.9729997
 130.8701907 131.0375770  80.4008077 116.5489992 115.0334990  92.2959997
 116.1829992 114.2674990  92.7389997 117.4619992 115.0624990  92.5829997
 116.6223225 114.9326917  92.3953441 118.5219992 114.3834990  93.8319997
 119.4209992 114.1094990  93.6469997 118.1359992 113.6414990  94.2959997
 118.5927237 114.2456520  93.8694693 126.9429992 113.7164990  94.0139997
 127.0199992 113.2904990  94.8679997 127.8369992 113.7294990  93.6719997
 127.0743315 113.6600320  94.0845052 130.1199992 129.7884990  92.7069997
 129.3379992 129.6024990  92.1869997 130.0479992 130.7184990  92.9239997
 130.0032975 129.8886973  92.6651822 135.8269992 122.5444990  87.7489997
 135.8679992 121.9194990  88.4729997 136.5299992 123.1684990  87.9309997
 135.9276054 122.5433262  87.8726311 136.7509992 126.9944990  86.2839997
 136.3809992 126.1924990  85.9149997 137.6919992 126.8264990  86.3309997
 136.8275630 126.8618680  86.2397873 133.3609992 120.6544990  81.6769997
 132.9129992 121.5004990  81.6589997 132.7999992 120.0754990  81.1619997
 133.2238546 120.6919004  81.6048874 134.0709992 122.8164990  83.8029997
 134.2849992 122.0464990  84.3299997 134.8089992 122.9064990  83.1999997
 134.2000073 122.7233546  83.7935786 138.1439992 117.8584990  84.1619997
 138.1869992 118.7184990  83.7439997 137.6859992 117.3054990  83.5289997
 138.0879613 117.9015689  84.0191276 134.7639992 120.2554990  84.9239997
 135.4179992 119.7054990  85.3559997 134.7879992 119.9814990  84.0079997
 134.8567022 120.1432005  84.8591698 136.9539992 116.7764990  88.2359997
 136.7349992 117.3064990  87.4699997 136.2859992 117.0024990  88.8839997
 136.8337271 116.8796508  88.2186206 139.5229992 124.4514990  88.5239997
 138.7829992 125.0504990  88.6269997 140.2369992 125.0054990  88.2079997
 139.5183288 124.6082368  88.4953787 136.5479992 118.6684990  86.1889997
 137.1609992 119.3014990  86.5619997 137.0599992 118.1964990  85.5319997
 136.7011680 118.6914006  86.1512830 137.9299992 126.4164990  89.3109997
 137.9249992 127.2954990  88.9329997 137.0769992 126.3324990  89.7359997
 137.8139199 126.5255901  89.3166942 134.0519992 126.0874990  80.0929997
 133.7799992 126.3164990  79.2039997 134.0969992 126.9244990  80.5529997
 134.0208709 126.2321069  80.0336089 138.2979992 123.7594990  83.0239997
 137.9679992 123.3884990  82.2049997 138.8859992 123.0884990  83.3699997
 138.3324056 123.6181257  82.9589035 138.6649992 122.5274990  86.6569997
 139.2299992 122.6494990  85.8939997 138.9829992 123.1654990  87.2959997
 138.7853430 122.6304448  86.6389094 139.5449992 126.9274990  91.3739997
 139.2329992 127.7094990  91.8299997 138.8949992 126.7744990  90.6879997
 139.4144643 127.0138019  91.3436657 136.4649992 123.1254990  90.6029997
 136.5349992 123.7764990  91.3009997 135.5739992 123.2284990  90.2679997
 136.3541802 123.2284769  90.6532231 137.7839992 128.9984990  92.1379997
 137.7919992 128.8624990  91.1899997 136.8679992 128.8814990  92.3899997
 137.6612512 128.9640663  92.0423179 137.2879992 122.8284990  80.6129997
 136.9959992 123.5964990  80.1219997 136.6139992 122.1694990  80.4499997
 137.1568843 122.8444537  80.5237695 133.3809992 125.1914990  89.4279997
 132.8799992 125.1634990  88.6129997 133.3869992 124.2864990  89.7379997
 133.3131690 125.0652234  89.3582770 133.1319992 127.9724990  86.3119997
 134.0779992 127.8274990  86.2929997 133.0189992 128.7564990  86.8489997
 133.2463578 128.0586708  86.3820300 136.3759992 130.7734990  82.4569997
 136.5279992 130.4254990  83.3359997 135.5249992 130.4164990  82.2019997
 136.2817899 130.6776749  82.5427322 135.6299992 126.5154990  90.4709997
 135.8459992 126.1534990  91.3309997 134.7749992 126.1404990  90.2609997
 135.5439349 126.4152914  90.5602134 138.2489992 114.9854990  86.4669997
 137.3869992 114.8984990  86.0589997 138.2269992 115.8414990  86.8939997
 138.1280953 115.0893558  86.4689262 138.3399992 119.9504990  87.5619997
 137.6979992 119.9104990  88.2709997 138.3769992 120.8774990  87.3239997
 138.2571659 120.0702540  87.6268463 138.3369992 120.1714990  82.4739997
 137.4439992 119.8314990  82.4149997 138.7879992 119.7944990  81.7179997
 138.2757185 120.0740220  82.3637698 136.0899992 120.2714990  89.4289997
 136.0519992 120.6714990  90.2969997 135.5989992 119.4544990  89.5189997
 136.0184246 120.2158842  89.5601171 132.6979992 117.3874990  83.2789997
 133.3289992 117.3584990  83.9989997 133.1479992 116.9624990  82.5489997
 132.8450905 117.3260839  83.2787479 133.9719992 118.1334990  78.7029997
 134.4469992 118.7244990  78.1179997 133.2549992 118.6634990  79.0499997
 133.9400406 118.2861011  78.6698495 135.7469992 119.2284990  82.3869997
 134.8579992 119.3274990  82.0469997 136.0429992 118.3864990  82.0409997
 135.6654001 119.1282473  82.2937318 139.3999992 119.2284990  80.0429997
 140.3319992 119.3574990  80.2209997 139.1849992 119.8974990  79.3939997
 139.4984245 119.3366452  79.9795602 136.2089992 124.9794990  92.7089997
 136.9409992 125.2344990  93.2699997 135.4289992 125.1844990  93.2239997
 136.2037684 125.0421457  92.8554774 137.2409992 116.5234990  81.8649997
 136.9229992 115.6204990  81.8299997 138.0219992 116.5254990  81.3129997
 137.3031560 116.4001148  81.7854975 136.5339992 124.2834990  85.3149997
 137.2789992 124.2804990  84.7139997 136.6119992 123.4594990  85.7969997
 136.6464158 124.1717928  85.2979136 133.5419992 122.7434990  90.6299997
 133.7649992 122.3254990  91.4619997 132.9399992 122.1314990  90.2079997
 133.4910802 122.6035216  90.6867561 138.9089992 127.8014990  82.7199997
 139.4359992 128.5744990  82.5189997 138.0289992 128.0254990  82.4179997
 138.8621793 127.9376652  82.6516304 134.6639992 122.6634990  77.3069997
 135.2799992 123.2904990  77.6859997 133.8019992 122.9794990  77.5779997
 134.6318195 122.7920810  77.3955369 139.0189992 130.4854990  81.8409997
 138.0699992 130.5914990  81.8929997 139.3709992 131.3064990  82.1859997
 138.9366214 130.6109361  81.8947317 135.1759992 117.4974990  90.1879997
 134.2829992 117.8354990  90.1209997 135.0769992 116.6414990  90.6059997
 135.0405241 117.4280941  90.2352982 134.8269992 129.3014990  88.6229997
 135.0439992 128.3694990  88.5919997 135.0739992 129.5764990  89.5069997
 134.8900543 129.2110877  88.7381412 135.8189992 114.6354990  85.4849997
 135.5899992 114.6944990  84.5579997 135.3759992 113.8444990  85.7919997
 135.7277387 114.5366412  85.3995223 134.7489992 128.5764990  81.6459997
 133.9169992 129.0484990  81.6729997 135.2949992 129.0864990  81.0469997
 134.7088710 128.7100317  81.5687570 134.0379992 131.1884990  92.9759997
 134.5779992 130.9724990  93.7349997 133.5559992 130.3834990  92.7859997
 134.0469101 131.0500216  93.0544364 138.6349992 130.1084990  94.5959997
 139.4029992 129.6494990  94.9369997 138.6139992 129.8824990  93.6659997
 138.7372135 130.0151680  94.5169473 133.9449992 124.9994990  93.9299997
 134.0889992 124.0974990  93.6439997 133.1719992 125.2854990  93.4419997
 133.8602854 124.9146876  93.8249363 134.7769992 122.1994990  93.3499997
 135.1849992 121.3424990  93.2289997 134.5169992 122.2134990  94.2709997
 134.7977082 122.0840596  93.4579469 139.4349992 123.3154990  78.3679997
 138.9759992 122.8314990  79.0539997 139.6899992 122.6464990  77.7319997
 139.4066178 123.1588511  78.3759785 138.7239992 121.2084990  90.7239997
 138.1059992 121.8824990  91.0049997 139.0679992 121.5294990  89.8909997
 138.6858181 121.3443233  90.6498266 139.0639992 118.5634990  91.8069997
 139.2139992 117.8344990  91.2039997 139.0659992 119.3404990  91.2479997
 139.0847664 118.5688971  91.6490525 139.4759992 116.9324990  89.2989997
 140.0119992 117.3844990  88.6469997 138.6239992 116.8244990  88.8769997
 139.4341648 116.9797883  89.1526395 137.5419992 119.7614990  93.7179997
 136.7749992 119.2284990  93.5079997 138.2209992 119.4514990  93.1189997
 137.5288292 119.6466360  93.6082693 135.7229992 117.6814990  93.4229997
 135.9339992 116.9754990  92.8119997 135.6109992 117.2444990  94.2669997
 135.7367674 117.5256376  93.4534199 132.6209992 132.2784990  82.1919997
 131.9739992 131.8164990  81.6589997 132.9759992 131.6064990  82.7749997
 132.5803861 132.1244707  82.1977939 133.4909992 130.3584990  83.9969997
 133.1569992 129.4784990  84.1689997 133.7129992 130.7044990  84.8609997
 133.4752677 130.2847366  84.1374252 133.5709992 123.4344990  86.4479997
 133.7549992 123.3524990  85.5129997 134.4199992 123.3104990  86.8719997
 133.7110259 123.4064915  86.3771771 133.1679992 118.7044990  92.5889997
 134.0879992 118.5824990  92.8249997 132.7189992 117.9544990  92.9779997
 133.2331561 118.5863720  92.6739015 134.3899992 117.0174990  85.4799997
 134.8349992 116.2254990  85.7819997 134.8559992 117.7334990  85.9109997
 134.5139059 117.0059485  85.5796061 132.6939992 120.0164990  86.5489997
 133.1859992 119.7954990  85.7589997 133.0559992 120.8564990  86.8299997
 132.8103428 120.0998220  86.4787918 133.0069992 116.2744990  80.6039997
 132.0819992 116.4824990  80.4739997 133.4609992 116.7584990  79.9139997
 132.9417401 116.3683895  80.4929433 132.9709992 115.0124990  88.9479997
 132.3059992 114.7664990  89.5909997 132.5279992 115.6344990  88.3709997
 132.8201168 115.0629225  88.9579830 135.1629992 128.1874990  93.0919997
 134.3419992 128.3624990  92.6319997 134.9109992 128.1144990  94.0129997
 135.0166173 128.2015806  93.1534954 138.1169992 129.1614990  89.3509997
 137.6919992 129.9714990  89.0679997 139.0209992 129.2474990  89.0489997
 138.1811002 129.2838728  89.2714798 135.5189992 132.4184990  89.3979997
 134.7979992 132.8584990  88.9469997 135.1529992 132.1674990  90.2469997
 135.3709785 132.4447691  89.4509849 137.9859992 132.0184990  88.4279997
 137.1209992 132.0904990  88.8319997 137.9309992 132.5654990  87.6439997
 137.8602066 132.1022678  88.3773371 134.9339992 131.0414990  86.3089997
 134.9149992 130.6154990  87.1659997 135.7379992 130.7224990  85.8999997
 135.0401393 130.9400297  86.3710155 137.0749992 129.7514990  84.9639997
 136.8559992 128.8344990  85.1329997 137.8989992 129.8914990  85.4299997
 137.1564637 129.6449586  85.0501414 135.4469992 114.5194990  82.7789997
 134.6699992 114.2844990  82.2709997 135.9779992 113.7224990  82.7879997
 135.4124443 114.3796721  82.7107200 134.2839992 114.3174990  78.5819997
 134.7229992 114.9284990  77.9909997 133.6499992 114.8554990  79.0559997
 134.2584103 114.4739233  78.5651376 134.1849992 130.2654990  79.4799997
 133.4999992 130.2274990  78.8119997 134.1879992 131.1774990  79.7679997
 134.0917358 130.3836744  79.4276145 135.4049992 115.0334990  92.2959997
 135.0389992 114.2674990  92.7389997 136.3179992 115.0624990  92.5829997
 135.4783225 114.9326917  92.3953441 137.3779992 114.3834990  93.8319997
 138.2769992 114.1094990  93.6469997 136.9919992 113.6414990  94.2959997
 137.4487237 114.2456520  93.8694693  18.5189992 135.8204990  87.4229997
  18.5679992 136.4304990  88.1589997  18.9449992 136.2814990  86.6999997
  18.5832851 135.9663266  87.4260532  12.9969992 138.6124990  86.8899997
  13.1389992 137.6664990  86.9099997  12.8909992 138.8194990  85.9609997
  13.0021158 138.5109722  86.7672241   6.1519992 136.7144990  84.1619997
   6.1949992 137.5744990  83.7439997   5.6939992 136.1614990  83.5289997
   6.0959613 136.7575689  84.0191276  13.8739992 136.8454990  82.5629997
  14.5199992 136.5164990  83.1879997  14.3839992 137.3624990  81.9399997
  14.0314392 136.8703710  82.5643248   2.7719992 139.1114990  84.9239997
   3.4259992 138.5614990  85.3559997   2.7959992 138.8374990  84.0079997
   2.8647022 138.9992005  84.8591698  18.9109992 137.2984990  89.6589997
  18.2219992 137.9564990  89.5639997  18.9259992 137.1004990  90.5959997
  18.8187756 137.3617614  89.7725795   4.9619992 135.6324990  88.2359997
   4.7429992 136.1624990  87.4699997   4.2939992 135.8584990  88.8839997
   4.8417271 135.7356508  88.2186206  15.6379992 136.1364990  84.5439997
  15.4229992 135.3704990  85.0759997  16.2939992 136.6084990  85.0569997
  15.6972451 136.0954472  84.6861699   4.5559992 137.5244990  86.1889997
   5.1689992 138.1574990  86.5619997   5.0679992 137.0524990  85.5319997
   4.7091680 137.5474006  86.1512830  15.9849992 134.8514990  88.2229997
  15.2489992 135.4614990  88.1849997  16.6689992 135.2664990  87.6969997
  15.9765885 134.9911924  88.1466931   8.9879992 132.9374990  85.6889997
   8.8709992 131.9894990  85.6349997   8.1329992 133.2704990  85.9619997
   8.8563691 132.8525842  85.7185072  17.2299992 132.8974990  78.6389997
  16.3299992 133.0354990  78.9339997  17.4819992 133.7284990  78.2369997
  17.1407355 133.0288200  78.6250539  16.4889992 138.9874990  92.4739997
  16.0819992 139.4674990  91.7539997  16.5299992 138.0814990  92.1669997
  16.4387178 138.9308609  92.3337441   6.2569992 133.8414990  86.4669997
   5.3949992 133.7544990  86.0589997   6.2349992 134.6974990  86.8939997
   6.1360953 133.9453558  86.4689262  10.9199992 133.5634990  89.8409997
  11.3399992 133.1484990  90.5939997   9.9869992 133.3844990  89.9579997
  10.8513736 133.4824921  89.9598950  14.2459992 137.3184990  90.6949997
  13.7319992 137.1934990  91.4919997  14.0909992 138.2314990  90.4499997
  14.1546643 137.4247068  90.7710624   6.3479992 138.8064990  87.5619997
   5.7059992 138.7664990  88.2709997   6.3849992 139.7334990  87.3239997
   6.2651659 138.9262540  87.6268463   6.3449992 139.0274990  82.4739997
   5.4519992 138.6874990  82.4149997   6.7959992 138.6504990  81.7179997
   6.2837185 138.9300220  82.3637698  11.8809992 139.4434990  81.2909997
  11.4719992 140.2584990  80.9989997  12.6009992 139.3034990  80.6759997
  11.9223946 139.5359963  81.1679616  12.8849992 138.8894990  84.1049997
  12.6899992 139.4954990  83.3899997  13.0669992 138.0564990  83.6699997
  12.8829272 138.8597955  83.9484075   4.0979992 139.1274990  89.4289997
   4.0599992 139.5274990  90.2969997   3.6069992 138.3104990  89.5189997
   4.0264246 139.0718842  89.5601171   0.7059992 136.2434990  83.2789997
   1.3369992 136.2144990  83.9989997   1.1559992 135.8184990  82.5489997
   0.8530905 136.1820839  83.2787479   1.9799992 136.9894990  78.7029997
   2.4549992 137.5804990  78.1179997   1.2629992 137.5194990  79.0499997
   1.9480406 137.1421011  78.6698495   8.9269992 136.4554990  83.5599997
   8.0159992 136.5124990  83.8489997   9.4319992 136.3954990  84.3709997
   8.8706873 136.4551838  83.7091190   3.7549992 138.0844990  82.3869997
   2.8659992 138.1834990  82.0469997   4.0509992 137.2424990  82.0409997
   3.6734001 137.9842473  82.2937318   7.4079992 138.0844990  80.0429997
   8.3399992 138.2134990  80.2209997   7.1929992 138.7534990  79.3939997
   7.5064245 138.1926452  79.9795602  13.3319992 135.6904990  86.8239997
  12.6549992 135.8214990  87.4879997  12.8459992 135.5354990  86.0139997
  13.1737265 135.6874665  86.8053380   6.0819992 139.2784990  77.6099997
   5.5399992 138.8994990  76.9189997   6.9159992 139.4734990  77.1809997
   6.1204283 139.2529383  77.4574298  10.2469992 139.2424990  85.4469997
  10.8109992 138.6964990  84.8999997  10.0989992 138.7214990  86.2359997
  10.3043037 139.0971798  85.4787212   5.2489992 135.3794990  81.8649997
   4.9309992 134.4764990  81.8299997   6.0299992 135.3814990  81.3129997
   5.3111560 135.2561148  81.7854975   8.8729992 137.6314990  87.8609997
   8.0379992 138.0854990  87.9709997   9.3969992 137.9074990  88.6129997
   8.8295070 137.7309677  87.9777134  14.0329992 138.5254990  79.4059997
  14.9249992 138.3874990  79.7249997  14.0899992 139.3164990  78.8689997
  14.1627380 138.6134777  79.3770981  18.9179992 138.7344990  79.0999997
  18.3639992 138.3384990  78.4279997  19.0189992 139.6454990  78.8229997
  18.8557084 138.8033565  78.9704381   3.1839992 136.3534990  90.1879997
   2.2909992 136.6914990  90.1209997   3.0849992 135.4974990  90.6059997
   3.0485241 136.2840941  90.2352982  11.9179992 136.0944990  89.0779997
  12.6169992 136.1684990  89.7279997  11.5379992 135.2294990  89.2329997
  11.9622095 135.9877402  89.1877982  12.7029992 135.7464990  80.1749997
  12.9229992 136.2174990  79.3719997  13.2609992 136.1404990  80.8459997
  12.8085851 135.8643272  80.1556134   9.9029992 137.4744990  81.0099997
  10.7149992 137.9784990  81.0559997   9.6579992 137.3294990  81.9239997
   9.9811091 137.5239366  81.1398552  10.4389992 138.4604990  90.1949997
  10.5579992 139.0344990  90.9519997  11.0939992 137.7724990  90.3099997
  10.5438684 138.4460205  90.3141656  10.7869992 134.5554990  81.9479997
  10.4399992 135.1724990  82.5929997  11.4449992 135.0564990  81.4669997
  10.8285290 134.7076384  81.9711635   6.4439992 135.6184990  78.6359997
   6.3609992 136.5064990  78.9819997   7.3339992 135.3534990  78.8669997
   6.5529751 135.7042482  78.7146066  16.6429992 136.3674990  91.0299997
  15.7269992 136.6294990  90.9419997  16.9789992 136.3644990  90.1329997
  16.5629789 136.4029637  90.8967829   3.0189992 138.7104990  76.8119997
   2.9739992 139.6494990  76.9909997   2.1309992 138.4744990  76.5419997
   2.8928472 138.8071946  76.8000282   3.8269992 133.4914990  85.4849997
   3.5979992 133.5504990  84.5579997   3.3839992 132.7004990  85.7919997
   3.7357387 133.3926412  85.3995223   7.0719992 137.4194990  91.8069997
   7.2219992 136.6904990  91.2039997   7.0739992 138.1964990  91.2479997
   7.0927664 137.4248971  91.6490525   7.4839992 135.7884990  89.2989997
   8.0199992 136.2404990  88.6469997   6.6319992 135.6804990  88.8769997
   7.4421648 135.8357883  89.1526395  13.4819992 139.0434990  94.5669997
  13.6739992 138.1124990  94.4559997  14.3389992 139.4684990  94.5569997
  13.6242320 138.9734743  94.5504433   5.5499992 138.6174990  93.7179997
   4.7829992 138.0844990  93.5079997   6.2289992 138.3074990  93.1189997
   5.5368292 138.5026360  93.6082693   8.2899992 133.2454990  89.7309997
   8.1919992 134.1914990  89.6249997   7.5469992 132.8724990  89.2549997
   8.1762363 133.3245987  89.6522029   9.5539992 137.5664990  93.2939997
   9.3179992 137.3474990  94.1959997   8.7709992 137.3594990  92.7849997
   9.4158444 137.5085688  93.3484518  12.2699992 136.6944990  92.3699997
  11.3219992 136.7264990  92.5019997  12.5819992 136.0684990  93.0239997
  12.1825293 136.6142934  92.4764130  13.9039992 135.3284990  94.3749997
  13.8069992 134.3764990  94.3689997  13.5819992 135.5964990  95.2359997
  13.8472229 135.2344706  94.4905108   3.7309992 136.5374990  93.4229997
   3.9419992 135.8314990  92.8119997   3.6189992 136.1004990  94.2669997
   3.7447674 136.3816376  93.4534199   8.5119992 132.5394990  92.4019997
   9.2229992 131.8994990  92.3879997   8.4109992 132.8054990  91.4879997
   8.5956732 132.4878451  92.2765475   8.8649992 134.2214990  94.4559997
   8.7339992 133.7464990  93.6349997   8.2659992 134.9664990  94.3999997
   8.7661524 134.2571968  94.3361553  17.3739992 138.8314990  76.8169997
  17.4709992 139.4984990  76.1369997  17.2339992 138.0164990  76.3349997
  17.3683428 138.8125667  76.6588311  16.2539992 137.7944990  80.8999997
  16.5339992 136.8874990  81.0249997  17.0129992 138.2284990  80.5109997
  16.3949471 137.7290654  80.8645052  16.8659992 138.3764990  86.3359997
  17.7989992 138.5884990  86.3019997  16.6309992 138.4774990  87.2589997
  16.9618357 138.4191303  86.4560232  16.8949992 139.1134990  89.1119997
  16.0519992 139.3814990  89.4779997  17.3379992 139.9354990  88.9009997
  16.8394358 139.2613294  89.1335999   1.1759992 137.5604990  92.5889997
   2.0959992 137.4384990  92.8249997   0.7269992 136.8104990  92.9779997
   1.2411561 137.4423720  92.6739015  19.1779992 133.0934990  94.4659997
  19.5279992 132.4394990  93.8599997  19.3249992 133.9304990  94.0259997
  19.2457192 133.1172545  94.3236712  16.8679992 135.0574990  80.9489997
  17.0499992 134.6084990  81.7739997  16.2679992 134.4734990  80.4849997
  16.8118187 134.9170563  80.9992721   2.3979992 135.8734990  85.4799997
   2.8429992 135.0814990  85.7819997   2.8639992 136.5894990  85.9109997
   2.5219059 135.8619485  85.5796061   0.7019992 138.8724990  86.5489997
   1.1939992 138.6514990  85.7589997   1.0639992 139.7124990  86.8299997
   0.8183429 138.9558220  86.4787918  18.6979992 135.2024990  92.8149997
  17.7809992 135.4734990  92.7789997  18.8209992 134.6674990  92.0309997
  18.5890828 135.1672711  92.7040767   1.0149992 135.1304990  80.6039997
   0.0899992 135.3384990  80.4739997   1.4689992 135.6144990  79.9139997
   0.9497401 135.2243895  80.4929433   0.9789992 133.8684990  88.9479997
   0.3139992 133.6224990  89.5909997   0.5359992 134.4904990  88.3709997
   0.8281168 133.9189225  88.9579830  17.6989992 133.2924990  90.6339997
  16.8859992 133.6174990  90.2459997  17.9319992 132.5314990  90.1009997
  17.6192566 133.2341570  90.5089196  11.1289992 134.7414990  84.9569997
  10.4539992 134.1114990  85.2119997  11.6929992 134.2574990  84.3539997
  11.1129558 134.5899283  84.9103451  16.2709992 132.8484990  85.0689997
  16.8749992 133.3964990  84.5679997  15.4019992 133.1674990  84.8289997
  16.2361126 132.9667070  84.9679180  17.9979992 133.9874990  83.4029997
  18.6099992 133.4734990  82.8759997  18.3809992 134.8644990  83.4259997
  18.1333867 134.0357613  83.3340888   3.4549992 133.3754990  82.7789997
   2.6779992 133.1404990  82.2709997   3.9859992 132.5784990  82.7879997
   3.4204443 133.2356721  82.7107200   8.0349992 133.3014990  82.5919997
   8.9089992 133.6904990  82.5619997   7.8989992 133.0864990  83.5149997
   8.1363125 133.3257120  82.7126523  13.5909992 133.3314990  84.2409997
  13.6679992 133.4274990  83.2919997  13.3159992 132.4244990  84.3699997
  13.5643407 133.2219188  84.1283532  14.9449992 133.3574990  79.9339997
  14.2419992 133.9724990  79.7239997  14.4999992 132.5204990  80.0649997
  14.7886550 133.3284679  79.9229819   9.1789992 135.3824990  79.4819997
   9.3569992 134.7354990  80.1649997   9.1249992 136.2164990  79.9489997
   9.1960678 135.4066615  79.6386283   3.4129992 133.8894990  92.2959997
   3.0469992 133.1234990  92.7389997   4.3259992 133.9184990  92.5829997
   3.4863225 133.7886917  92.3953441   5.3859992 133.2394990  93.8319997
   6.2849992 132.9654990  93.6469997   4.9999992 132.4974990  94.2959997
   5.4567237 133.1016520  93.8694693  13.8069992 132.5724990  94.0139997
  13.8839992 132.1464990  94.8679997  14.7009992 132.5854990  93.6719997
  13.9383315 132.5160320  94.0845052  37.3749992 135.8204990  87.4229997
  37.4239992 136.4304990  88.1589997  37.8009992 136.2814990  86.6999997
  37.4392851 135.9663266  87.4260532  31.8529992 138.6124990  86.8899997
  31.9949992 137.6664990  86.9099997  31.7469992 138.8194990  85.9609997
  31.8581158 138.5109722  86.7672241  25.0079992 136.7144990  84.1619997
  25.0509992 137.5744990  83.7439997  24.5499992 136.1614990  83.5289997
  24.9519613 136.7575689  84.0191276  32.7299992 136.8454990  82.5629997
  33.3759992 136.5164990  83.1879997  33.2399992 137.3624990  81.9399997
  32.8874392 136.8703710  82.5643248  21.6279992 139.1114990  84.9239997
  22.2819992 138.5614990  85.3559997  21.6519992 138.8374990  84.0079997
  21.7207022 138.9992005  84.8591698  37.7669992 137.2984990  89.6589997
  37.0779992 137.9564990  89.5639997  37.7819992 137.1004990  90.5959997
  37.6747756 137.3617614  89.7725795  23.8179992 135.6324990  88.2359997
  23.5989992 136.1624990  87.4699997  23.1499992 135.8584990  88.8839997
  23.6977271 135.7356508  88.2186206  34.4939992 136.1364990  84.5439997
  34.2789992 135.3704990  85.0759997  35.1499992 136.6084990  85.0569997
  34.5532451 136.0954472  84.6861699  23.4119992 137.5244990  86.1889997
  24.0249992 138.1574990  86.5619997  23.9239992 137.0524990  85.5319997
  23.5651680 137.5474006  86.1512830  34.8409992 134.8514990  88.2229997
  34.1049992 135.4614990  88.1849997  35.5249992 135.2664990  87.6969997
  34.8325885 134.9911924  88.1466931  27.8439992 132.9374990  85.6889997
  27.7269992 131.9894990  85.6349997  26.9889992 133.2704990  85.9619997
  27.7123691 132.8525842  85.7185072  36.0859992 132.8974990  78.6389997
  35.1859992 133.0354990  78.9339997  36.3379992 133.7284990  78.2369997
  35.9967355 133.0288200  78.6250539  35.3449992 138.9874990  92.4739997
  34.9379992 139.4674990  91.7539997  35.3859992 138.0814990  92.1669997
  35.2947178 138.9308609  92.3337441  25.1129992 133.8414990  86.4669997
  24.2509992 133.7544990  86.0589997  25.0909992 134.6974990  86.8939997
  24.9920953 133.9453558  86.4689262  29.7759992 133.5634990  89.8409997
  30.1959992 133.1484990  90.5939997  28.8429992 133.3844990  89.9579997
  29.7073736 133.4824921  89.9598950  33.1019992 137.3184990  90.6949997
  32.5879992 137.1934990  91.4919997  32.9469992 138.2314990  90.4499997
  33.0106643 137.4247068  90.7710624  25.2039992 138.8064990  87.5619997
  24.5619992 138.7664990  88.2709997  25.2409992 139.7334990  87.3239997
  25.1211659 138.9262540  87.6268463  25.2009992 139.0274990  82.4739997
  24.3079992 138.6874990  82.4149997  25.6519992 138.6504990  81.7179997
  25.1397185 138.9300220  82.3637698  30.7369992 139.4434990  81.2909997
  30.3279992 140.2584990  80.9989997  31.4569992 139.3034990  80.6759997
  30.7783946 139.5359963  81.1679616  31.7409992 138.8894990  84.1049997
  31.5459992 139.4954990  83.3899997  31.9229992 138.0564990  83.6699997
  31.7389272 138.8597955  83.9484075  22.9539992 139.1274990  89.4289997
  22.9159992 139.5274990  90.2969997  22.4629992 138.3104990  89.5189997
  22.8824246 139.0718842  89.5601171  19.5619992 136.2434990  83.2789997
  20.1929992 136.2144990  83.9989997  20.0119992 135.8184990  82.5489997
  19.7090905 136.1820839  83.2787479  20.8359992 136.9894990  78.7029997
  21.3109992 137.5804990  78.1179997  20.1189992 137.5194990  79.0499997
  20.8040406 137.1421011  78.6698495  27.7829992 136.4554990  83.5599997
  26.8719992 136.5124990  83.8489997  28.2879992 136.3954990  84.3709997
  27.7266873 136.4551838  83.7091190  22.6109992 138.0844990  82.3869997
  21.7219992 138.1834990  82.0469997  22.9069992 137.2424990  82.0409997
  22.5294001 137.9842473  82.2937318  26.2639992 138.0844990  80.0429997
  27.1959992 138.2134990  80.2209997  26.0489992 138.7534990  79.3939997
  26.3624245 138.1926452  79.9795602  32.1879992 135.6904990  86.8239997
  31.5109992 135.8214990  87.4879997  31.7019992 135.5354990  86.0139997
  32.0297265 135.6874665  86.8053380  24.9379992 139.2784990  77.6099997
  24.3959992 138.8994990  76.9189997  25.7719992 139.4734990  77.1809997
  24.9764283 139.2529383  77.4574298  29.1029992 139.2424990  85.4469997
  29.6669992 138.6964990  84.8999997  28.9549992 138.7214990  86.2359997
  29.1603037 139.0971798  85.4787212  24.1049992 135.3794990  81.8649997
  23.7869992 134.4764990  81.8299997  24.8859992 135.3814990  81.3129997
  24.1671560 135.2561148  81.7854975  27.7289992 137.6314990  87.8609997
  26.8939992 138.0854990  87.9709997  28.2529992 137.9074990  88.6129997
  27.6855070 137.7309677  87.9777134  32.8889992 138.5254990  79.4059997
  33.7809992 138.3874990  79.7249997  32.9459992 139.3164990  78.8689997
  33.0187380 138.6134777  79.3770981  37.7739992 138.7344990  79.0999997
  37.2199992 138.3384990  78.4279997  37.8749992 139.6454990  78.8229997
  37.7117084 138.8033565  78.9704381  22.0399992 136.3534990  90.1879997
  21.1469992 136.6914990  90.1209997  21.9409992 135.4974990  90.6059997
  21.9045241 136.2840941  90.2352982  30.7739992 136.0944990  89.0779997
  31.4729992 136.1684990  89.7279997  30.3939992 135.2294990  89.2329997
  30.8182095 135.9877402  89.1877982  31.5589992 135.7464990  80.1749997
  31.7789992 136.2174990  79.3719997  32.1169992 136.1404990  80.8459997
  31.6645851 135.8643272  80.1556134  28.7589992 137.4744990  81.0099997
  29.5709992 137.9784990  81.0559997  28.5139992 137.3294990  81.9239997
  28.8371091 137.5239366  81.1398552  29.2949992 138.4604990  90.1949997
  29.4139992 139.0344990  90.9519997  29.9499992 137.7724990  90.3099997
  29.3998684 138.4460205  90.3141656  29.6429992 134.5554990  81.9479997
  29.2959992 135.1724990  82.5929997  30.3009992 135.0564990  81.4669997
  29.6845290 134.7076384  81.9711635  25.2999992 135.6184990  78.6359997
  25.2169992 136.5064990  78.9819997  26.1899992 135.3534990  78.8669997
  25.4089751 135.7042482  78.7146066  35.4989992 136.3674990  91.0299997
  34.5829992 136.6294990  90.9419997  35.8349992 136.3644990  90.1329997
  35.4189789 136.4029637  90.8967829  21.8749992 138.7104990  76.8119997
  21.8299992 139.6494990  76.9909997  20.9869992 138.4744990  76.5419997
  21.7488472 138.8071946  76.8000282  22.6829992 133.4914990  85.4849997
  22.4539992 133.5504990  84.5579997  22.2399992 132.7004990  85.7919997
  22.5917387 133.3926412  85.3995223  25.9279992 137.4194990  91.8069997
  26.0779992 136.6904990  91.2039997  25.9299992 138.1964990  91.2479997
  25.9487664 137.4248971  91.6490525  26.3399992 135.7884990  89.2989997
  26.8759992 136.2404990  88.6469997  25.4879992 135.6804990  88.8769997
  26.2981648 135.8357883  89.1526395  32.3379992 139.0434990  94.5669997
  32.5299992 138.1124990  94.4559997  33.1949992 139.4684990  94.5569997
  32.4802320 138.9734743  94.5504433  24.4059992 138.6174990  93.7179997
  23.6389992 138.0844990  93.5079997  25.0849992 138.3074990  93.1189997
  24.3928292 138.5026360  93.6082693  27.1459992 133.2454990  89.7309997
  27.0479992 134.1914990  89.6249997  26.4029992 132.8724990  89.2549997
  27.0322363 133.3245987  89.6522029  28.4099992 137.5664990  93.2939997
  28.1739992 137.3474990  94.1959997  27.6269992 137.3594990  92.7849997
  28.2718444 137.5085688  93.3484518  31.1259992 136.6944990  92.3699997
  30.1779992 136.7264990  92.5019997  31.4379992 136.0684990  93.0239997
  31.0385293 136.6142934  92.4764130  32.7599992 135.3284990  94.3749997
  32.6629992 134.3764990  94.3689997  32.4379992 135.5964990  95.2359997
  32.7032229 135.2344706  94.4905108  22.5869992 136.5374990  93.4229997
  22.7979992 135.8314990  92.8119997  22.4749992 136.1004990  94.2669997
  22.6007674 136.3816376  93.4534199  27.3679992 132.5394990  92.4019997
  28.0789992 131.8994990  92.3879997  27.2669992 132.8054990  91.4879997
  27.4516732 132.4878451  92.2765475  27.7209992 134.2214990  94.4559997
  27.5899992 133.7464990  93.6349997  27.1219992 134.9664990  94.3999997
  27.6221524 134.2571968  94.3361553  35.1099992 137.7944990  80.8999997
  35.3899992 136.8874990  81.0249997  35.8689992 138.2284990  80.5109997
  35.2509471 137.7290654  80.8645052  35.7219992 138.3764990  86.3359997
  36.6549992 138.5884990  86.3019997  35.4869992 138.4774990  87.2589997
  35.8178357 138.4191303  86.4560232  35.7509992 139.1134990  89.1119997
  34.9079992 139.3814990  89.4779997  36.1939992 139.9354990  88.9009997
  35.6954358 139.2613294  89.1335999  20.0319992 137.5604990  92.5889997
  20.9519992 137.4384990  92.8249997  19.5829992 136.8104990  92.9779997
  20.0971561 137.4423720  92.6739015  38.0339992 133.0934990  94.4659997
  38.3839992 132.4394990  93.8599997  38.1809992 133.9304990  94.0259997
  38.1017192 133.1172545  94.3236712  35.7239992 135.0574990  80.9489997
  35.9059992 134.6084990  81.7739997  35.1239992 134.4734990  80.4849997
  35.6678187 134.9170563  80.9992721  21.2539992 135.8734990  85.4799997
  21.6989992 135.0814990  85.7819997  21.7199992 136.5894990  85.9109997
  21.3779059 135.8619485  85.5796061  19.5579992 138.8724990  86.5489997
  20.0499992 138.6514990  85.7589997  19.9199992 139.7124990  86.8299997
  19.6743429 138.9558220  86.4787918  37.5539992 135.2024990  92.8149997
  36.6369992 135.4734990  92.7789997  37.6769992 134.6674990  92.0309997
  37.4450828 135.1672711  92.7040767  37.5899992 135.1254990  77.4769997
  38.0029992 134.4044990  77.0009997  38.2719992 135.7944990  77.5349997
  37.7385712 135.1174304  77.4198247  19.8709992 135.1304990  80.6039997
  18.9459992 135.3384990  80.4739997  20.3249992 135.6144990  79.9139997
  19.8057401 135.2243895  80.4929433  19.8349992 133.8684990  88.9479997
  19.1699992 133.6224990  89.5909997  19.3919992 134.4904990  88.3709997
  19.6841168 133.9189225  88.9579830  36.5549992 133.2924990  90.6339997
  35.7419992 133.6174990  90.2459997  36.7879992 132.5314990  90.1009997
  36.4752566 133.2341570  90.5089196  29.9849992 134.7414990  84.9569997
  29.3099992 134.1114990  85.2119997  30.5489992 134.2574990  84.3539997
  29.9689558 134.5899283  84.9103451  35.1269992 132.8484990  85.0689997
  35.7309992 133.3964990  84.5679997  34.2579992 133.1674990  84.8289997
  35.0921126 132.9667070  84.9679180  36.8539992 133.9874990  83.4029997
  37.4659992 133.4734990  82.8759997  37.2369992 134.8644990  83.4259997
  36.9893867 134.0357613  83.3340888  22.3109992 133.3754990  82.7789997
  21.5339992 133.1404990  82.2709997  22.8419992 132.5784990  82.7879997
  22.2764443 133.2356721  82.7107200  21.1479992 133.1734990  78.5819997
  21.5869992 133.7844990  77.9909997  20.5139992 133.7114990  79.0559997
  21.1224103 133.3299233  78.5651376  26.8909992 133.3014990  82.5919997
  27.7649992 133.6904990  82.5619997  26.7549992 133.0864990  83.5149997
  26.9923125 133.3257120  82.7126523  32.4469992 133.3314990  84.2409997
  32.5239992 133.4274990  83.2919997  32.1719992 132.4244990  84.3699997
  32.4203407 133.2219188  84.1283532  33.8009992 133.3574990  79.9339997
  33.0979992 133.9724990  79.7239997  33.3559992 132.5204990  80.0649997
  33.6446550 133.3284679  79.9229819  28.0349992 135.3824990  79.4819997
  28.2129992 134.7354990  80.1649997  27.9809992 136.2164990  79.9489997
  28.0520678 135.4066615  79.6386283  22.2689992 133.8894990  92.2959997
  21.9029992 133.1234990  92.7389997  23.1819992 133.9184990  92.5829997
  22.3423225 133.7886917  92.3953441  24.2419992 133.2394990  93.8319997
  25.1409992 132.9654990  93.6469997  23.8559992 132.4974990  94.2959997
  24.3127237 133.1016520  93.8694693  32.6629992 132.5724990  94.0139997
  32.7399992 132.1464990  94.8679997  33.5569992 132.5854990  93.6719997
  32.7943315 132.5160320  94.0845052  56.2309992 135.8204990  87.4229997
  56.2799992 136.4304990  88.1589997  56.6569992 136.2814990  86.6999997
  56.2952851 135.9663266  87.4260532  50.7089992 138.6124990  86.8899997
  50.8509992 137.6664990  86.9099997  50.6029992 138.8194990  85.9609997
  50.7141158 138.5109722  86.7672241  43.8639992 136.7144990  84.1619997
  43.9069992 137.5744990  83.7439997  43.4059992 136.1614990  83.5289997
  43.8079613 136.7575689  84.0191276  51.5859992 136.8454990  82.5629997
  52.2319992 136.5164990  83.1879997  52.0959992 137.3624990  81.9399997
  51.7434392 136.8703710  82.5643248  40.4839992 139.1114990  84.9239997
  41.1379992 138.5614990  85.3559997  40.5079992 138.8374990  84.0079997
  40.5767022 138.9992005  84.8591698  56.6229992 137.2984990  89.6589997
  55.9339992 137.9564990  89.5639997  56.6379992 137.1004990  90.5959997
  56.5307756 137.3617614  89.7725795  42.6739992 135.6324990  88.2359997
  42.4549992 136.1624990  87.4699997  42.0059992 135.8584990  88.8839997
  42.5537271 135.7356508  88.2186206  53.3499992 136.1364990  84.5439997
  53.1349992 135.3704990  85.0759997  54.0059992 136.6084990  85.0569997
  53.4092451 136.0954472  84.6861699  42.2679992 137.5244990  86.1889997
  42.8809992 138.1574990  86.5619997  42.7799992 137.0524990  85.5319997
  42.4211680 137.5474006  86.1512830  53.6969992 134.8514990  88.2229997
  52.9609992 135.4614990  88.1849997  54.3809992 135.2664990  87.6969997
  53.6885885 134.9911924  88.1466931  46.6999992 132.9374990  85.6889997
  46.5829992 131.9894990  85.6349997  45.8449992 133.2704990  85.9619997
  46.5683691 132.8525842  85.7185072  54.9419992 132.8974990  78.6389997
  54.0419992 133.0354990  78.9339997  55.1939992 133.7284990  78.2369997
  54.8527355 133.0288200  78.6250539  54.2009992 138.9874990  92.4739997
  53.7939992 139.4674990  91.7539997  54.2419992 138.0814990  92.1669997
  54.1507178 138.9308609  92.3337441  43.9689992 133.8414990  86.4669997
  43.1069992 133.7544990  86.0589997  43.9469992 134.6974990  86.8939997
  43.8480953 133.9453558  86.4689262  48.6319992 133.5634990  89.8409997
  49.0519992 133.1484990  90.5939997  47.6989992 133.3844990  89.9579997
  48.5633736 133.4824921  89.9598950  51.9579992 137.3184990  90.6949997
  51.4439992 137.1934990  91.4919997  51.8029992 138.2314990  90.4499997
  51.8666643 137.4247068  90.7710624  44.0599992 138.8064990  87.5619997
  43.4179992 138.7664990  88.2709997  44.0969992 139.7334990  87.3239997
  43.9771659 138.9262540  87.6268463  44.0569992 139.0274990  82.4739997
  43.1639992 138.6874990  82.4149997  44.5079992 138.6504990  81.7179997
  43.9957185 138.9300220  82.3637698  49.5929992 139.4434990  81.2909997
  49.1839992 140.2584990  80.9989997  50.3129992 139.3034990  80.6759997
  49.6343946 139.5359963  81.1679616  50.5969992 138.8894990  84.1049997
  50.4019992 139.4954990  83.3899997  50.7789992 138.0564990  83.6699997
  50.5949272 138.8597955  83.9484075  41.8099992 139.1274990  89.4289997
  41.7719992 139.5274990  90.2969997  41.3189992 138.3104990  89.5189997
  41.7384246 139.0718842  89.5601171  45.1759992 136.5014990  76.2269997
  44.7449992 136.0564990  76.9569997  44.4579992 136.8724990  75.7149997
  45.0199363 136.4907979  76.2576194  38.4179992 136.2434990  83.2789997
  39.0489992 136.2144990  83.9989997  38.8679992 135.8184990  82.5489997
  38.5650905 136.1820839  83.2787479  39.6919992 136.9894990  78.7029997
  40.1669992 137.5804990  78.1179997  38.9749992 137.5194990  79.0499997
  39.6600406 137.1421011  78.6698495  46.6389992 136.4554990  83.5599997
  45.7279992 136.5124990  83.8489997  47.1439992 136.3954990  84.3709997
  46.5826873 136.4551838  83.7091190  41.4669992 138.0844990  82.3869997
  40.5779992 138.1834990  82.0469997  41.7629992 137.2424990  82.0409997
  41.3854001 137.9842473  82.2937318  45.1199992 138.0844990  80.0429997
  46.0519992 138.2134990  80.2209997  44.9049992 138.7534990  79.3939997
  45.2184245 138.1926452  79.9795602  51.0439992 135.6904990  86.8239997
  50.3669992 135.8214990  87.4879997  50.5579992 135.5354990  86.0139997
  50.8857265 135.6874665  86.8053380  43.7939992 139.2784990  77.6099997
  43.2519992 138.8994990  76.9189997  44.6279992 139.4734990  77.1809997
  43.8324283 139.2529383  77.4574298  47.9589992 139.2424990  85.4469997
  48.5229992 138.6964990  84.8999997  47.8109992 138.7214990  86.2359997
  48.0163037 139.0971798  85.4787212  42.9609992 135.3794990  81.8649997
  42.6429992 134.4764990  81.8299997  43.7419992 135.3814990  81.3129997
  43.0231560 135.2561148  81.7854975  46.5849992 137.6314990  87.8609997
  45.7499992 138.0854990  87.9709997  47.1089992 137.9074990  88.6129997
  46.5415070 137.7309677  87.9777134  56.6299992 138.7344990  79.0999997
  56.0759992 138.3384990  78.4279997  56.7309992 139.6454990  78.8229997
  56.5677084 138.8033565  78.9704381  40.8959992 136.3534990  90.1879997
  40.0029992 136.6914990  90.1209997  40.7969992 135.4974990  90.6059997
  40.7605241 136.2840941  90.2352982  49.6299992 136.0944990  89.0779997
  50.3289992 136.1684990  89.7279997  49.2499992 135.2294990  89.2329997
  49.6742095 135.9877402  89.1877982  50.4149992 135.7464990  80.1749997
  50.6349992 136.2174990  79.3719997  50.9729992 136.1404990  80.8459997
  50.5205851 135.8643272  80.1556134  47.6149992 137.4744990  81.0099997
  48.4269992 137.9784990  81.0559997  47.3699992 137.3294990  81.9239997
  47.6931091 137.5239366  81.1398552  48.1509992 138.4604990  90.1949997
  48.2699992 139.0344990  90.9519997  48.8059992 137.7724990  90.3099997
  48.2558684 138.4460205  90.3141656  48.4989992 134.5554990  81.9479997
  48.1519992 135.1724990  82.5929997  49.1569992 135.0564990  81.4669997
  48.5405290 134.7076384  81.9711635  44.1559992 135.6184990  78.6359997
  44.0729992 136.5064990  78.9819997  45.0459992 135.3534990  78.8669997
  44.2649751 135.7042482  78.7146066  54.3549992 136.3674990  91.0299997
  53.4389992 136.6294990  90.9419997  54.6909992 136.3644990  90.1329997
  54.2749789 136.4029637  90.8967829  40.7309992 138.7104990  76.8119997
  40.6859992 139.6494990  76.9909997  39.8429992 138.4744990  76.5419997
  40.6048472 138.8071946  76.8000282  41.5389992 133.4914990  85.4849997
  41.3099992 133.5504990  84.5579997  41.0959992 132.7004990  85.7919997
  41.4477387 133.3926412  85.3995223  44.7839992 137.4194990  91.8069997
  44.9339992 136.6904990  91.2039997  44.7859992 138.1964990  91.2479997
  44.8047664 137.4248971  91.6490525  45.1959992 135.7884990  89.2989997
  45.7319992 136.2404990  88.6469997  44.3439992 135.6804990  88.8769997
  45.1541648 135.8357883  89.1526395  51.1939992 139.0434990  94.5669997
  51.3859992 138.1124990  94.4559997  52.0509992 139.4684990  94.5569997
  51.3362320 138.9734743  94.5504433  43.2619992 138.6174990  93.7179997
  42.4949992 138.0844990  93.5079997  43.9409992 138.3074990  93.1189997
  43.2488292 138.5026360  93.6082693  46.0019992 133.2454990  89.7309997
  45.9039992 134.1914990  89.6249997  45.2589992 132.8724990  89.2549997
  45.8882363 133.3245987  89.6522029  47.2659992 137.5664990  93.2939997
  47.0299992 137.3474990  94.1959997  46.4829992 137.3594990  92.7849997
  47.1278444 137.5085688  93.3484518  49.9819992 136.6944990  92.3699997
  49.0339992 136.7264990  92.5019997  50.2939992 136.0684990  93.0239997
  49.8945293 136.6142934  92.4764130  51.6159992 135.3284990  94.3749997
  51.5189992 134.3764990  94.3689997  51.2939992 135.5964990  95.2359997
  51.5592229 135.2344706  94.4905108  41.4429992 136.5374990  93.4229997
  41.6539992 135.8314990  92.8119997  41.3309992 136.1004990  94.2669997
  41.4567674 136.3816376  93.4534199  46.2239992 132.5394990  92.4019997
  46.9349992 131.8994990  92.3879997  46.1229992 132.8054990  91.4879997
  46.3076732 132.4878451  92.2765475  46.5769992 134.2214990  94.4559997
  46.4459992 133.7464990  93.6349997  45.9779992 134.9664990  94.3999997
  46.4781524 134.2571968  94.3361553  55.0859992 138.8314990  76.8169997
  55.1829992 139.4984990  76.1369997  54.9459992 138.0164990  76.3349997
  55.0803428 138.8125667  76.6588311  54.3339992 136.2394990  75.9339997
  54.9439992 135.8684990  76.5709997  53.4969992 135.8184990  76.1299997
  54.3043704 136.1317942  76.0477077  53.9659992 137.7944990  80.8999997
  54.2459992 136.8874990  81.0249997  54.7249992 138.2284990  80.5109997
  54.1069471 137.7290654  80.8645052  54.5779992 138.3764990  86.3359997
  55.5109992 138.5884990  86.3019997  54.3429992 138.4774990  87.2589997
  54.6738357 138.4191303  86.4560232  54.6069992 139.1134990  89.1119997
  53.7639992 139.3814990  89.4779997  55.0499992 139.9354990  88.9009997
  54.5514358 139.2613294  89.1335999  38.8879992 137.5604990  92.5889997
  39.8079992 137.4384990  92.8249997  38.4389992 136.8104990  92.9779997
  38.9531561 137.4423720  92.6739015  56.8899992 133.0934990  94.4659997
  57.2399992 132.4394990  93.8599997  57.0369992 133.9304990  94.0259997
  56.9577192 133.1172545  94.3236712  54.5799992 135.0574990  80.9489997
  54.7619992 134.6084990  81.7739997  53.9799992 134.4734990  80.4849997
  54.5238187 134.9170563  80.9992721  40.1099992 135.8734990  85.4799997
  40.5549992 135.0814990  85.7819997  40.5759992 136.5894990  85.9109997
  40.2339059 135.8619485  85.5796061  38.4139992 138.8724990  86.5489997
  38.9059992 138.6514990  85.7589997  38.7759992 139.7124990  86.8299997
  38.5303429 138.9558220  86.4787918  56.4099992 135.2024990  92.8149997
  55.4929992 135.4734990  92.7789997  56.5329992 134.6674990  92.0309997
  56.3010828 135.1672711  92.7040767  56.4459992 135.1254990  77.4769997
  56.8589992 134.4044990  77.0009997  57.1279992 135.7944990  77.5349997
  56.5945712 135.1174304  77.4198247  38.7269992 135.1304990  80.6039997
  37.8019992 135.3384990  80.4739997  39.1809992 135.6144990  79.9139997
  38.6617401 135.2243895  80.4929433  38.6909992 133.8684990  88.9479997
  38.0259992 133.6224990  89.5909997  38.2479992 134.4904990  88.3709997
  38.5401168 133.9189225  88.9579830  55.4109992 133.2924990  90.6339997
  54.5979992 133.6174990  90.2459997  55.6439992 132.5314990  90.1009997
  55.3312566 133.2341570  90.5089196  48.8409992 134.7414990  84.9569997
  48.1659992 134.1114990  85.2119997  49.4049992 134.2574990  84.3539997
  48.8249558 134.5899283  84.9103451  53.9829992 132.8484990  85.0689997
  54.5869992 133.3964990  84.5679997  53.1139992 133.1674990  84.8289997
  53.9481126 132.9667070  84.9679180  55.7099992 133.9874990  83.4029997
  56.3219992 133.4734990  82.8759997  56.0929992 134.8644990  83.4259997
  55.8453867 134.0357613  83.3340888  41.1669992 133.3754990  82.7789997
  40.3899992 133.1404990  82.2709997  41.6979992 132.5784990  82.7879997
  41.1324443 133.2356721  82.7107200  40.0039992 133.1734990  78.5819997
  40.4429992 133.7844990  77.9909997  39.3699992 133.7114990  79.0559997
  39.9784103 133.3299233  78.5651376  45.7469992 133.3014990  82.5919997
  46.6209992 133.6904990  82.5619997  45.6109992 133.0864990  83.5149997
  45.8483125 133.3257120  82.7126523  51.3029992 133.3314990  84.2409997
  51.3799992 133.4274990  83.2919997  51.0279992 132.4244990  84.3699997
  51.2763407 133.2219188  84.1283532  52.6569992 133.3574990  79.9339997
  51.9539992 133.9724990  79.7239997  52.2119992 132.5204990  80.0649997
  52.5006550 133.3284679  79.9229819  41.8649992 135.0894990  77.0249997
  42.3559992 134.4594990  76.4969997  42.4879992 135.3854990  77.6879997
  42.0165459 135.0432419  77.0423667  46.8909992 135.3824990  79.4819997
  47.0689992 134.7354990  80.1649997  46.8369992 136.2164990  79.9489997
  46.9080678 135.4066615  79.6386283  41.1249992 133.8894990  92.2959997
  40.7589992 133.1234990  92.7389997  42.0379992 133.9184990  92.5829997
  41.1983225 133.7886917  92.3953441  43.0979992 133.2394990  93.8319997
  43.9969992 132.9654990  93.6469997  42.7119992 132.4974990  94.2959997
  43.1687237 133.1016520  93.8694693  51.5189992 132.5724990  94.0139997
  51.5959992 132.1464990  94.8679997  52.4129992 132.5854990  93.6719997
  51.6503315 132.5160320  94.0845052  75.0869992 135.8204990  87.4229997
  75.1359992 136.4304990  88.1589997  75.5129992 136.2814990  86.6999997
  75.1512851 135.9663266  87.4260532  69.5649992 138.6124990  86.8899997
  69.7069992 137.6664990  86.9099997  69.4589992 138.8194990  85.9609997
  69.5701158 138.5109722  86.7672241  62.7199992 136.7144990  84.1619997
  62.7629992 137.5744990  83.7439997  62.2619992 136.1614990  83.5289997
  62.6639613 136.7575689  84.0191276  70.4419992 136.8454990  82.5629997
  71.0879992 136.5164990  83.1879997  70.9519992 137.3624990  81.9399997
  70.5994392 136.8703710  82.5643248  59.3399992 139.1114990  84.9239997
  59.9939992 138.5614990  85.3559997  59.3639992 138.8374990  84.0079997
  59.4327022 138.9992005  84.8591698  75.4789992 137.2984990  89.6589997
  74.7899992 137.9564990  89.5639997  75.4939992 137.1004990  90.5959997
  75.3867756 137.3617614  89.7725795  61.5299992 135.6324990  88.2359997
  61.3109992 136.1624990  87.4699997  60.8619992 135.8584990  88.8839997
  61.4097271 135.7356508  88.2186206  72.2059992 136.1364990  84.5439997
  71.9909992 135.3704990  85.0759997  72.8619992 136.6084990  85.0569997
  72.2652451 136.0954472  84.6861699  61.1239992 137.5244990  86.1889997
  61.7369992 138.1574990  86.5619997  61.6359992 137.0524990  85.5319997
  61.2771680 137.5474006  86.1512830  72.5529992 134.8514990  88.2229997
  71.8169992 135.4614990  88.1849997  73.2369992 135.2664990  87.6969997
  72.5445885 134.9911924  88.1466931  65.5559992 132.9374990  85.6889997
  65.4389992 131.9894990  85.6349997  64.7009992 133.2704990  85.9619997
  65.4243691 132.8525842  85.7185072  73.0569992 138.9874990  92.4739997
  72.6499992 139.4674990  91.7539997  73.0979992 138.0814990  92.1669997
  73.0067178 138.9308609  92.3337441  62.8249992 133.8414990  86.4669997
  61.9629992 133.7544990  86.0589997  62.8029992 134.6974990  86.8939997
  62.7040953 133.9453558  86.4689262  67.4879992 133.5634990  89.8409997
  67.9079992 133.1484990  90.5939997  66.5549992 133.3844990  89.9579997
  67.4193736 133.4824921  89.9598950  70.8139992 137.3184990  90.6949997
  70.2999992 137.1934990  91.4919997  70.6589992 138.2314990  90.4499997
  70.7226643 137.4247068  90.7710624  62.9159992 138.8064990  87.5619997
  62.2739992 138.7664990  88.2709997  62.9529992 139.7334990  87.3239997
  62.8331659 138.9262540  87.6268463  62.9129992 139.0274990  82.4739997
  62.0199992 138.6874990  82.4149997  63.3639992 138.6504990  81.7179997
  62.8517185 138.9300220  82.3637698  68.4489992 139.4434990  81.2909997
  68.0399992 140.2584990  80.9989997  69.1689992 139.3034990  80.6759997
  68.4903946 139.5359963  81.1679616  69.4529992 138.8894990  84.1049997
  69.2579992 139.4954990  83.3899997  69.6349992 138.0564990  83.6699997
  69.4509272 138.8597955  83.9484075  60.6659992 139.1274990  89.4289997
  60.6279992 139.5274990  90.2969997  60.1749992 138.3104990  89.5189997
  60.5944246 139.0718842  89.5601171  57.2739992 136.2434990  83.2789997
  57.9049992 136.2144990  83.9989997  57.7239992 135.8184990  82.5489997
  57.4210905 136.1820839  83.2787479  58.5479992 136.9894990  78.7029997
  59.0229992 137.5804990  78.1179997  57.8309992 137.5194990  79.0499997
  58.5160406 137.1421011  78.6698495  65.4949992 136.4554990  83.5599997
  64.5839992 136.5124990  83.8489997  65.9999992 136.3954990  84.3709997
  65.4386873 136.4551838  83.7091190  60.3229992 138.0844990  82.3869997
  59.4339992 138.1834990  82.0469997  60.6189992 137.2424990  82.0409997
  60.2414001 137.9842473  82.2937318  63.9759992 138.0844990  80.0429997
  64.9079992 138.2134990  80.2209997  63.7609992 138.7534990  79.3939997
  64.0744245 138.1926452  79.9795602  69.8999992 135.6904990  86.8239997
  69.2229992 135.8214990  87.4879997  69.4139992 135.5354990  86.0139997
  69.7417265 135.6874665  86.8053380  62.6499992 139.2784990  77.6099997
  62.1079992 138.8994990  76.9189997  63.4839992 139.4734990  77.1809997
  62.6884283 139.2529383  77.4574298  66.8149992 139.2424990  85.4469997
  67.3789992 138.6964990  84.8999997  66.6669992 138.7214990  86.2359997
  66.8723037 139.0971798  85.4787212  61.8169992 135.3794990  81.8649997
  61.4989992 134.4764990  81.8299997  62.5979992 135.3814990  81.3129997
  61.8791560 135.2561148  81.7854975  65.4409992 137.6314990  87.8609997
  64.6059992 138.0854990  87.9709997  65.9649992 137.9074990  88.6129997
  65.3975070 137.7309677  87.9777134  69.8829992 136.6584990  77.7449997
  68.9439992 136.7694990  77.5939997  70.1799992 137.5144990  78.0509997
  69.7946371 136.7895327  77.7657362  70.6009992 138.5254990  79.4059997
  71.4929992 138.3874990  79.7249997  70.6579992 139.3164990  78.8689997
  70.7307380 138.6134777  79.3770981  75.4859992 138.7344990  79.0999997
  74.9319992 138.3384990  78.4279997  75.5869992 139.6454990  78.8229997
  75.4237084 138.8033565  78.9704381  59.7519992 136.3534990  90.1879997
  58.8589992 136.6914990  90.1209997  59.6529992 135.4974990  90.6059997
  59.6165241 136.2840941  90.2352982  68.4859992 136.0944990  89.0779997
  69.1849992 136.1684990  89.7279997  68.1059992 135.2294990  89.2329997
  68.5302095 135.9877402  89.1877982  69.2709992 135.7464990  80.1749997
  69.4909992 136.2174990  79.3719997  69.8289992 136.1404990  80.8459997
  69.3765851 135.8643272  80.1556134  66.4709992 137.4744990  81.0099997
  67.2829992 137.9784990  81.0559997  66.2259992 137.3294990  81.9239997
  66.5491091 137.5239366  81.1398552  67.0069992 138.4604990  90.1949997
  67.1259992 139.0344990  90.9519997  67.6619992 137.7724990  90.3099997
  67.1118684 138.4460205  90.3141656  67.3549992 134.5554990  81.9479997
  67.0079992 135.1724990  82.5929997  68.0129992 135.0564990  81.4669997
  67.3965290 134.7076384  81.9711635  63.0119992 135.6184990  78.6359997
  62.9289992 136.5064990  78.9819997  63.9019992 135.3534990  78.8669997
  63.1209751 135.7042482  78.7146066  73.2109992 136.3674990  91.0299997
  72.2949992 136.6294990  90.9419997  73.5469992 136.3644990  90.1329997
  73.1309789 136.4029637  90.8967829  59.5869992 138.7104990  76.8119997
  59.5419992 139.6494990  76.9909997  58.6989992 138.4744990  76.5419997
  59.4608472 138.8071946  76.8000282  60.3949992 133.4914990  85.4849997
  60.1659992 133.5504990  84.5579997  59.9519992 132.7004990  85.7919997
  60.3037387 133.3926412  85.3995223  63.6399992 137.4194990  91.8069997
  63.7899992 136.6904990  91.2039997  63.6419992 138.1964990  91.2479997
  63.6607664 137.4248971  91.6490525  64.0519992 135.7884990  89.2989997
  64.5879992 136.2404990  88.6469997  63.1999992 135.6804990  88.8769997
  64.0101648 135.8357883  89.1526395  70.0499992 139.0434990  94.5669997
  70.2419992 138.1124990  94.4559997  70.9069992 139.4684990  94.5569997
  70.1922320 138.9734743  94.5504433  62.1179992 138.6174990  93.7179997
  61.3509992 138.0844990  93.5079997  62.7969992 138.3074990  93.1189997
  62.1048292 138.5026360  93.6082693  64.8579992 133.2454990  89.7309997
  64.7599992 134.1914990  89.6249997  64.1149992 132.8724990  89.2549997
  64.7442363 133.3245987  89.6522029  66.1219992 137.5664990  93.2939997
  65.8859992 137.3474990  94.1959997  65.3389992 137.3594990  92.7849997
  65.9838444 137.5085688  93.3484518  68.8379992 136.6944990  92.3699997
  67.8899992 136.7264990  92.5019997  69.1499992 136.0684990  93.0239997
  68.7505293 136.6142934  92.4764130  70.4719992 135.3284990  94.3749997
  70.3749992 134.3764990  94.3689997  70.1499992 135.5964990  95.2359997
  70.4152229 135.2344706  94.4905108  60.2989992 136.5374990  93.4229997
  60.5099992 135.8314990  92.8119997  60.1869992 136.1004990  94.2669997
  60.3127674 136.3816376  93.4534199  65.0799992 132.5394990  92.4019997
  65.7909992 131.8994990  92.3879997  64.9789992 132.8054990  91.4879997
  65.1636732 132.4878451  92.2765475  65.4329992 134.2214990  94.4559997
  65.3019992 133.7464990  93.6349997  64.8339992 134.9664990  94.3999997
  65.3341524 134.2571968  94.3361553  72.8219992 137.7944990  80.8999997
  73.1019992 136.8874990  81.0249997  73.5809992 138.2284990  80.5109997
  72.9629471 137.7290654  80.8645052  73.4339992 138.3764990  86.3359997
  74.3669992 138.5884990  86.3019997  73.1989992 138.4774990  87.2589997
  73.5298357 138.4191303  86.4560232  73.4629992 139.1134990  89.1119997
  72.6199992 139.3814990  89.4779997  73.9059992 139.9354990  88.9009997
  73.4074358 139.2613294  89.1335999  57.7439992 137.5604990  92.5889997
  58.6639992 137.4384990  92.8249997  57.2949992 136.8104990  92.9779997
  57.8091561 137.4423720  92.6739015  75.7459992 133.0934990  94.4659997
  76.0959992 132.4394990  93.8599997  75.8929992 133.9304990  94.0259997
  75.8137192 133.1172545  94.3236712  73.4359992 135.0574990  80.9489997
  73.6179992 134.6084990  81.7739997  72.8359992 134.4734990  80.4849997
  73.3798187 134.9170563  80.9992721  58.9659992 135.8734990  85.4799997
  59.4109992 135.0814990  85.7819997  59.4319992 136.5894990  85.9109997
  59.0899059 135.8619485  85.5796061  57.2699992 138.8724990  86.5489997
  57.7619992 138.6514990  85.7589997  57.6319992 139.7124990  86.8299997
  57.3863429 138.9558220  86.4787918  75.2659992 135.2024990  92.8149997
  74.3489992 135.4734990  92.7789997  75.3889992 134.6674990  92.0309997
  75.1570828 135.1672711  92.7040767  57.5829992 135.1304990  80.6039997
  56.6579992 135.3384990  80.4739997  58.0369992 135.6144990  79.9139997
  57.5177401 135.2243895  80.4929433  57.5469992 133.8684990  88.9479997
  56.8819992 133.6224990  89.5909997  57.1039992 134.4904990  88.3709997
  57.3961168 133.9189225  88.9579830  74.2669992 133.2924990  90.6339997
  73.4539992 133.6174990  90.2459997  74.4999992 132.5314990  90.1009997
  74.1872566 133.2341570  90.5089196
 140.3499985 140.3509979 111.9039993  90.0000000  90.0000000  90.0000000
